 Gaussian 16, Revision A.03,
 Gaussian 16:  EM64L-G16RevA.03 25-Dec-2016

 -------------
 #p 6-31g* mp2
 -------------

 ------------------------------------------------------
 Input file generated by CHIRIPA (05-May-2021 14:51:13)
 ------------------------------------------------------
 Symbolic Z-matrix:
 Charge =  0 Multiplicity = 1

                         Standard orientation:
 ---------------------------------------------------------------------
 Center     Atomic      Atomic             Coordinates (Angstroms)
 Number     Number       Type             X           Y           Z
 ---------------------------------------------------------------------
      1          6           0        3.440678    0.115868    0.887489
      2          6           0        1.969231    0.409202    0.592898
      3          6           0        1.204282    0.891608    1.825753
      4          1           0        3.505327   -0.641669    1.680523
      5          1           0        3.916297    1.023960    1.283153
      6          1           0        1.496867   -0.498786    0.196608
      7          1           0        1.908076    1.165990   -0.199661
      8          1           0        1.649105    1.811132    2.219719
      9          1           0        1.235559    0.136897    2.618240
     10          1           0        0.154540    1.095397    1.592576
     11          6           0        4.218666   -0.367339   -0.335202
     12          6           0        5.690113   -0.660673   -0.040610
     13          6           0        6.455062   -1.143078   -1.273466
     14          1           0        3.743047   -1.275431   -0.730865
     15          1           0        4.154017    0.390199   -1.128236
     16          1           0        5.751268   -1.417460    0.751948
     17          1           0        6.162477    0.247315    0.355679
     18          1           0        6.423785   -0.388368   -2.065952
     19          1           0        6.010239   -2.062602   -1.667432
     20          1           0        7.504804   -1.346867   -1.040289
     21          6           0       -3.932542   -0.589560   -0.028752
     22          6           0       -5.358770   -1.102113   -0.231604
     23          6           0       -5.548864   -2.534515    0.268276
     24          1           0       -3.232300   -1.257078   -0.549355
     25          1           0       -3.679658   -0.642787    1.039242
     26          1           0       -5.609378   -1.046639   -1.298719
     27          1           0       -6.055712   -0.433189    0.289382
     28          1           0       -5.325540   -2.602075    1.337932
     29          1           0       -4.876670   -3.219010   -0.259193
     30          1           0       -6.575501   -2.880816    0.113509
     31          6           0       -3.726802    0.841031   -0.523535
     32          6           0       -2.300574    1.353583   -0.320683
     33          6           0       -2.110480    2.785986   -0.820563
     34          1           0       -3.979686    0.894258   -1.591529
     35          1           0       -4.427044    1.508549   -0.002932
     36          1           0       -1.603632    0.684660   -0.841670
     37          1           0       -2.049966    1.298109    0.746431
     38          1           0       -2.782674    3.470481   -0.293094
     39          1           0       -2.333804    2.853546   -1.890219
     40          1           0       -1.083843    3.132286   -0.665797
 ---------------------------------------------------------------------

 SCF Done:  E(RHF) =  -470.733215446     A.U. after   11 cycles
 E2 =    -0.1582765779D+01 EUMP2 =    -0.47231598122519D+03

 The electronic state is 1-A.
 Alpha  occ. eigenvalues --  -11.21625 -11.21610 -11.21590 -11.21568 -11.21419
 Alpha  occ. eigenvalues --  -11.21385 -11.21360 -11.21325 -11.21093 -11.21079
 Alpha  occ. eigenvalues --  -11.21064 -11.20971  -1.08452  -1.08403  -1.03567
 Alpha  occ. eigenvalues --   -1.03482  -0.96009  -0.95933  -0.87017  -0.86961
 Alpha  occ. eigenvalues --   -0.79636  -0.79549  -0.78271  -0.78217  -0.65082
 Alpha  occ. eigenvalues --   -0.65037  -0.60960  -0.60897  -0.59573  -0.59159
 Alpha  occ. eigenvalues --   -0.57754  -0.57382  -0.55281  -0.55234  -0.52729
 Alpha  occ. eigenvalues --   -0.52618  -0.52420  -0.52368  -0.49935  -0.49889
 Alpha  occ. eigenvalues --   -0.48018  -0.47797  -0.46640  -0.46598  -0.45795
 Alpha  occ. eigenvalues --   -0.45787  -0.45701  -0.45682  -0.43821  -0.43694
 Alpha virt. eigenvalues --    0.21415   0.23065   0.23390   0.25143   0.26168
 Alpha virt. eigenvalues --    0.26530   0.26677   0.27661   0.27767   0.28963
 Alpha virt. eigenvalues --    0.30287   0.31036   0.31172   0.31741   0.32064

 Mulliken charges:
               1
     1  C   -0.298421
     2  C   -0.298805
     3  C   -0.484126
     4  H    0.149644
     5  H    0.149453
     6  H    0.151797
     7  H    0.151508
     8  H    0.154380
     9  H    0.154560
    10  H    0.169486
    11  C   -0.298218
    12  C   -0.299618
    13  C   -0.475689
    14  H    0.149373
    15  H    0.149539
    16  H    0.151933
    17  H    0.151919
    18  H    0.155143
    19  H    0.155123
    20  H    0.160222
    21  C   -0.298430
    22  C   -0.299659
    23  C   -0.475722
    24  H    0.149616
    25  H    0.149610
    26  H    0.151961
    27  H    0.151999
    28  H    0.155242
    29  H    0.155139
    30  H    0.160295
    31  C   -0.297460
    32  C   -0.304706
    33  C   -0.476691
    34  H    0.149615
    35  H    0.149695
    36  H    0.153694
    37  H    0.154726
    38  H    0.155282
    39  H    0.155472
    40  H    0.161120
 Sum of Mulliken charges =  -0.00000

 Dipole moment (field-independent basis, Debye):
    X=             -0.0351    Y=              0.0032    Z=             -0.0103  Tot=              0.0367
 Quadrupole moment (field-independent basis, Debye-Ang):
   XX=            -85.2832   YY=            -84.8914   ZZ=            -84.6404
   XY=              0.0607   XZ=              0.3109   YZ=              0.1273

 Normal termination of Gaussian 16 at Wed May  5 21:34:18 2021.
