 Gaussian 16, Revision A.03,
 Gaussian 16:  EM64L-G16RevA.03 25-Dec-2016

 -------------
 #p 6-31g* mp2
 -------------

 ------------------------------------------------------
 Input file generated by CHIRIPA (05-May-2021 14:51:13)
 ------------------------------------------------------
 Symbolic Z-matrix:
 Charge =  0 Multiplicity = 1

                         Standard orientation:
 ---------------------------------------------------------------------
 Center     Atomic      Atomic             Coordinates (Angstroms)
 Number     Number       Type             X           Y           Z
 ---------------------------------------------------------------------
      1          6           0       -2.525792   -0.360872    0.273046
      2          6           0       -2.078050   -1.221496    1.454925
      3          6           0       -0.564362   -1.434120    1.491449
      4          1           0       -2.197969   -0.834697   -0.662351
      5          1           0       -2.018973    0.612715    0.324605
      6          1           0       -2.586615   -2.192664    1.401919
      7          1           0       -2.407143   -0.745666    2.387608
      8          1           0       -0.042345   -0.474863    1.568419
      9          1           0       -0.222837   -1.930083    0.577128
     10          1           0       -0.266208   -2.051995    2.344207
     11          6           0       -4.036466   -0.139341    0.222898
     12          6           0       -4.484209    0.721283   -0.958980
     13          6           0       -5.997896    0.933907   -0.995505
     14          1           0       -4.543285   -1.112929    0.171340
     15          1           0       -4.364289    0.334484    1.158295
     16          1           0       -4.155115    0.245452   -1.891664
     17          1           0       -3.975643    1.692451   -0.905974
     18          1           0       -6.339421    1.429870   -0.081184
     19          1           0       -6.519913   -0.025351   -1.072474
     20          1           0       -6.296051    1.551782   -1.848262
     21          6           0        3.160425    0.818918    0.247322
     22          6           0        3.415302    2.204580   -0.346787
     23          6           0        3.169574    3.332143    0.656215
     24          1           0        2.125368    0.768061    0.612032
     25          1           0        3.807955    0.678717    1.123931
     26          1           0        2.768478    2.341589   -1.222837
     27          1           0        4.449815    2.252081   -0.710299
     28          1           0        3.824905    3.223252    1.526437
     29          1           0        2.134015    3.313270    1.010986
     30          1           0        3.357685    4.313924    0.210592
     31          6           0        3.401832   -0.318705   -0.743266
     32          6           0        3.146957   -1.704367   -0.149158
     33          6           0        3.392684   -2.831930   -1.152161
     34          1           0        2.754303   -0.178504   -1.619876
     35          1           0        4.436890   -0.267847   -1.107977
     36          1           0        2.112443   -1.751867    0.214354
     37          1           0        3.793779   -1.841377    0.726892
     38          1           0        4.428243   -2.813057   -1.506931
     39          1           0        2.737353   -2.723038   -2.022382
     40          1           0        3.204573   -3.813710   -0.706536
 ---------------------------------------------------------------------

 SCF Done:  E(RHF) =  -470.732836428     A.U. after   11 cycles
 E2 =    -0.1583329462D+01 EUMP2 =    -0.47231616588953D+03

 The electronic state is 1-A.
 Alpha  occ. eigenvalues --  -11.21665 -11.21641 -11.21567 -11.21465 -11.21422
 Alpha  occ. eigenvalues --  -11.21402 -11.21334 -11.21270 -11.21157 -11.21101
 Alpha  occ. eigenvalues --  -11.21061 -11.20997  -1.08490  -1.08356  -1.03596
 Alpha  occ. eigenvalues --   -1.03458  -0.96048  -0.95921  -0.87077  -0.86931
 Alpha  occ. eigenvalues --   -0.79711  -0.79488  -0.78328  -0.78133  -0.65119
 Alpha  occ. eigenvalues --   -0.65001  -0.61051  -0.60822  -0.59407  -0.59291
 Alpha  occ. eigenvalues --   -0.57654  -0.57534  -0.55400  -0.55152  -0.52755
 Alpha  occ. eigenvalues --   -0.52635  -0.52478  -0.52341  -0.50075  -0.49793
 Alpha  occ. eigenvalues --   -0.48110  -0.47789  -0.46776  -0.46431  -0.45990
 Alpha  occ. eigenvalues --   -0.45755  -0.45679  -0.45373  -0.43838  -0.43712
 Alpha virt. eigenvalues --    0.21438   0.23025   0.23916   0.24280   0.25366
 Alpha virt. eigenvalues --    0.26581   0.27141   0.27573   0.27883   0.29401
 Alpha virt. eigenvalues --    0.30106   0.31647   0.31746   0.31877   0.32186

 Mulliken charges:
               1
     1  C   -0.298303
     2  C   -0.300194
     3  C   -0.481320
     4  H    0.149523
     5  H    0.148992
     6  H    0.152312
     7  H    0.152236
     8  H    0.158896
     9  H    0.156479
    10  H    0.161633
    11  C   -0.298306
    12  C   -0.299696
    13  C   -0.475746
    14  H    0.149738
    15  H    0.149846
    16  H    0.151944
    17  H    0.151935
    18  H    0.155276
    19  H    0.155268
    20  H    0.160386
    21  C   -0.302596
    22  C   -0.299475
    23  C   -0.475497
    24  H    0.153444
    25  H    0.149377
    26  H    0.151845
    27  H    0.151977
    28  H    0.155215
    29  H    0.154363
    30  H    0.160184
    31  C   -0.297256
    32  C   -0.310437
    33  C   -0.475364
    34  H    0.148832
    35  H    0.149161
    36  H    0.165522
    37  H    0.151045
    38  H    0.154879
    39  H    0.154146
    40  H    0.159737
 Sum of Mulliken charges =  -0.00000

 Dipole moment (field-independent basis, Debye):
    X=             -0.0563    Y=             -0.0135    Z=              0.0314  Tot=              0.0659
 Quadrupole moment (field-independent basis, Debye-Ang):
   XX=            -85.1346   YY=            -85.0427   ZZ=            -84.7696
   XY=              0.4782   XZ=              0.3175   YZ=             -0.1132

 Normal termination of Gaussian 16 at Thu May  6 00:46:51 2021.
