 Gaussian 16, Revision A.03,
 Gaussian 16:  EM64L-G16RevA.03 25-Dec-2016

 -------------
 #p 6-31g* mp2
 -------------

 ------------------------------------------------------
 Input file generated by CHIRIPA (05-May-2021 14:57:22)
 ------------------------------------------------------
 Symbolic Z-matrix:
 Charge =  0 Multiplicity = 1

                         Standard orientation:
 ---------------------------------------------------------------------
 Center     Atomic      Atomic             Coordinates (Angstroms)
 Number     Number       Type             X           Y           Z
 ---------------------------------------------------------------------
      1          6           0       -2.548690   -1.769751    1.247181
      2          6           0       -2.068774   -0.583609    0.682142
      3          6           0       -2.936804    0.289066    0.019184
      4          6           0       -4.284769   -0.057271   -0.060387
      5          6           0       -4.793242   -1.231688    0.492324
      6          6           0       -3.906997   -2.089441    1.150639
      7          1           0       -1.867309   -2.441869    1.760379
      8          1           0       -1.014390   -0.332760    0.755580
      9          1           0       -2.592024    1.213836   -0.427296
     10          1           0       -5.849519   -1.454633    0.402924
     11          1           0       -4.282510   -3.009933    1.588508
     12          7           0       -5.213354    0.858692   -0.759773
     13          8           0       -6.396511    0.530677   -0.816204
     14          8           0       -4.740440    1.887294   -1.238277
     15          6           0        2.648196    1.993950    0.933187
     16          6           0        2.098115    0.998352    0.119112
     17          6           0        2.910589    0.003958   -0.433712
     18          6           0        4.275149    0.035597   -0.150403
     19          6           0        4.852986    1.014210    0.656883
     20          6           0        4.021455    1.998692    1.199006
     21          1           0        2.009645    2.762570    1.358478
     22          1           0        1.031963    0.992181   -0.089035
     23          1           0        2.511010   -0.778558   -1.067293
     24          1           0        5.919338    0.994133    0.846377
     25          1           0        4.451409    2.770653    1.830877
     26          7           0        5.145365   -1.011879   -0.729989
     27          8           0        6.344540   -0.961860   -0.465198
     28          8           0        4.611788   -1.863074   -1.438084
 ---------------------------------------------------------------------

 SCF Done:  E(RHF) =  -868.336970950     A.U. after   16 cycles
 E2 =    -0.2599369743D+01 EUMP2 =    -0.87093634069314D+03

 The electronic state is 1-A.
 Alpha  occ. eigenvalues --  -20.61269 -20.61261 -20.61231 -20.61219 -15.86328
 Alpha  occ. eigenvalues --  -15.86287 -11.31798 -11.31732 -11.28452 -11.28392
 Alpha  occ. eigenvalues --  -11.28371 -11.28277 -11.28174 -11.28057 -11.27545
 Alpha  occ. eigenvalues --  -11.27441 -11.27369 -11.27278  -1.60342  -1.60302
 Alpha  occ. eigenvalues --   -1.39893  -1.39854  -1.20001  -1.19918  -1.09372
 Alpha  occ. eigenvalues --   -1.09288  -1.05438  -1.05350  -0.96182  -0.96110
 Alpha  occ. eigenvalues --   -0.86840  -0.86726  -0.83036  -0.82947  -0.78085
 Alpha  occ. eigenvalues --   -0.77969  -0.72543  -0.72502  -0.71669  -0.71626
 Alpha  occ. eigenvalues --   -0.71091  -0.71008  -0.65657  -0.65627  -0.65569
 Alpha  occ. eigenvalues --   -0.65241  -0.62893  -0.62591  -0.55920  -0.55805
 Alpha  occ. eigenvalues --   -0.53756  -0.53660  -0.53643  -0.53319  -0.49314
 Alpha  occ. eigenvalues --   -0.49291  -0.49266  -0.49253  -0.45275  -0.45243
 Alpha  occ. eigenvalues --   -0.37976  -0.37877  -0.37041  -0.36958
 Alpha virt. eigenvalues --    0.04503   0.04567   0.10540   0.10701   0.15872
 Alpha virt. eigenvalues --    0.16036   0.18282   0.21892   0.24545   0.27571
 Alpha virt. eigenvalues --    0.27856   0.28466   0.29875   0.31596   0.31928

 Mulliken charges:
               1
     1  C   -0.170470
     2  C   -0.222423
     3  C   -0.171442
     4  C    0.159029
     5  C   -0.169831
     6  C   -0.218178
     7  H    0.228988
     8  H    0.218511
     9  H    0.271533
    10  H    0.277684
    11  H    0.226182
    12  N    0.488186
    13  O   -0.458260
    14  O   -0.460958
    15  C   -0.170197
    16  C   -0.223723
    17  C   -0.171402
    18  C    0.158725
    19  C   -0.169360
    20  C   -0.218568
    21  H    0.227865
    22  H    0.218265
    23  H    0.276029
    24  H    0.277893
    25  H    0.226211
    26  N    0.488072
    27  O   -0.458484
    28  O   -0.459878
 Sum of Mulliken charges =  -0.00000

 Dipole moment (field-independent basis, Debye):
    X=              0.2546    Y=              0.4068    Z=              4.5668  Tot=              4.5919
 Quadrupole moment (field-independent basis, Debye-Ang):
   XX=           -151.6963   YY=           -102.0111   ZZ=           -105.9065
   XY=             34.6566   XZ=             -0.3580   YZ=             -0.0707

 Normal termination of Gaussian 16 at Wed May  5 22:37:25 2021.
