 Gaussian 16, Revision A.03,
 Gaussian 16:  EM64L-G16RevA.03 25-Dec-2016

 -------------
 #p 6-31g* mp2
 -------------

 ------------------------------------------------------
 Input file generated by CHIRIPA (05-May-2021 14:51:08)
 ------------------------------------------------------
 Symbolic Z-matrix:
 Charge =  0 Multiplicity = 1

                         Standard orientation:
 ---------------------------------------------------------------------
 Center     Atomic      Atomic             Coordinates (Angstroms)
 Number     Number       Type             X           Y           Z
 ---------------------------------------------------------------------
      1          6           0        2.526411   -0.478646    0.411582
      2          6           0        1.874998   -1.857562    0.300968
      3          6           0        0.460541   -1.891370    0.880590
      4          1           0        2.554029   -0.176841    1.467563
      5          1           0        1.898576    0.258506   -0.107867
      6          1           0        2.504578   -2.592131    0.819286
      7          1           0        1.849101   -2.156203   -0.754854
      8          1           0       -0.187143   -1.180225    0.357733
      9          1           0        0.472058   -1.618630    1.940817
     10          1           0        0.013680   -2.886441    0.791099
     11          6           0        3.940777   -0.428896   -0.163588
     12          6           0        4.592191    0.950020   -0.052974
     13          6           0        6.006648    0.983828   -0.632597
     14          1           0        4.568612   -1.166048    0.355860
     15          1           0        3.913160   -0.730701   -1.219569
     16          1           0        4.618087    1.248661    1.002847
     17          1           0        3.962610    1.684588   -0.571293
     18          1           0        5.995130    0.711087   -1.692824
     19          1           0        6.654332    0.272683   -0.109740
     20          1           0        6.453508    1.978899   -0.543105
     21          6           0       -2.988563   -0.267737   -0.177082
     22          6           0       -4.117576   -1.277830   -0.384510
     23          6           0       -3.611552   -2.716876   -0.488822
     24          1           0       -2.275923   -0.347911   -1.009345
     25          1           0       -2.434647   -0.529641    0.735047
     26          1           0       -4.670056   -1.013292   -1.295225
     27          1           0       -4.827711   -1.195109    0.448245
     28          1           0       -3.077960   -3.004638    0.422810
     29          1           0       -2.919410   -2.821789   -1.330566
     30          1           0       -4.435146   -3.422308   -0.636862
     31          6           0       -3.478625    1.175279   -0.070912
     32          6           0       -2.349612    2.185372    0.136517
     33          6           0       -2.855636    3.624418    0.240829
     34          1           0       -4.032541    1.437183   -0.983041
     35          1           0       -4.191264    1.255454    0.761352
     36          1           0       -1.639477    2.102651   -0.696239
     37          1           0       -1.797132    1.920835    1.047232
     38          1           0       -3.547779    3.729331    1.082573
     39          1           0       -3.389228    3.912180   -0.670803
     40          1           0       -2.032042    4.329851    0.388868
 ---------------------------------------------------------------------

 SCF Done:  E(RHF) =  -470.732712080     A.U. after   11 cycles
 E2 =    -0.1583351342D+01 EUMP2 =    -0.47231606342210D+03

 The electronic state is 1-A.
 Alpha  occ. eigenvalues --  -11.21619 -11.21589 -11.21580 -11.21528 -11.21393
 Alpha  occ. eigenvalues --  -11.21367 -11.21326 -11.21305 -11.21082 -11.21056
 Alpha  occ. eigenvalues --  -11.21038 -11.20901  -1.08442  -1.08379  -1.03534
 Alpha  occ. eigenvalues --   -1.03468  -0.95986  -0.95917  -0.87013  -0.86930
 Alpha  occ. eigenvalues --   -0.79656  -0.79507  -0.78320  -0.78126  -0.65065
 Alpha  occ. eigenvalues --   -0.65016  -0.60926  -0.60881  -0.59371  -0.59270
 Alpha  occ. eigenvalues --   -0.57707  -0.57437  -0.55275  -0.55211  -0.52689
 Alpha  occ. eigenvalues --   -0.52625  -0.52554  -0.52196  -0.49937  -0.49877
 Alpha  occ. eigenvalues --   -0.47963  -0.47830  -0.46682  -0.46616  -0.45911
 Alpha  occ. eigenvalues --   -0.45756  -0.45673  -0.45310  -0.43782  -0.43723
 Alpha virt. eigenvalues --    0.21988   0.23066   0.23781   0.24377   0.25953
 Alpha virt. eigenvalues --    0.26030   0.27035   0.27436   0.28014   0.29513
 Alpha virt. eigenvalues --    0.30511   0.31364   0.31644   0.31774   0.32274

 Mulliken charges:
               1
     1  C   -0.298330
     2  C   -0.299677
     3  C   -0.483405
     4  H    0.149347
     5  H    0.149635
     6  H    0.151274
     7  H    0.151333
     8  H    0.165159
     9  H    0.152987
    10  H    0.160423
    11  C   -0.298191
    12  C   -0.299585
    13  C   -0.475671
    14  H    0.149480
    15  H    0.149446
    16  H    0.151871
    17  H    0.151837
    18  H    0.155100
    19  H    0.155160
    20  H    0.160155
    21  C   -0.303673
    22  C   -0.299189
    23  C   -0.476787
    24  H    0.149024
    25  H    0.156711
    26  H    0.151565
    27  H    0.151819
    28  H    0.157145
    29  H    0.155064
    30  H    0.159892
    31  C   -0.297448
    32  C   -0.300409
    33  C   -0.475580
    34  H    0.149260
    35  H    0.149663
    36  H    0.151003
    37  H    0.152742
    38  H    0.155326
    39  H    0.155180
    40  H    0.160345
 Sum of Mulliken charges =  -0.00000

 Dipole moment (field-independent basis, Debye):
    X=             -0.0471    Y=              0.0113    Z=              0.0079  Tot=              0.0490
 Quadrupole moment (field-independent basis, Debye-Ang):
   XX=            -85.8304   YY=            -86.0181   ZZ=            -83.0708
   XY=              0.0032   XZ=              0.5899   YZ=             -0.3487

 Normal termination of Gaussian 16 at Thu May  6 06:51:36 2021.
