 Gaussian 16, Revision A.03,
 Gaussian 16:  EM64L-G16RevA.03 25-Dec-2016

 -------------
 #p 6-31g* mp2
 -------------

 ------------------------------------------------------
 Input file generated by CHIRIPA (05-May-2021 14:53:11)
 ------------------------------------------------------
 Symbolic Z-matrix:
 Charge =  0 Multiplicity = 1

                         Standard orientation:
 ---------------------------------------------------------------------
 Center     Atomic      Atomic             Coordinates (Angstroms)
 Number     Number       Type             X           Y           Z
 ---------------------------------------------------------------------
      1          6           0       -3.571813   -0.527115   -0.416646
      2          6           0       -4.953361   -0.788749    0.184070
      3          6           0       -5.375994   -2.254362    0.078457
      4          1           0       -3.573358   -0.834674   -1.471326
      5          1           0       -2.832313   -1.160541    0.092574
      6          1           0       -5.689818   -0.154006   -0.325193
      7          1           0       -4.948582   -0.480353    1.237391
      8          1           0       -4.663416   -2.899502    0.602508
      9          1           0       -5.408863   -2.571300   -0.968954
     10          1           0       -6.366509   -2.418937    0.513951
     11          6           0       -3.135326    0.933570   -0.318635
     12          6           0       -1.753778    1.195204   -0.919350
     13          6           0       -1.331145    2.660817   -0.813738
     14          1           0       -3.874826    1.566996   -0.827855
     15          1           0       -3.133781    1.241129    0.736046
     16          1           0       -1.758557    0.886809   -1.972671
     17          1           0       -1.017321    0.560461   -0.410088
     18          1           0       -1.298276    2.977755    0.233674
     19          1           0       -2.043723    3.305957   -1.337788
     20          1           0       -0.340630    2.825392   -1.249232
     21          6           0        4.170637   -1.668083   -1.010221
     22          6           0        3.341884   -2.202244   -0.018071
     23          6           0        2.478737   -1.375399    0.707086
     24          6           0        2.470064   -0.012857    0.412650
     25          6           0        3.283714    0.549291   -0.569823
     26          6           0        4.138963   -0.296439   -1.282450
     27          1           0        4.838084   -2.317731   -1.568674
     28          1           0        3.364367   -3.267106    0.195491
     29          1           0        1.826505   -1.762503    1.480495
     30          1           0        3.238999    1.614756   -0.760097
     31          1           0        4.781467    0.121168   -2.052410
     32          7           0        1.560469    0.872483    1.173710
     33          8           0        1.571658    2.069544    0.895219
     34          8           0        0.853563    0.352587    2.034308
 ---------------------------------------------------------------------

 SCF Done:  E(RHF) =  -669.535829104     A.U. after   15 cycles
 E2 =    -0.2092604565D+01 EUMP2 =    -0.67162843366878D+03

 The electronic state is 1-A.
 Alpha  occ. eigenvalues --  -20.60981 -20.60941 -15.85969 -11.31290 -11.27851
 Alpha  occ. eigenvalues --  -11.27848 -11.27584 -11.26854 -11.26845 -11.21059
 Alpha  occ. eigenvalues --  -11.20732 -11.20679 -11.20672 -11.20509 -11.19716
 Alpha  occ. eigenvalues --   -1.60019  -1.39574  -1.19455  -1.08864  -1.07671
 Alpha  occ. eigenvalues --   -1.04850  -1.02737  -0.95712  -0.95157  -0.86253
 Alpha  occ. eigenvalues --   -0.86172  -0.82542  -0.78835  -0.77599  -0.77488
 Alpha  occ. eigenvalues --   -0.72203  -0.71364  -0.70566  -0.65112  -0.64855
 Alpha  occ. eigenvalues --   -0.64281  -0.62199  -0.60106  -0.58575  -0.56783
 Alpha  occ. eigenvalues --   -0.55357  -0.54430  -0.53176  -0.52943  -0.51854
 Alpha  occ. eigenvalues --   -0.51601  -0.49204  -0.48962  -0.48852  -0.47153
 Alpha  occ. eigenvalues --   -0.45919  -0.45127  -0.44979  -0.44716  -0.42973
 Alpha  occ. eigenvalues --   -0.37430  -0.36448
 Alpha virt. eigenvalues --    0.04905   0.11198   0.16361   0.21295   0.23594
 Alpha virt. eigenvalues --    0.25005   0.27177   0.27264   0.27990   0.28282
 Alpha virt. eigenvalues --    0.28897   0.30852   0.31875   0.32122   0.32417

 Mulliken charges:
               1
     1  C   -0.297890
     2  C   -0.299395
     3  C   -0.475170
     4  H    0.145670
     5  H    0.149979
     6  H    0.150667
     7  H    0.153856
     8  H    0.153997
     9  H    0.153177
    10  H    0.158901
    11  C   -0.297773
    12  C   -0.300092
    13  C   -0.472128
    14  H    0.146451
    15  H    0.156547
    16  H    0.144190
    17  H    0.149026
    18  H    0.170584
    19  H    0.145067
    20  H    0.158945
    21  C   -0.170470
    22  C   -0.218447
    23  C   -0.171017
    24  C    0.157391
    25  C   -0.170723
    26  C   -0.218498
    27  H    0.226028
    28  H    0.223859
    29  H    0.275685
    30  H    0.275709
    31  H    0.223850
    32  N    0.488578
    33  O   -0.456292
    34  O   -0.460259
 Sum of Mulliken charges =  -0.00000

 Dipole moment (field-independent basis, Debye):
    X=              3.4261    Y=             -3.0350    Z=             -2.5074  Tot=              5.2189
 Quadrupole moment (field-independent basis, Debye-Ang):
   XX=            -79.5086   YY=            -92.7582   ZZ=            -95.5986
   XY=             -7.1277   XZ=             -6.5633   YZ=             -3.4837

 Normal termination of Gaussian 16 at Thu May  6 04:04:34 2021.
