 Gaussian 16, Revision A.03,
 Gaussian 16:  EM64L-G16RevA.03 25-Dec-2016

 -------------
 #p 6-31g* mp2
 -------------

 ------------------------------------------------------
 Input file generated by CHIRIPA (05-May-2021 14:53:16)
 ------------------------------------------------------
 Symbolic Z-matrix:
 Charge =  0 Multiplicity = 1

                         Standard orientation:
 ---------------------------------------------------------------------
 Center     Atomic      Atomic             Coordinates (Angstroms)
 Number     Number       Type             X           Y           Z
 ---------------------------------------------------------------------
      1          6           0       -4.419035   -0.382729   -0.513917
      2          6           0       -5.109052   -1.182937    0.591312
      3          6           0       -6.118011   -2.194532    0.046822
      4          1           0       -5.180176    0.140331   -1.108910
      5          1           0       -3.910993   -1.077245   -1.197244
      6          1           0       -5.614485   -0.487037    1.273130
      7          1           0       -4.346167   -1.704000    1.183861
      8          1           0       -5.624573   -2.911458   -0.617360
      9          1           0       -6.900097   -1.687580   -0.527584
     10          1           0       -6.599478   -2.755517    0.853882
     11          6           0       -3.407505    0.632712    0.014680
     12          6           0       -2.717488    1.432919   -1.090549
     13          6           0       -1.708529    2.444515   -0.546059
     14          1           0       -3.915547    1.327228    0.698006
     15          1           0       -2.646364    0.109652    0.609673
     16          1           0       -3.480374    1.953982   -1.683098
     17          1           0       -2.212055    0.737019   -1.772367
     18          1           0       -0.926443    1.937562    0.028347
     19          1           0       -2.201968    3.161440    0.118123
     20          1           0       -1.227063    3.005500   -1.353119
     21          6           0        1.527081    1.417449    1.509930
     22          6           0        1.851298    1.728752    0.185357
     23          6           0        2.698144    0.896508   -0.552729
     24          6           0        3.205173   -0.244123    0.067894
     25          6           0        2.900749   -0.581291    1.385822
     26          6           0        2.051916    0.265452    2.104886
     27          1           0        0.868458    2.069588    2.075906
     28          1           0        1.445173    2.622748   -0.279270
     29          1           0        2.965556    1.113675   -1.579738
     30          1           0        3.321069   -1.479421    1.821839
     31          1           0        1.801844    0.021193    3.133403
     32          7           0        4.102743   -1.132858   -0.703417
     33          8           0        4.536371   -2.131888   -0.133731
     34          8           0        4.355633   -0.813589   -1.863051
 ---------------------------------------------------------------------

 SCF Done:  E(RHF) =  -669.534468990     A.U. after   15 cycles
 E2 =    -0.2092477830D+01 EUMP2 =    -0.67162694681996D+03

 The electronic state is 1-A.
 Alpha  occ. eigenvalues --  -20.60789 -20.60783 -15.85841 -11.31221 -11.27776
 Alpha  occ. eigenvalues --  -11.27753 -11.27498 -11.26805 -11.26741 -11.22185
 Alpha  occ. eigenvalues --  -11.21937 -11.21898 -11.21861 -11.21746 -11.21325
 Alpha  occ. eigenvalues --   -1.59863  -1.39416  -1.19390  -1.08900  -1.08781
 Alpha  occ. eigenvalues --   -1.04792  -1.04018  -0.96503  -0.95614  -0.87544
 Alpha  occ. eigenvalues --   -0.86177  -0.82441  -0.80104  -0.78691  -0.77486
 Alpha  occ. eigenvalues --   -0.72060  -0.71186  -0.70494  -0.65541  -0.65038
 Alpha  occ. eigenvalues --   -0.64794  -0.62167  -0.61382  -0.59874  -0.58097
 Alpha  occ. eigenvalues --   -0.55817  -0.55282  -0.53319  -0.53188  -0.52848
 Alpha  occ. eigenvalues --   -0.52765  -0.50395  -0.48817  -0.48814  -0.48409
 Alpha  occ. eigenvalues --   -0.47103  -0.46241  -0.46140  -0.44819  -0.44272
 Alpha  occ. eigenvalues --   -0.37320  -0.36359
 Alpha virt. eigenvalues --    0.05008   0.11167   0.16464   0.20957   0.22531
 Alpha virt. eigenvalues --    0.24008   0.26241   0.26258   0.26916   0.27841
 Alpha virt. eigenvalues --    0.28934   0.29851   0.31099   0.31650   0.32240

 Mulliken charges:
               1
     1  C   -0.298904
     2  C   -0.299903
     3  C   -0.476033
     4  H    0.150565
     5  H    0.151778
     6  H    0.151396
     7  H    0.151733
     8  H    0.156575
     9  H    0.155680
    10  H    0.160909
    11  C   -0.299167
    12  C   -0.298192
    13  C   -0.486581
    14  H    0.148514
    15  H    0.149351
    16  H    0.153964
    17  H    0.155373
    18  H    0.158509
    19  H    0.154202
    20  H    0.156854
    21  C   -0.173300
    22  C   -0.217604
    23  C   -0.173316
    24  C    0.158675
    25  C   -0.171477
    26  C   -0.219078
    27  H    0.227443
    28  H    0.229579
    29  H    0.275718
    30  H    0.275625
    31  H    0.223677
    32  N    0.488037
    33  O   -0.460365
    34  O   -0.460236
 Sum of Mulliken charges =  -0.00000

 Dipole moment (field-independent basis, Debye):
    X=             -3.2214    Y=              3.0696    Z=              2.6964  Tot=              5.2030
 Quadrupole moment (field-independent basis, Debye-Ang):
   XX=           -115.5659   YY=            -95.1994   ZZ=            -91.5075
   XY=              9.7039   XZ=              8.8213   YZ=             -3.3277

 Normal termination of Gaussian 16 at Thu May  6 07:32:44 2021.
