 Gaussian 16, Revision A.03,
 Gaussian 16:  EM64L-G16RevA.03 25-Dec-2016

 -------------
 #p 6-31g* mp2
 -------------

 ------------------------------------------------------
 Input file generated by CHIRIPA (05-May-2021 14:55:19)
 ------------------------------------------------------
 Symbolic Z-matrix:
 Charge =  0 Multiplicity = 1

                         Standard orientation:
 ---------------------------------------------------------------------
 Center     Atomic      Atomic             Coordinates (Angstroms)
 Number     Number       Type             X           Y           Z
 ---------------------------------------------------------------------
      1          6           0        1.675800   -2.238917   -0.752769
      2          6           0        3.070212   -2.134887   -0.789027
      3          6           0        3.704060   -0.949949   -0.403403
      4          6           0        2.909118    0.116023    0.015002
      5          6           0        1.517798    0.043249    0.062146
      6          6           0        0.905402   -1.151435   -0.328047
      7          1           0        1.191744   -3.163191   -1.054105
      8          1           0        3.671045   -2.977821   -1.118432
      9          1           0        4.781773   -0.842170   -0.421750
     10          1           0        0.945536    0.900595    0.395149
     11          1           0       -0.177705   -1.229370   -0.298869
     12          7           0        3.568790    1.375622    0.425663
     13          8           0        2.845922    2.300334    0.790364
     14          8           0        4.796217    1.414334    0.375062
     15          6           0       -3.716369   -0.617866   -0.092881
     16          6           0       -3.195028   -1.575290    0.979279
     17          6           0       -3.466328   -3.042250    0.644290
     18          1           0       -4.796572   -0.772758   -0.219824
     19          1           0       -3.249530   -0.867453   -1.055774
     20          1           0       -3.661667   -1.323086    1.940143
     21          1           0       -2.115976   -1.417967    1.103821
     22          1           0       -2.986907   -3.316584   -0.300959
     23          1           0       -4.541380   -3.221164    0.540115
     24          1           0       -3.085394   -3.709189    1.423995
     25          6           0       -3.452646    0.852297    0.227743
     26          6           0       -3.973986    1.809719   -0.844418
     27          6           0       -3.702688    3.276680   -0.509428
     28          1           0       -3.919486    1.101883    1.190636
     29          1           0       -2.372442    1.007188    0.354686
     30          1           0       -5.053040    1.652397   -0.968958
     31          1           0       -3.507348    1.557517   -1.805281
     32          1           0       -2.627635    3.455595   -0.405253
     33          1           0       -4.182109    3.551014    0.435821
     34          1           0       -4.083621    3.943620   -1.289133
 ---------------------------------------------------------------------

 SCF Done:  E(RHF) =  -669.535463490     A.U. after   15 cycles
 E2 =    -0.2091607999D+01 EUMP2 =    -0.67162707148969D+03

 The electronic state is 1-A.
 Alpha  occ. eigenvalues --  -20.60764 -20.60759 -15.85818 -11.31188 -11.27762
 Alpha  occ. eigenvalues --  -11.27759 -11.27499 -11.26772 -11.26746 -11.22555
 Alpha  occ. eigenvalues --  -11.22226 -11.22118 -11.22059 -11.21978 -11.21356
 Alpha  occ. eigenvalues --   -1.59839  -1.39393  -1.19361  -1.09192  -1.08754
 Alpha  occ. eigenvalues --   -1.04768  -1.04216  -0.96650  -0.95589  -0.87664
 Alpha  occ. eigenvalues --   -0.86165  -0.82425  -0.80293  -0.78975  -0.77470
 Alpha  occ. eigenvalues --   -0.72036  -0.71162  -0.70470  -0.65933  -0.65013
 Alpha  occ. eigenvalues --   -0.64734  -0.62161  -0.61560  -0.60030  -0.58248
 Alpha  occ. eigenvalues --   -0.55947  -0.55265  -0.53327  -0.53098  -0.53062
 Alpha  occ. eigenvalues --   -0.52860  -0.50595  -0.48803  -0.48791  -0.48575
 Alpha  occ. eigenvalues --   -0.47347  -0.46502  -0.46436  -0.44797  -0.44480
 Alpha  occ. eigenvalues --   -0.37340  -0.36367
 Alpha virt. eigenvalues --    0.05065   0.11246   0.16518   0.18108   0.23077
 Alpha virt. eigenvalues --    0.23185   0.24775   0.26244   0.27252   0.28277
 Alpha virt. eigenvalues --    0.29550   0.30377   0.31108   0.31397   0.31973

 Mulliken charges:
               1
     1  C   -0.172054
     2  C   -0.218493
     3  C   -0.170852
     4  C    0.158963
     5  C   -0.173724
     6  C   -0.225798
     7  H    0.226084
     8  H    0.223456
     9  H    0.275650
    10  H    0.275829
    11  H    0.233646
    12  N    0.488101
    13  O   -0.460448
    14  O   -0.460455
    15  C   -0.300462
    16  C   -0.304578
    17  C   -0.475983
    18  H    0.154406
    19  H    0.146034
    20  H    0.158612
    21  H    0.145058
    22  H    0.149844
    23  H    0.160050
    24  H    0.162818
    25  C   -0.297570
    26  C   -0.300374
    27  C   -0.476547
    28  H    0.153879
    29  H    0.142511
    30  H    0.153557
    31  H    0.151821
    32  H    0.157778
    33  H    0.156709
    34  H    0.162532
 Sum of Mulliken charges =  -0.00000

 Dipole moment (field-independent basis, Debye):
    X=             -2.5222    Y=             -4.3882    Z=             -1.4160  Tot=              5.2557
 Quadrupole moment (field-independent basis, Debye-Ang):
   XX=           -102.5464   YY=            -96.3869   ZZ=            -95.1929
   XY=            -15.7038   XZ=             -5.9273   YZ=              0.0786

 Normal termination of Gaussian 16 at Wed May  5 23:42:21 2021.
