 Gaussian 16, Revision A.03,
 Gaussian 16:  EM64L-G16RevA.03 25-Dec-2016

 -------------
 #p 6-31g* mp2
 -------------

 ------------------------------------------------------
 Input file generated by CHIRIPA (05-May-2021 14:55:21)
 ------------------------------------------------------
 Symbolic Z-matrix:
 Charge =  0 Multiplicity = 1

                         Standard orientation:
 ---------------------------------------------------------------------
 Center     Atomic      Atomic             Coordinates (Angstroms)
 Number     Number       Type             X           Y           Z
 ---------------------------------------------------------------------
      1          6           0       -2.206909    2.253065    0.090074
      2          6           0       -3.343294    1.922963   -0.655704
      3          6           0       -3.816230    0.607650   -0.684542
      4          6           0       -3.125240   -0.356751    0.047411
      5          6           0       -1.990186   -0.059158    0.799994
      6          6           0       -1.535166    1.262697    0.814265
      7          1           0       -1.846480    3.277373    0.106818
      8          1           0       -3.866986    2.690030   -1.219084
      9          1           0       -4.693469    0.324480   -1.253474
     10          1           0       -1.489306   -0.845570    1.351442
     11          1           0       -0.652372    1.516164    1.394329
     12          7           0       -3.616433   -1.752676    0.024592
     13          8           0       -2.989802   -2.583943    0.678019
     14          8           0       -4.618759   -1.989104   -0.646288
     15          6           0        3.352778    0.598144    0.246768
     16          6           0        3.275261    1.999067   -0.361007
     17          6           0        2.182397    2.859347    0.274100
     18          1           0        2.379777    0.101153    0.131820
     19          1           0        3.534093    0.684244    1.327096
     20          1           0        3.095525    1.910327   -1.440097
     21          1           0        4.248617    2.492710   -0.244769
     22          1           0        2.360441    2.977508    1.347850
     23          1           0        1.200797    2.391816    0.145731
     24          1           0        2.144572    3.856585   -0.175283
     25          6           0        4.440593   -0.273831   -0.377769
     26          6           0        4.518110   -1.674754    0.230006
     27          6           0        5.610975   -2.535033   -0.405100
     28          1           0        4.259278   -0.359929   -1.458097
     29          1           0        5.413594    0.223161   -0.262821
     30          1           0        3.544754   -2.168397    0.113769
     31          1           0        4.697846   -1.586013    1.309097
     32          1           0        6.592574   -2.067503   -0.276731
     33          1           0        5.432931   -2.653195   -1.478850
     34          1           0        5.648799   -3.532271    0.044283
 ---------------------------------------------------------------------

 SCF Done:  E(RHF) =  -669.535561335     A.U. after   15 cycles
 E2 =    -0.2091452358D+01 EUMP2 =    -0.67162701369386D+03

 The electronic state is 1-A.
 Alpha  occ. eigenvalues --  -20.60774 -20.60769 -15.85827 -11.31198 -11.27770
 Alpha  occ. eigenvalues --  -11.27760 -11.27498 -11.26775 -11.26733 -11.22268
 Alpha  occ. eigenvalues --  -11.22013 -11.21949 -11.21853 -11.21740 -11.21233
 Alpha  occ. eigenvalues --   -1.59849  -1.39403  -1.19370  -1.08913  -1.08760
 Alpha  occ. eigenvalues --   -1.04773  -1.04025  -0.96503  -0.95594  -0.87532
 Alpha  occ. eigenvalues --   -0.86167  -0.82425  -0.80111  -0.78699  -0.77474
 Alpha  occ. eigenvalues --   -0.72045  -0.71173  -0.70467  -0.65552  -0.65019
 Alpha  occ. eigenvalues --   -0.64786  -0.62156  -0.61390  -0.59881  -0.58092
 Alpha  occ. eigenvalues --   -0.55804  -0.55258  -0.53209  -0.53150  -0.53024
 Alpha  occ. eigenvalues --   -0.52702  -0.50434  -0.48811  -0.48800  -0.48401
 Alpha  occ. eigenvalues --   -0.47119  -0.46246  -0.46139  -0.44807  -0.44270
 Alpha  occ. eigenvalues --   -0.37337  -0.36366
 Alpha virt. eigenvalues --    0.05053   0.11120   0.16527   0.20614   0.22603
 Alpha virt. eigenvalues --    0.23937   0.25888   0.26405   0.27017   0.28168
 Alpha virt. eigenvalues --    0.28933   0.30897   0.31085   0.31193   0.31712

 Mulliken charges:
               1
     1  C   -0.171582
     2  C   -0.218640
     3  C   -0.170841
     4  C    0.158451
     5  C   -0.172599
     6  C   -0.220962
     7  H    0.227136
     8  H    0.223538
     9  H    0.275666
    10  H    0.275900
    11  H    0.228383
    12  N    0.488079
    13  O   -0.460402
    14  O   -0.460406
    15  C   -0.299558
    16  C   -0.298344
    17  C   -0.484227
    18  H    0.148238
    19  H    0.148872
    20  H    0.154734
    21  H    0.154664
    22  H    0.154711
    23  H    0.152110
    24  H    0.161557
    25  C   -0.298634
    26  C   -0.300564
    27  C   -0.476079
    28  H    0.151219
    29  H    0.150437
    30  H    0.153968
    31  H    0.151750
    32  H    0.155024
    33  H    0.156197
    34  H    0.162204
 Sum of Mulliken charges =  -0.00000

 Dipole moment (field-independent basis, Debye):
    X=              1.8372    Y=              4.8791    Z=              0.0327  Tot=              5.2137
 Quadrupole moment (field-independent basis, Debye-Ang):
   XX=           -102.6735   YY=            -98.9095   ZZ=            -93.1161
   XY=            -16.6797   XZ=              3.0774   YZ=             -0.8623

 Normal termination of Gaussian 16 at Thu May  6 03:00:01 2021.
