 Gaussian 16, Revision A.03,
 Gaussian 16:  EM64L-G16RevA.03 25-Dec-2016

 -------------
 #p 6-31g* mp2
 -------------

 ------------------------------------------------------
 Input file generated by CHIRIPA (05-May-2021 14:53:12)
 ------------------------------------------------------
 Symbolic Z-matrix:
 Charge =  0 Multiplicity = 1

                         Standard orientation:
 ---------------------------------------------------------------------
 Center     Atomic      Atomic             Coordinates (Angstroms)
 Number     Number       Type             X           Y           Z
 ---------------------------------------------------------------------
      1          6           0        3.866556    0.061381   -0.431706
      2          6           0        2.665851   -0.830621   -0.114492
      3          6           0        1.341143   -0.227111   -0.582165
      4          1           0        3.721629    1.042324    0.041255
      5          1           0        3.906000    0.239580   -1.515258
      6          1           0        2.629485   -1.008218    0.967984
      7          1           0        2.813742   -1.809619   -0.588103
      8          1           0        1.352305   -0.065692   -1.664948
      9          1           0        1.167001    0.740262   -0.100020
     10          1           0        0.496181   -0.881193   -0.345358
     11          6           0        5.198087   -0.528408    0.029708
     12          6           0        6.398791    0.363595   -0.287506
     13          6           0        7.723500   -0.239915    0.180167
     14          1           0        5.158642   -0.706606    1.113260
     15          1           0        5.343013   -1.509351   -0.443252
     16          1           0        6.250900    1.342592    0.186106
     17          1           0        6.435157    0.541192   -1.369981
     18          1           0        7.897641   -1.207289   -0.301977
     19          1           0        7.712337   -0.401335    1.262951
     20          1           0        8.568461    0.414167   -0.056639
     21          6           0       -1.494380    1.388727    1.007104
     22          6           0       -2.092005    1.784851   -0.193916
     23          6           0       -3.226234    1.123702   -0.674493
     24          6           0       -3.738723    0.065812    0.074848
     25          6           0       -3.165946   -0.352373    1.274989
     26          6           0       -2.032309    0.323259    1.736438
     27          1           0       -0.613513    1.907950    1.372999
     28          1           0       -1.676412    2.611970   -0.762425
     29          1           0       -3.708884    1.409615   -1.601166
     30          1           0       -3.603096   -1.180458    1.819593
     31          1           0       -1.570280    0.013449    2.669493
     32          7           0       -4.939168   -0.641783   -0.423793
     33          8           0       -5.371366   -1.570771    0.255047
     34          8           0       -5.425147   -0.254010   -1.484025
 ---------------------------------------------------------------------

 SCF Done:  E(RHF) =  -669.534703346     A.U. after   15 cycles
 E2 =    -0.2091924650D+01 EUMP2 =    -0.67162662799540D+03

 The electronic state is 1-A.
 Alpha  occ. eigenvalues --  -20.60740 -20.60734 -15.85795 -11.31148 -11.27749
 Alpha  occ. eigenvalues --  -11.27736 -11.27485 -11.26737 -11.26723 -11.22132
 Alpha  occ. eigenvalues --  -11.21996 -11.21912 -11.21805 -11.21621 -11.21405
 Alpha  occ. eigenvalues --   -1.59816  -1.39370  -1.19340  -1.08912  -1.08733
 Alpha  occ. eigenvalues --   -1.04741  -1.03998  -0.96454  -0.95567  -0.87464
 Alpha  occ. eigenvalues --   -0.86140  -0.82403  -0.80063  -0.78720  -0.77443
 Alpha  occ. eigenvalues --   -0.72014  -0.71141  -0.70478  -0.65546  -0.64993
 Alpha  occ. eigenvalues --   -0.64744  -0.62090  -0.61411  -0.59811  -0.58054
 Alpha  occ. eigenvalues --   -0.55852  -0.55197  -0.53451  -0.52872  -0.52835
 Alpha  occ. eigenvalues --   -0.52728  -0.50382  -0.48772  -0.48768  -0.48379
 Alpha  occ. eigenvalues --   -0.47107  -0.46263  -0.46187  -0.44779  -0.44243
 Alpha  occ. eigenvalues --   -0.37226  -0.36348
 Alpha virt. eigenvalues --    0.05086   0.11259   0.16528   0.20662   0.22543
 Alpha virt. eigenvalues --    0.23960   0.25961   0.26622   0.27253   0.27407
 Alpha virt. eigenvalues --    0.28588   0.30460   0.31182   0.31531   0.32236

 Mulliken charges:
               1
     1  C   -0.297917
     2  C   -0.300602
     3  C   -0.473877
     4  H    0.145921
     5  H    0.150847
     6  H    0.149013
     7  H    0.155068
     8  H    0.156462
     9  H    0.143153
    10  H    0.166471
    11  C   -0.298368
    12  C   -0.299799
    13  C   -0.475905
    14  H    0.149017
    15  H    0.151339
    16  H    0.151007
    17  H    0.152661
    18  H    0.156164
    19  H    0.155186
    20  H    0.161111
    21  C   -0.164036
    22  C   -0.217848
    23  C   -0.170728
    24  C    0.157975
    25  C   -0.171420
    26  C   -0.220307
    27  H    0.224790
    28  H    0.223479
    29  H    0.275581
    30  H    0.275527
    31  H    0.223184
    32  N    0.488149
    33  O   -0.460719
    34  O   -0.460581
 Sum of Mulliken charges =  -0.00000

 Dipole moment (field-independent basis, Debye):
    X=              4.2867    Y=              2.4587    Z=              1.7225  Tot=              5.2334
 Quadrupole moment (field-independent basis, Debye-Ang):
   XX=           -128.1511   YY=            -92.9710   ZZ=            -90.8384
   XY=             -9.0817   XZ=             -6.6406   YZ=             -1.9370

 Normal termination of Gaussian 16 at Thu May  6 15:17:47 2021.
