 Gaussian 16, Revision A.03,
 Gaussian 16:  EM64L-G16RevA.03 25-Dec-2016

 -------------
 #p 6-31g* mp2
 -------------

 ------------------------------------------------------
 Input file generated by CHIRIPA (05-May-2021 14:51:09)
 ------------------------------------------------------
 Symbolic Z-matrix:
 Charge =  0 Multiplicity = 1

                         Standard orientation:
 ---------------------------------------------------------------------
 Center     Atomic      Atomic             Coordinates (Angstroms)
 Number     Number       Type             X           Y           Z
 ---------------------------------------------------------------------
      1          6           0        3.177792    0.700908    0.195959
      2          6           0        2.888217    2.075518   -0.407844
      3          6           0        1.637153    2.728168    0.180951
      4          1           0        2.310392    0.046363    0.034305
      5          1           0        3.293837    0.803075    1.283843
      6          1           0        2.774124    1.971004   -1.494433
      7          1           0        3.756483    2.726809   -0.244902
      8          1           0        1.744774    2.861447    1.262273
      9          1           0        0.756833    2.101347    0.005642
     10          1           0        1.448841    3.709855   -0.264795
     11          6           0        4.425425    0.035739   -0.382565
     12          6           0        4.715000   -1.338871    0.221238
     13          6           0        5.966064   -1.991521   -0.367557
     14          1           0        4.309380   -0.066427   -1.470449
     15          1           0        5.292825    0.690285   -0.220911
     16          1           0        3.846734   -1.990162    0.058296
     17          1           0        4.829093   -1.234356    1.307827
     18          1           0        6.846384   -1.364699   -0.192248
     19          1           0        5.858443   -2.124799   -1.448879
     20          1           0        6.154376   -2.973207    0.078189
     21          6           0       -4.515533   -0.222224    0.322208
     22          6           0       -5.553283   -0.381434   -0.789418
     23          6           0       -6.976755   -0.085762   -0.316026
     24          1           0       -4.773238   -0.891669    1.154300
     25          1           0       -4.566180    0.801722    0.717638
     26          1           0       -5.499746   -1.404367   -1.183574
     27          1           0       -5.292972    0.288328   -1.619040
     28          1           0       -7.052855    0.940116    0.058655
     29          1           0       -7.260804   -0.762196    0.496595
     30          1           0       -7.702416   -0.205627   -1.126525
     31          6           0       -3.087684   -0.514423   -0.135602
     32          6           0       -2.049933   -0.355213    0.976024
     33          6           0       -0.626462   -0.650886    0.502632
     34          1           0       -3.037036   -1.538369   -0.531031
     35          1           0       -2.829979    0.155022   -0.967694
     36          1           0       -2.310245   -1.024975    1.805646
     37          1           0       -2.103471    0.667719    1.370180
     38          1           0       -0.342413    0.025549   -0.309988
     39          1           0       -0.550362   -1.676763    0.127950
     40          1           0        0.099199   -0.531021    1.313131
 ---------------------------------------------------------------------

 SCF Done:  E(RHF) =  -470.732464591     A.U. after   11 cycles
 E2 =    -0.1583415453D+01 EUMP2 =    -0.47231588004402D+03

 The electronic state is 1-A.
 Alpha  occ. eigenvalues --  -11.21632 -11.21614 -11.21547 -11.21536 -11.21428
 Alpha  occ. eigenvalues --  -11.21367 -11.21314 -11.21227 -11.21108 -11.21080
 Alpha  occ. eigenvalues --  -11.21030 -11.20984  -1.08459  -1.08353  -1.03576
 Alpha  occ. eigenvalues --   -1.03456  -0.96021  -0.95913  -0.87044  -0.86935
 Alpha  occ. eigenvalues --   -0.79688  -0.79489  -0.78285  -0.78139  -0.65133
 Alpha  occ. eigenvalues --   -0.64960  -0.61120  -0.60747  -0.59428  -0.59235
 Alpha  occ. eigenvalues --   -0.57626  -0.57528  -0.55438  -0.55091  -0.52763
 Alpha  occ. eigenvalues --   -0.52600  -0.52449  -0.52320  -0.50085  -0.49773
 Alpha  occ. eigenvalues --   -0.47964  -0.47819  -0.46778  -0.46446  -0.45878
 Alpha  occ. eigenvalues --   -0.45743  -0.45683  -0.45482  -0.43755  -0.43704
 Alpha virt. eigenvalues --    0.21524   0.22988   0.23633   0.25015   0.26148
 Alpha virt. eigenvalues --    0.26483   0.27004   0.27536   0.27842   0.29406
 Alpha virt. eigenvalues --    0.29989   0.31398   0.31624   0.31816   0.32078

 Mulliken charges:
               1
     1  C   -0.306367
     2  C   -0.298992
     3  C   -0.481133
     4  H    0.160926
     5  H    0.148101
     6  H    0.151023
     7  H    0.151548
     8  H    0.154609
     9  H    0.161310
    10  H    0.159368
    11  C   -0.297724
    12  C   -0.299664
    13  C   -0.475624
    14  H    0.149132
    15  H    0.149167
    16  H    0.152140
    17  H    0.151595
    18  H    0.155061
    19  H    0.155082
    20  H    0.160011
    21  C   -0.298351
    22  C   -0.299656
    23  C   -0.475727
    24  H    0.149716
    25  H    0.149770
    26  H    0.151890
    27  H    0.151974
    28  H    0.155275
    29  H    0.155197
    30  H    0.160287
    31  C   -0.298512
    32  C   -0.301510
    33  C   -0.479816
    34  H    0.149486
    35  H    0.149560
    36  H    0.152325
    37  H    0.153111
    38  H    0.156423
    39  H    0.155099
    40  H    0.163894
 Sum of Mulliken charges =  -0.00000

 Dipole moment (field-independent basis, Debye):
    X=             -0.0515    Y=             -0.0304    Z=              0.0133  Tot=              0.0613
 Quadrupole moment (field-independent basis, Debye-Ang):
   XX=            -86.6192   YY=            -84.1432   ZZ=            -84.3403
   XY=              1.0159   XZ=              0.8696   YZ=             -0.1674

 Normal termination of Gaussian 16 at Thu May  6 03:42:27 2021.
