 Gaussian 16, Revision A.03,
 Gaussian 16:  EM64L-G16RevA.03 25-Dec-2016

 -------------
 #p 6-31g* mp2
 -------------

 ------------------------------------------------------
 Input file generated by CHIRIPA (05-May-2021 14:51:12)
 ------------------------------------------------------
 Symbolic Z-matrix:
 Charge =  0 Multiplicity = 1

                         Standard orientation:
 ---------------------------------------------------------------------
 Center     Atomic      Atomic             Coordinates (Angstroms)
 Number     Number       Type             X           Y           Z
 ---------------------------------------------------------------------
      1          6           0        3.301075   -0.229250    0.791126
      2          6           0        1.842259   -0.249087    0.333472
      3          6           0        0.856481   -0.119582    1.495050
      4          1           0        3.465497   -1.046803    1.506330
      5          1           0        3.494745    0.705610    1.335115
      6          1           0        1.651767   -1.183013   -0.210690
      7          1           0        1.681338    0.568491   -0.380872
      8          1           0        1.017847    0.819392    2.034393
      9          1           0        0.988108   -0.942063    2.205542
     10          1           0       -0.180475   -0.136055    1.145318
     11          6           0        4.298542   -0.357818   -0.358769
     12          6           0        5.757358   -0.337980    0.098886
     13          6           0        6.743136   -0.467486   -1.062692
     14          1           0        4.104872   -1.292677   -0.902758
     15          1           0        4.134119    0.459736   -1.073972
     16          1           0        5.918279   -1.155558    0.813229
     17          1           0        5.947850    0.595945    0.643048
     18          1           0        6.611509    0.354996   -1.773184
     19          1           0        6.581770   -1.406459   -1.602036
     20          1           0        7.780092   -0.451012   -0.712961
     21          6           0       -4.208901   -0.265885   -0.537311
     22          6           0       -5.423652   -0.682041    0.292858
     23          6           0       -6.232037   -1.802117   -0.362687
     24          1           0       -4.545673    0.056852   -1.531981
     25          1           0       -3.563680   -1.141300   -0.694580
     26          1           0       -6.065692    0.194204    0.449687
     27          1           0       -5.083967   -1.003644    1.285733
     28          1           0       -5.611489   -2.692851   -0.504511
     29          1           0       -6.598793   -1.488197   -1.345310
     30          1           0       -7.095713   -2.084000    0.247612
     31          6           0       -3.390716    0.852952    0.104954
     32          6           0       -2.175965    1.269109   -0.725216
     33          6           0       -1.367580    2.389184   -0.069670
     34          1           0       -4.035937    1.728367    0.262222
     35          1           0       -3.053943    0.530214    1.099624
     36          1           0       -2.515650    1.590711   -1.718091
     37          1           0       -1.533925    0.392864   -0.882044
     38          1           0       -1.000824    2.075264    0.912952
     39          1           0       -1.988128    3.279918    0.072154
     40          1           0       -0.503904    2.671067   -0.679969
 ---------------------------------------------------------------------

 SCF Done:  E(RHF) =  -470.732081026     A.U. after   11 cycles
 E2 =    -0.1583916772D+01 EUMP2 =    -0.47231599779746D+03

 The electronic state is 1-A.
 Alpha  occ. eigenvalues --  -11.21620 -11.21608 -11.21597 -11.21581 -11.21417
 Alpha  occ. eigenvalues --  -11.21407 -11.21357 -11.21347 -11.21076 -11.21067
 Alpha  occ. eigenvalues --  -11.21058 -11.20952  -1.08466  -1.08406  -1.03621
 Alpha  occ. eigenvalues --   -1.03446  -0.96090  -0.95872  -0.87071  -0.86928
 Alpha  occ. eigenvalues --   -0.79641  -0.79551  -0.78271  -0.78222  -0.65169
 Alpha  occ. eigenvalues --   -0.65026  -0.61258  -0.60830  -0.59331  -0.59243
 Alpha  occ. eigenvalues --   -0.57625  -0.57528  -0.55526  -0.54995  -0.52692
 Alpha  occ. eigenvalues --   -0.52643  -0.52408  -0.52341  -0.50118  -0.49698
 Alpha  occ. eigenvalues --   -0.47972  -0.47833  -0.46723  -0.46511  -0.45800
 Alpha  occ. eigenvalues --   -0.45772  -0.45731  -0.45682  -0.43815  -0.43728
 Alpha virt. eigenvalues --    0.20656   0.22982   0.23602   0.25514   0.26018
 Alpha virt. eigenvalues --    0.26456   0.26682   0.27589   0.27783   0.29215
 Alpha virt. eigenvalues --    0.30637   0.30743   0.31177   0.32125   0.32620

 Mulliken charges:
               1
     1  C   -0.298607
     2  C   -0.301095
     3  C   -0.481483
     4  H    0.149714
     5  H    0.149871
     6  H    0.151432
     7  H    0.154336
     8  H    0.155576
     9  H    0.154765
    10  H    0.166590
    11  C   -0.298307
    12  C   -0.299675
    13  C   -0.475716
    14  H    0.149501
    15  H    0.149665
    16  H    0.151941
    17  H    0.151999
    18  H    0.155209
    19  H    0.155176
    20  H    0.160285
    21  C   -0.298067
    22  C   -0.299694
    23  C   -0.475711
    24  H    0.149758
    25  H    0.149312
    26  H    0.151958
    27  H    0.152073
    28  H    0.155175
    29  H    0.155165
    30  H    0.160268
    31  C   -0.300270
    32  C   -0.304121
    33  C   -0.479344
    34  H    0.150047
    35  H    0.150376
    36  H    0.152996
    37  H    0.153596
    38  H    0.161675
    39  H    0.154440
    40  H    0.159192
 Sum of Mulliken charges =  -0.00000

 Dipole moment (field-independent basis, Debye):
    X=              0.0107    Y=              0.0017    Z=              0.0117  Tot=              0.0160
 Quadrupole moment (field-independent basis, Debye-Ang):
   XX=            -85.6454   YY=            -83.9783   ZZ=            -85.2245
   XY=             -0.8220   XZ=              0.6226   YZ=             -0.7378

 Normal termination of Gaussian 16 at Wed May  5 15:16:24 2021.
