 Gaussian 16, Revision A.03,
 Gaussian 16:  EM64L-G16RevA.03 25-Dec-2016

 -------------
 #p 6-31g* mp2
 -------------

 ------------------------------------------------------
 Input file generated by CHIRIPA (05-May-2021 14:57:22)
 ------------------------------------------------------
 Symbolic Z-matrix:
 Charge =  0 Multiplicity = 1

                         Standard orientation:
 ---------------------------------------------------------------------
 Center     Atomic      Atomic             Coordinates (Angstroms)
 Number     Number       Type             X           Y           Z
 ---------------------------------------------------------------------
      1          6           0       -4.039006   -2.407946    0.344813
      2          6           0       -2.817390   -1.877324    0.772146
      3          6           0       -2.547048   -0.513109    0.629386
      4          6           0       -3.525341    0.295190    0.052423
      5          6           0       -4.752020   -0.203630   -0.383153
      6          6           0       -5.000727   -1.570882   -0.230458
      7          1           0       -4.240611   -3.468881    0.459571
      8          1           0       -2.068645   -2.525023    1.219261
      9          1           0       -1.609742   -0.075977    0.951553
     10          1           0       -5.478810    0.467065   -0.825151
     11          1           0       -5.950334   -1.980209   -0.563238
     12          7           0       -3.250594    1.741030   -0.103970
     13          8           0       -4.129015    2.432005   -0.615407
     14          8           0       -2.162028    2.155929    0.287848
     15          6           0        6.088682   -0.093606    0.076575
     16          6           0        5.401157   -1.208762   -0.413588
     17          6           0        4.006048   -1.199573   -0.503777
     18          6           0        3.327186   -0.053349   -0.093161
     19          6           0        3.983662    1.073409    0.399532
     20          6           0        5.378991    1.041918    0.480858
     21          1           0        7.172521   -0.109406    0.143193
     22          1           0        5.949702   -2.092000   -0.728283
     23          1           0        3.448624   -2.049036   -0.879423
     24          1           0        3.409342    1.939369    0.705615
     25          1           0        5.910293    1.909415    0.861926
     26          7           0        1.850130   -0.031816   -0.183948
     27          8           0        1.275271    0.990247    0.184238
     28          8           0        1.295241   -1.037410   -0.621576
 ---------------------------------------------------------------------

 SCF Done:  E(RHF) =  -868.338647239     A.U. after   16 cycles
 E2 =    -0.2599740282D+01 EUMP2 =    -0.87093838752061D+03

 The electronic state is 1-A.
 Alpha  occ. eigenvalues --  -20.61054 -20.60951 -20.59409 -20.59323 -15.86003
 Alpha  occ. eigenvalues --  -15.84417 -11.31299 -11.29793 -11.27885 -11.27822
 Alpha  occ. eigenvalues --  -11.27595 -11.26873 -11.26832 -11.26500 -11.26260
 Alpha  occ. eigenvalues --  -11.26221 -11.25538 -11.25377  -1.60066  -1.58453
 Alpha  occ. eigenvalues --   -1.39611  -1.37994  -1.19466  -1.18008  -1.08879
 Alpha  occ. eigenvalues --   -1.07428  -1.04854  -1.03403  -0.95720  -0.94240
 Alpha  occ. eigenvalues --   -0.86256  -0.84815  -0.82545  -0.81060  -0.77609
 Alpha  occ. eigenvalues --   -0.76074  -0.72195  -0.71380  -0.70636  -0.70572
 Alpha  occ. eigenvalues --   -0.69779  -0.69142  -0.65115  -0.64857  -0.63666
 Alpha  occ. eigenvalues --   -0.63433  -0.62197  -0.60729  -0.55364  -0.53982
 Alpha  occ. eigenvalues --   -0.53192  -0.52943  -0.51759  -0.51512  -0.49007
 Alpha  occ. eigenvalues --   -0.48950  -0.47433  -0.47357  -0.45028  -0.43394
 Alpha  occ. eigenvalues --   -0.37448  -0.36454  -0.36051  -0.34995
 Alpha virt. eigenvalues --    0.04899   0.06440   0.11201   0.12643   0.16404
 Alpha virt. eigenvalues --    0.17888   0.21347   0.22684   0.27270   0.28220
 Alpha virt. eigenvalues --    0.28609   0.29639   0.30924   0.32140   0.32504

 Mulliken charges:
               1
     1  C   -0.171656
     2  C   -0.218540
     3  C   -0.166167
     4  C    0.154097
     5  C   -0.172143
     6  C   -0.220094
     7  H    0.220082
     8  H    0.222289
     9  H    0.291716
    10  H    0.271346
    11  H    0.217820
    12  N    0.486612
    13  O   -0.469392
    14  O   -0.450326
    15  C   -0.170461
    16  C   -0.218684
    17  C   -0.171330
    18  C    0.158035
    19  C   -0.170663
    20  C   -0.218723
    21  H    0.226084
    22  H    0.223180
    23  H    0.273957
    24  H    0.279613
    25  H    0.224884
    26  N    0.486653
    27  O   -0.449883
    28  O   -0.468306
 Sum of Mulliken charges =  -0.00000

 Dipole moment (field-independent basis, Debye):
    X=              4.7757    Y=             -4.9601    Z=              0.9508  Tot=              6.9508
 Quadrupole moment (field-independent basis, Debye-Ang):
   XX=            -61.9746   YY=           -104.5369   ZZ=           -104.8575
   XY=             16.6997   XZ=              0.6498   YZ=              1.7123

 Normal termination of Gaussian 16 at Thu May  6 14:33:53 2021.
