 Gaussian 16, Revision A.03,
 Gaussian 16:  EM64L-G16RevA.03 25-Dec-2016

 -------------
 #p 6-31g* mp2
 -------------

 ------------------------------------------------------
 Input file generated by CHIRIPA (05-May-2021 14:53:15)
 ------------------------------------------------------
 Symbolic Z-matrix:
 Charge =  0 Multiplicity = 1

                         Standard orientation:
 ---------------------------------------------------------------------
 Center     Atomic      Atomic             Coordinates (Angstroms)
 Number     Number       Type             X           Y           Z
 ---------------------------------------------------------------------
      1          6           0        3.007713    0.537517   -0.238188
      2          6           0        2.777252    1.780337   -1.098578
      3          6           0        1.380653    2.375218   -0.915762
      4          1           0        2.250224   -0.218362   -0.486785
      5          1           0        2.854485    0.797911    0.818274
      6          1           0        2.932223    1.518004   -2.152989
      7          1           0        3.535496    2.533273   -0.848040
      8          1           0        1.218708    2.664516    0.127637
      9          1           0        0.612008    1.643478   -1.184726
     10          1           0        1.237441    3.262706   -1.540034
     11          6           0        4.399396   -0.068657   -0.409945
     12          6           0        4.629857   -1.311477    0.450446
     13          6           0        6.026456   -1.906359    0.267630
     14          1           0        4.552624   -0.329052   -1.466406
     15          1           0        5.156885    0.687222   -0.161348
     16          1           0        3.871613   -2.064413    0.199908
     17          1           0        4.474886   -1.049145    1.504856
     18          1           0        6.795101   -1.174619    0.536594
     19          1           0        6.188401   -2.195656   -0.775769
     20          1           0        6.169668   -2.793847    0.891902
     21          6           0       -1.018659    1.014171    1.443844
     22          6           0       -2.211199    1.688054    1.160555
     23          6           0       -3.256629    1.034606    0.501289
     24          6           0       -3.074645   -0.298901    0.138068
     25          6           0       -1.898477   -0.997464    0.406262
     26          6           0       -0.866373   -0.324078    1.066459
     27          1           0       -0.211721    1.529530    1.956341
     28          1           0       -2.332265    2.727372    1.452456
     29          1           0       -4.190431    1.532341    0.269575
     30          1           0       -1.807280   -2.033335    0.102829
     31          1           0        0.058660   -0.849935    1.285166
     32          7           0       -4.174341   -1.001231   -0.560361
     33          8           0       -3.989118   -2.176197   -0.869848
     34          8           0       -5.200682   -0.363451   -0.785077
 ---------------------------------------------------------------------

 SCF Done:  E(RHF) =  -669.534781478     A.U. after   15 cycles
 E2 =    -0.2092777703D+01 EUMP2 =    -0.67162755918137D+03

 The electronic state is 1-A.
 Alpha  occ. eigenvalues --  -20.60730 -20.60725 -15.85785 -11.31130 -11.27724
 Alpha  occ. eigenvalues --  -11.27721 -11.27440 -11.26701 -11.26680 -11.22311
 Alpha  occ. eigenvalues --  -11.22283 -11.22250 -11.22058 -11.21721 -11.21598
 Alpha  occ. eigenvalues --   -1.59807  -1.39361  -1.19318  -1.09170  -1.08707
 Alpha  occ. eigenvalues --   -1.04718  -1.04199  -0.96656  -0.95545  -0.87668
 Alpha  occ. eigenvalues --   -0.86111  -0.82380  -0.80275  -0.79016  -0.77423
 Alpha  occ. eigenvalues --   -0.72003  -0.71132  -0.70441  -0.65792  -0.64965
 Alpha  occ. eigenvalues --   -0.64712  -0.62067  -0.61592  -0.60022  -0.58297
 Alpha  occ. eigenvalues --   -0.55967  -0.55212  -0.53383  -0.53311  -0.52849
 Alpha  occ. eigenvalues --   -0.52713  -0.50584  -0.48761  -0.48759  -0.48564
 Alpha  occ. eigenvalues --   -0.47300  -0.46530  -0.46462  -0.44772  -0.44475
 Alpha  occ. eigenvalues --   -0.37202  -0.36324
 Alpha virt. eigenvalues --    0.05102   0.11230   0.16526   0.19866   0.22607
 Alpha virt. eigenvalues --    0.23727   0.24905   0.25692   0.26899   0.28394
 Alpha virt. eigenvalues --    0.28853   0.30497   0.31074   0.31452   0.31995

 Mulliken charges:
               1
     1  C   -0.300212
     2  C   -0.300059
     3  C   -0.476871
     4  H    0.149102
     5  H    0.141278
     6  H    0.155883
     7  H    0.153048
     8  H    0.143338
     9  H    0.164233
    10  H    0.162552
    11  C   -0.298274
    12  C   -0.300267
    13  C   -0.476001
    14  H    0.152899
    15  H    0.151569
    16  H    0.150400
    17  H    0.149841
    18  H    0.156362
    19  H    0.157211
    20  H    0.161708
    21  C   -0.164667
    22  C   -0.219565
    23  C   -0.170677
    24  C    0.157933
    25  C   -0.172233
    26  C   -0.221025
    27  H    0.225693
    28  H    0.223292
    29  H    0.275503
    30  H    0.275259
    31  H    0.226068
    32  N    0.488163
    33  O   -0.460835
    34  O   -0.460649
 Sum of Mulliken charges =  -0.00000

 Dipole moment (field-independent basis, Debye):
    X=              3.9975    Y=              2.4860    Z=              2.3677  Tot=              5.2694
 Quadrupole moment (field-independent basis, Debye-Ang):
   XX=           -117.9289   YY=            -92.9879   ZZ=            -94.2027
   XY=            -10.9542   XZ=             -7.1932   YZ=              0.1662

 Normal termination of Gaussian 16 at Thu May  6 13:48:19 2021.
