 Gaussian 16, Revision A.03,
 Gaussian 16:  EM64L-G16RevA.03 25-Dec-2016

 -------------
 #p 6-31g* mp2
 -------------

 ------------------------------------------------------
 Input file generated by CHIRIPA (05-May-2021 14:55:20)
 ------------------------------------------------------
 Symbolic Z-matrix:
 Charge =  0 Multiplicity = 1

                         Standard orientation:
 ---------------------------------------------------------------------
 Center     Atomic      Atomic             Coordinates (Angstroms)
 Number     Number       Type             X           Y           Z
 ---------------------------------------------------------------------
      1          6           0        6.241598    0.895944   -0.323016
      2          6           0        5.232544    1.723156    0.181018
      3          6           0        3.930489    1.239177    0.339024
      4          6           0        3.671537   -0.083055   -0.018657
      5          6           0        4.655354   -0.931886   -0.523513
      6          6           0        5.950297   -0.426605   -0.673056
      7          1           0        7.250303    1.280185   -0.442471
      8          1           0        5.455879    2.750685    0.453690
      9          1           0        3.130316    1.857818    0.726871
     10          1           0        4.402238   -1.951750   -0.786624
     11          1           0        6.731951   -1.071309   -1.064743
     12          7           0        2.296875   -0.606697    0.144137
     13          8           0        2.094474   -1.775324   -0.178326
     14          8           0        1.447844    0.161414    0.591116
     15          6           0       -4.259781    0.201378    0.150974
     16          6           0       -3.354782   -0.953159    0.582259
     17          6           0       -1.897858   -0.526259    0.763704
     18          1           0       -3.880456    0.624744   -0.789142
     19          1           0       -4.202198    1.002885    0.900418
     20          1           0       -3.415122   -1.752825   -0.167081
     21          1           0       -3.736415   -1.373949    1.521358
     22          1           0       -1.817534    0.255329    1.526114
     23          1           0       -1.494415   -0.125699   -0.171918
     24          1           0       -1.268603   -1.366969    1.072095
     25          6           0       -5.719349   -0.209692   -0.034527
     26          6           0       -6.624349    0.944844   -0.465811
     27          6           0       -8.081273    0.517945   -0.647256
     28          1           0       -5.776932   -1.011199   -0.783971
     29          1           0       -6.098674   -0.633058    0.905590
     30          1           0       -6.242714    1.365635   -1.404910
     31          1           0       -6.564009    1.744511    0.283529
     32          1           0       -8.484716    0.117385    0.288365
     33          1           0       -8.161596   -0.263643   -1.409666
     34          1           0       -8.710528    1.358654   -0.955648
 ---------------------------------------------------------------------

 SCF Done:  E(RHF) =  -669.535783963     A.U. after   15 cycles
 E2 =    -0.2091110669D+01 EUMP2 =    -0.67162689463145D+03

 The electronic state is 1-A.
 Alpha  occ. eigenvalues --  -20.60905 -20.60887 -15.85923 -11.31273 -11.27838
 Alpha  occ. eigenvalues --  -11.27834 -11.27579 -11.26849 -11.26840 -11.20934
 Alpha  occ. eigenvalues --  -11.20540 -11.20524 -11.20301 -11.20135 -11.18996
 Alpha  occ. eigenvalues --   -1.59954  -1.39509  -1.19442  -1.08842  -1.07430
 Alpha  occ. eigenvalues --   -1.04841  -1.02400  -0.95682  -0.94800  -0.86242
 Alpha  occ. eigenvalues --   -0.85803  -0.82509  -0.78504  -0.77562  -0.77183
 Alpha  occ. eigenvalues --   -0.72127  -0.71273  -0.70550  -0.65095  -0.64844
 Alpha  occ. eigenvalues --   -0.64079  -0.62188  -0.59813  -0.58280  -0.56403
 Alpha  occ. eigenvalues --   -0.55346  -0.54112  -0.53172  -0.52934  -0.51484
 Alpha  occ. eigenvalues --   -0.51237  -0.48946  -0.48897  -0.48660  -0.46781
 Alpha  occ. eigenvalues --   -0.45590  -0.44928  -0.44695  -0.44617  -0.42606
 Alpha  occ. eigenvalues --   -0.37423  -0.36444
 Alpha virt. eigenvalues --    0.04964   0.11211   0.16459   0.21349   0.23765
 Alpha virt. eigenvalues --    0.25470   0.27261   0.27583   0.28218   0.28413
 Alpha virt. eigenvalues --    0.29240   0.30917   0.32445   0.32501   0.32667

 Mulliken charges:
               1
     1  C   -0.170671
     2  C   -0.218548
     3  C   -0.170943
     4  C    0.158057
     5  C   -0.170764
     6  C   -0.218579
     7  H    0.225885
     8  H    0.223749
     9  H    0.275893
    10  H    0.275772
    11  H    0.223712
    12  N    0.488636
    13  O   -0.460070
    14  O   -0.457401
    15  C   -0.296704
    16  C   -0.303328
    17  C   -0.463708
    18  H    0.147877
    19  H    0.146949
    20  H    0.148614
    21  H    0.146017
    22  H    0.148573
    23  H    0.158158
    24  H    0.169514
    25  C   -0.297073
    26  C   -0.298742
    27  C   -0.475099
    28  H    0.148239
    29  H    0.147966
    30  H    0.150763
    31  H    0.150583
    32  H    0.154297
    33  H    0.154413
    34  H    0.157963
 Sum of Mulliken charges =  -0.00000

 Dipole moment (field-independent basis, Debye):
    X=              5.2688    Y=              1.8310    Z=             -0.5688  Tot=              5.6068
 Quadrupole moment (field-independent basis, Debye-Ang):
   XX=            -62.2575   YY=            -91.3219   ZZ=            -94.0762
   XY=              4.8325   XZ=             -3.2253   YZ=              2.0717

 Normal termination of Gaussian 16 at Thu May  6 17:28:19 2021.
