 Gaussian 16, Revision A.03,
 Gaussian 16:  EM64L-G16RevA.03 25-Dec-2016

 -------------
 #p 6-31g* mp2
 -------------

 ------------------------------------------------------
 Input file generated by CHIRIPA (05-May-2021 14:55:19)
 ------------------------------------------------------
 Symbolic Z-matrix:
 Charge =  0 Multiplicity = 1

                         Standard orientation:
 ---------------------------------------------------------------------
 Center     Atomic      Atomic             Coordinates (Angstroms)
 Number     Number       Type             X           Y           Z
 ---------------------------------------------------------------------
      1          6           0        1.685494    2.397524    0.380762
      2          6           0        1.102343    1.206822   -0.064977
      3          6           0        1.893222    0.085236   -0.331635
      4          6           0        3.270145    0.190020   -0.140867
      5          6           0        3.880801    1.362256    0.302137
      6          6           0        3.070420    2.471311    0.562576
      7          1           0        1.063546    3.263932    0.585492
      8          1           0        0.027061    1.146626   -0.207066
      9          1           0        1.467926   -0.848999   -0.677678
     10          1           0        4.955534    1.391789    0.434402
     11          1           0        3.526045    3.394723    0.908641
     12          7           0        4.117736   -0.990719   -0.419874
     13          8           0        5.328411   -0.872678   -0.243891
     14          8           0        3.555353   -2.011867   -0.809259
     15          6           0       -4.317233    0.203191    0.062736
     16          6           0       -5.730783    0.189358   -0.520075
     17          6           0       -6.338068    1.588153   -0.631295
     18          1           0       -4.341201    0.674034    1.055045
     19          1           0       -3.674623    0.833906   -0.567063
     20          1           0       -6.370204   -0.442258    0.109860
     21          1           0       -5.703477   -0.281679   -1.511032
     22          1           0       -5.723915    2.224571   -1.276578
     23          1           0       -6.394429    2.063080    0.353523
     24          1           0       -7.348624    1.554939   -1.050261
     25          6           0       -3.696725   -1.187819    0.180166
     26          6           0       -2.283174   -1.173985    0.762977
     27          6           0       -1.675889   -2.572780    0.874198
     28          1           0       -4.339335   -1.818533    0.809965
     29          1           0       -3.672756   -1.658661   -0.812143
     30          1           0       -2.310480   -0.702948    1.753933
     31          1           0       -1.643753   -0.542370    0.133041
     32          1           0       -1.619528   -3.047707   -0.110622
     33          1           0       -2.290043   -3.209198    1.519480
     34          1           0       -0.665332   -2.539567    1.293164
 ---------------------------------------------------------------------

 SCF Done:  E(RHF) =  -669.535478699     A.U. after   15 cycles
 E2 =    -0.2091378860D+01 EUMP2 =    -0.67162685755901D+03

 The electronic state is 1-A.
 Alpha  occ. eigenvalues --  -20.60736 -20.60731 -15.85789 -11.31150 -11.27719
 Alpha  occ. eigenvalues --  -11.27705 -11.27454 -11.26737 -11.26696 -11.22404
 Alpha  occ. eigenvalues --  -11.22121 -11.22045 -11.21979 -11.21561 -11.21548
 Alpha  occ. eigenvalues --   -1.59812  -1.39365  -1.19320  -1.09063  -1.08716
 Alpha  occ. eigenvalues --   -1.04724  -1.04118  -0.96534  -0.95552  -0.87547
 Alpha  occ. eigenvalues --   -0.86121  -0.82390  -0.80200  -0.78894  -0.77429
 Alpha  occ. eigenvalues --   -0.72007  -0.71135  -0.70428  -0.65716  -0.64971
 Alpha  occ. eigenvalues --   -0.64726  -0.62143  -0.61463  -0.59897  -0.58154
 Alpha  occ. eigenvalues --   -0.55814  -0.55221  -0.53219  -0.53051  -0.52987
 Alpha  occ. eigenvalues --   -0.52800  -0.50468  -0.48774  -0.48762  -0.48484
 Alpha  occ. eigenvalues --   -0.47237  -0.46413  -0.46344  -0.44772  -0.44370
 Alpha  occ. eigenvalues --   -0.37301  -0.36320
 Alpha virt. eigenvalues --    0.05090   0.11318   0.16552   0.19482   0.22651
 Alpha virt. eigenvalues --    0.23656   0.24741   0.26424   0.26741   0.28536
 Alpha virt. eigenvalues --    0.29017   0.30480   0.31164   0.31475   0.32235

 Mulliken charges:
               1
     1  C   -0.171518
     2  C   -0.221940
     3  C   -0.173727
     4  C    0.158549
     5  C   -0.171101
     6  C   -0.218511
     7  H    0.225906
     8  H    0.229293
     9  H    0.276436
    10  H    0.275446
    11  H    0.223233
    12  N    0.488075
    13  O   -0.460633
    14  O   -0.460411
    15  C   -0.298036
    16  C   -0.300055
    17  C   -0.476022
    18  H    0.149794
    19  H    0.143807
    20  H    0.153991
    21  H    0.153536
    22  H    0.154214
    23  H    0.155230
    24  H    0.162403
    25  C   -0.298183
    26  C   -0.303467
    27  C   -0.478315
    28  H    0.153188
    29  H    0.151883
    30  H    0.154038
    31  H    0.141429
    32  H    0.158161
    33  H    0.159191
    34  H    0.164117
 Sum of Mulliken charges =  -0.00000

 Dipole moment (field-independent basis, Debye):
    X=             -3.1487    Y=              4.0571    Z=              1.0340  Tot=              5.2386
 Quadrupole moment (field-independent basis, Debye-Ang):
   XX=           -110.7482   YY=            -92.8221   ZZ=            -94.5966
   XY=             16.4427   XZ=              4.3700   YZ=              0.3776

 Normal termination of Gaussian 16 at Wed May  5 15:50:20 2021.
