 Gaussian 16, Revision A.03,
 Gaussian 16:  EM64L-G16RevA.03 25-Dec-2016

 -------------
 #p 6-31g* mp2
 -------------

 ------------------------------------------------------
 Input file generated by CHIRIPA (05-May-2021 14:51:12)
 ------------------------------------------------------
 Symbolic Z-matrix:
 Charge =  0 Multiplicity = 1

                         Standard orientation:
 ---------------------------------------------------------------------
 Center     Atomic      Atomic             Coordinates (Angstroms)
 Number     Number       Type             X           Y           Z
 ---------------------------------------------------------------------
      1          6           0        2.860629   -0.806704    0.646300
      2          6           0        1.464645   -1.362669    0.363250
      3          6           0        1.089282   -2.518425    1.291217
      4          1           0        3.597815   -1.614865    0.544440
      5          1           0        2.908597   -0.469726    1.691068
      6          1           0        1.418898   -1.697226   -0.681066
      7          1           0        0.730716   -0.553047    0.465608
      8          1           0        1.106987   -2.194310    2.336797
      9          1           0        1.799078   -3.344991    1.183608
     10          1           0        0.087559   -2.900664    1.071435
     11          6           0        3.250272    0.349256   -0.273299
     12          6           0        4.646256    0.905221    0.009751
     13          6           0        5.021618    2.060977   -0.918217
     14          1           0        3.202303    0.012278   -1.318067
     15          1           0        2.513085    1.157417   -0.171440
     16          1           0        5.380184    0.095599   -0.092607
     17          1           0        4.692003    1.239778    1.054066
     18          1           0        4.311822    2.887543   -0.810608
     19          1           0        5.003913    1.736862   -1.963796
     20          1           0        6.023342    2.443216   -0.698435
     21          6           0       -3.181510    0.763234    0.344386
     22          6           0       -3.385865    2.161531   -0.239556
     23          6           0       -3.636965    3.219966    0.834903
     24          1           0       -4.065967    0.486302    0.934293
     25          1           0       -2.334033    0.785660    1.043439
     26          1           0       -4.231834    2.136162   -0.938346
     27          1           0       -2.500900    2.435087   -0.828299
     28          1           0       -2.790541    3.274555    1.527137
     29          1           0       -4.531310    2.973930    1.416464
     30          1           0       -3.780348    4.212018    0.395433
     31          6           0       -2.929390   -0.305786   -0.717387
     32          6           0       -2.725035   -1.704083   -0.133445
     33          6           0       -2.473936   -2.762518   -1.207903
     34          1           0       -3.776867   -0.328212   -1.416440
     35          1           0       -2.044933   -0.028854   -1.307293
     36          1           0       -3.610000   -1.977640    0.455299
     37          1           0       -1.879065   -1.678714    0.565346
     38          1           0       -1.579591   -2.516482   -1.789464
     39          1           0       -3.320359   -2.817107   -1.900138
     40          1           0       -2.330553   -3.754570   -0.768433
 ---------------------------------------------------------------------

 SCF Done:  E(RHF) =  -470.733138758     A.U. after   11 cycles
 E2 =    -0.1583455515D+01 EUMP2 =    -0.47231659427379D+03

 The electronic state is 1-A.
 Alpha  occ. eigenvalues --  -11.21677 -11.21638 -11.21606 -11.21548 -11.21458
 Alpha  occ. eigenvalues --  -11.21399 -11.21398 -11.21333 -11.21101 -11.21086
 Alpha  occ. eigenvalues --  -11.21081 -11.21067  -1.08491  -1.08413  -1.03610
 Alpha  occ. eigenvalues --   -1.03494  -0.96046  -0.95956  -0.87040  -0.86991
 Alpha  occ. eigenvalues --   -0.79645  -0.79585  -0.78299  -0.78234  -0.65166
 Alpha  occ. eigenvalues --   -0.65024  -0.61063  -0.60935  -0.59481  -0.59221
 Alpha  occ. eigenvalues --   -0.57718  -0.57479  -0.55310  -0.55253  -0.52740
 Alpha  occ. eigenvalues --   -0.52646  -0.52440  -0.52401  -0.49962  -0.49912
 Alpha  occ. eigenvalues --   -0.47978  -0.47889  -0.46705  -0.46573  -0.45879
 Alpha  occ. eigenvalues --   -0.45800  -0.45722  -0.45634  -0.43822  -0.43774
 Alpha virt. eigenvalues --    0.20088   0.23147   0.23264   0.25165   0.25771
 Alpha virt. eigenvalues --    0.26353   0.26810   0.27501   0.28209   0.29088
 Alpha virt. eigenvalues --    0.30313   0.31093   0.31639   0.31822   0.32587

 Mulliken charges:
               1
     1  C   -0.298269
     2  C   -0.301813
     3  C   -0.481340
     4  H    0.150121
     5  H    0.149717
     6  H    0.152413
     7  H    0.152366
     8  H    0.154988
     9  H    0.155695
    10  H    0.166237
    11  C   -0.298314
    12  C   -0.299699
    13  C   -0.475750
    14  H    0.149562
    15  H    0.149309
    16  H    0.152107
    17  H    0.152022
    18  H    0.155172
    19  H    0.155245
    20  H    0.160423
    21  C   -0.298913
    22  C   -0.299654
    23  C   -0.475660
    24  H    0.149786
    25  H    0.149189
    26  H    0.152075
    27  H    0.151917
    28  H    0.154877
    29  H    0.155256
    30  H    0.160291
    31  C   -0.298248
    32  C   -0.307053
    33  C   -0.476806
    34  H    0.149357
    35  H    0.150579
    36  H    0.151662
    37  H    0.159673
    38  H    0.156312
    39  H    0.155352
    40  H    0.159817
 Sum of Mulliken charges =  -0.00000

 Dipole moment (field-independent basis, Debye):
    X=              0.0188    Y=             -0.0109    Z=             -0.0011  Tot=              0.0218
 Quadrupole moment (field-independent basis, Debye-Ang):
   XX=            -83.7988   YY=            -85.7913   ZZ=            -85.1267
   XY=             -0.2937   XZ=              0.1607   YZ=              0.3748

 Normal termination of Gaussian 16 at Thu May  6 03:54:34 2021.
