 Gaussian 16, Revision A.03,
 Gaussian 16:  EM64L-G16RevA.03 25-Dec-2016

 -------------
 #p 6-31g* mp2
 -------------

 ------------------------------------------------------
 Input file generated by CHIRIPA (05-May-2021 14:51:07)
 ------------------------------------------------------
 Symbolic Z-matrix:
 Charge =  0 Multiplicity = 1

                         Standard orientation:
 ---------------------------------------------------------------------
 Center     Atomic      Atomic             Coordinates (Angstroms)
 Number     Number       Type             X           Y           Z
 ---------------------------------------------------------------------
      1          6           0        3.821804    0.886852   -0.122153
      2          6           0        2.997617    2.126709    0.226352
      3          6           0        3.796694    3.423690    0.095556
      4          1           0        4.702816    0.844035    0.532775
      5          1           0        4.200228    0.983472   -1.149214
      6          1           0        2.619709    2.027148    1.251969
      7          1           0        2.118363    2.166475   -0.429352
      8          1           0        4.161127    3.549979   -0.929061
      9          1           0        4.665321    3.409861    0.761813
     10          1           0        3.188330    4.297381    0.349362
     11          6           0        3.036721   -0.417562    0.003854
     12          6           0        3.860908   -1.657418   -0.344650
     13          6           0        3.061830   -2.954400   -0.213855
     14          1           0        2.658296   -0.514182    1.030916
     15          1           0        2.155709   -0.374745   -0.651073
     16          1           0        4.740161   -1.697185    0.311054
     17          1           0        4.238815   -1.557858   -1.370267
     18          1           0        2.193204   -2.940571   -0.880111
     19          1           0        2.697398   -3.080689    0.810763
     20          1           0        3.670194   -3.828091   -0.467661
     21          6           0       -2.683183   -0.260838   -0.102443
     22          6           0       -1.948866   -1.399464    0.606284
     23          6           0       -0.457166   -1.438748    0.272996
     24          1           0       -2.551218   -0.367466   -1.187874
     25          1           0       -2.218916    0.695234    0.176446
     26          1           0       -2.415259   -2.352995    0.327224
     27          1           0       -2.082755   -1.290222    1.690146
     28          1           0        0.028142   -0.502600    0.567452
     29          1           0       -0.306250   -1.571411   -0.803214
     30          1           0        0.048272   -2.260229    0.790258
     31          6           0       -4.175342   -0.208452    0.220741
     32          6           0       -4.909658    0.930174   -0.487986
     33          6           0       -6.401359    0.969457   -0.154697
     34          1           0       -4.639609   -1.164524   -0.058147
     35          1           0       -4.307306   -0.101824    1.306172
     36          1           0       -4.775770    0.820932   -1.571847
     37          1           0       -4.443266    1.883705   -0.208926
     38          1           0       -6.552273    1.102121    0.921512
     39          1           0       -6.886666    0.033310   -0.449153
     40          1           0       -6.906796    1.790939   -0.671960
 ---------------------------------------------------------------------

 SCF Done:  E(RHF) =  -470.731732788     A.U. after   11 cycles
 E2 =    -0.1584022041D+01 EUMP2 =    -0.47231575482909D+03

 The electronic state is 1-A.
 Alpha  occ. eigenvalues --  -11.21591 -11.21587 -11.21517 -11.21514 -11.21376
 Alpha  occ. eigenvalues --  -11.21316 -11.21316 -11.21200 -11.21062 -11.21060
 Alpha  occ. eigenvalues --  -11.20971 -11.20922  -1.08413  -1.08347  -1.03532
 Alpha  occ. eigenvalues --   -1.03434  -0.95945  -0.95920  -0.86982  -0.86936
 Alpha  occ. eigenvalues --   -0.79734  -0.79431  -0.78304  -0.78026  -0.65038
 Alpha  occ. eigenvalues --   -0.64989  -0.60944  -0.60831  -0.59449  -0.59172
 Alpha  occ. eigenvalues --   -0.57744  -0.57372  -0.55274  -0.55165  -0.52726
 Alpha  occ. eigenvalues --   -0.52664  -0.52522  -0.52116  -0.49928  -0.49811
 Alpha  occ. eigenvalues --   -0.47975  -0.47807  -0.46680  -0.46512  -0.45958
 Alpha  occ. eigenvalues --   -0.45731  -0.45570  -0.45312  -0.43732  -0.43665
 Alpha virt. eigenvalues --    0.21948   0.23064   0.23675   0.24460   0.25959
 Alpha virt. eigenvalues --    0.26150   0.26865   0.27291   0.27912   0.29682
 Alpha virt. eigenvalues --    0.29938   0.31204   0.31645   0.32317   0.32436

 Mulliken charges:
               1
     1  C   -0.297587
     2  C   -0.300347
     3  C   -0.475452
     4  H    0.149030
     5  H    0.148991
     6  H    0.151210
     7  H    0.151833
     8  H    0.155276
     9  H    0.155244
    10  H    0.159994
    11  C   -0.301711
    12  C   -0.299605
    13  C   -0.477113
    14  H    0.149765
    15  H    0.156583
    16  H    0.151103
    17  H    0.151113
    18  H    0.158525
    19  H    0.154621
    20  H    0.159129
    21  C   -0.298395
    22  C   -0.301254
    23  C   -0.477575
    24  H    0.149039
    25  H    0.149373
    26  H    0.151234
    27  H    0.151279
    28  H    0.159771
    29  H    0.152530
    30  H    0.163577
    31  C   -0.298104
    32  C   -0.299582
    33  C   -0.475673
    34  H    0.149484
    35  H    0.149583
    36  H    0.151777
    37  H    0.151852
    38  H    0.155159
    39  H    0.155159
    40  H    0.160165
 Sum of Mulliken charges =  -0.00000

 Dipole moment (field-independent basis, Debye):
    X=              0.0058    Y=             -0.0070    Z=             -0.0009  Tot=              0.0091
 Quadrupole moment (field-independent basis, Debye-Ang):
   XX=            -86.4079   YY=            -85.5689   ZZ=            -83.2052
   XY=             -0.1856   XZ=              0.6125   YZ=              0.4399

 Normal termination of Gaussian 16 at Thu May  6 02:03:09 2021.
