 Gaussian 16, Revision A.03,
 Gaussian 16:  EM64L-G16RevA.03 25-Dec-2016

 -------------
 #p 6-31g* mp2
 -------------

 ------------------------------------------------------
 Input file generated by CHIRIPA (05-May-2021 14:57:22)
 ------------------------------------------------------
 Symbolic Z-matrix:
 Charge =  0 Multiplicity = 1

                         Standard orientation:
 ---------------------------------------------------------------------
 Center     Atomic      Atomic             Coordinates (Angstroms)
 Number     Number       Type             X           Y           Z
 ---------------------------------------------------------------------
      1          6           0        2.695499    2.649135    0.418431
      2          6           0        1.843329    1.775390   -0.264868
      3          6           0        2.249842    0.469755   -0.555748
      4          6           0        3.520901    0.069284   -0.146698
      5          6           0        4.392832    0.916316    0.535623
      6          6           0        3.965293    2.217570    0.815795
      7          1           0        2.371543    3.661682    0.640235
      8          1           0        0.856642    2.107820   -0.574682
      9          1           0        1.610320   -0.227406   -1.083381
     10          1           0        5.370629    0.556176    0.831650
     11          1           0        4.629217    2.893958    1.346596
     12          7           0        3.962388   -1.310614   -0.448972
     13          8           0        5.087075   -1.639150   -0.077782
     14          8           0        3.175380   -2.037514   -1.051360
     15          6           0       -1.495098   -1.638627    0.963371
     16          6           0       -1.505654   -1.194215   -0.362867
     17          6           0       -2.582540   -0.449963   -0.853737
     18          6           0       -3.636952   -0.166976    0.013110
     19          6           0       -3.655656   -0.595615    1.339462
     20          6           0       -2.568241   -1.338438    1.808812
     21          1           0       -0.654457   -2.216225    1.336332
     22          1           0       -0.673604   -1.425858   -1.021715
     23          1           0       -2.616497   -0.093438   -1.876065
     24          1           0       -4.499496   -0.349014    1.972345
     25          1           0       -2.562745   -1.682266    2.839248
     26          7           0       -4.782577    0.620173   -0.495160
     27          8           0       -5.699347    0.856239    0.288703
     28          8           0       -4.742054    0.986171   -1.667782
 ---------------------------------------------------------------------

 SCF Done:  E(RHF) =  -868.338283920     A.U. after   16 cycles
 E2 =    -0.2599596683D+01 EUMP2 =    -0.87093788060300D+03

 The electronic state is 1-A.
 Alpha  occ. eigenvalues --  -20.61506 -20.61467 -20.61077 -20.61069 -15.86537
 Alpha  occ. eigenvalues --  -15.86131 -11.31817 -11.31504 -11.28423 -11.28318
 Alpha  occ. eigenvalues --  -11.28113 -11.28068 -11.28015 -11.27754 -11.27326
 Alpha  occ. eigenvalues --  -11.27307 -11.27093 -11.27032  -1.60562  -1.60153
 Alpha  occ. eigenvalues --   -1.40122  -1.39706  -1.19960  -1.19679  -1.09357
 Alpha  occ. eigenvalues --   -1.09051  -1.05351  -1.05088  -0.96217  -0.95884
 Alpha  occ. eigenvalues --   -0.86754  -0.86466  -0.83052  -0.82724  -0.78141
 Alpha  occ. eigenvalues --   -0.77779  -0.72754  -0.72344  -0.71886  -0.71482
 Alpha  occ. eigenvalues --   -0.71066  -0.70727  -0.65607  -0.65399  -0.65316
 Alpha  occ. eigenvalues --   -0.65033  -0.62776  -0.62357  -0.55822  -0.55510
 Alpha  occ. eigenvalues --   -0.53690  -0.53491  -0.53396  -0.53099  -0.49527
 Alpha  occ. eigenvalues --   -0.49492  -0.49104  -0.49100  -0.45546  -0.45110
 Alpha  occ. eigenvalues --   -0.37912  -0.37647  -0.36971  -0.36666
 Alpha virt. eigenvalues --    0.04393   0.04753   0.10622   0.10957   0.15940
 Alpha virt. eigenvalues --    0.16190   0.19414   0.21815   0.24924   0.27253
 Alpha virt. eigenvalues --    0.28091   0.28871   0.29904   0.31054   0.31833

 Mulliken charges:
               1
     1  C   -0.170653
     2  C   -0.218360
     3  C   -0.174747
     4  C    0.158372
     5  C   -0.170696
     6  C   -0.218238
     7  H    0.229014
     8  H    0.227220
     9  H    0.269559
    10  H    0.276794
    11  H    0.225747
    12  N    0.487797
    13  O   -0.456822
    14  O   -0.466441
    15  C   -0.170577
    16  C   -0.228079
    17  C   -0.174629
    18  C    0.158197
    19  C   -0.170644
    20  C   -0.219113
    21  H    0.233035
    22  H    0.229064
    23  H    0.275027
    24  H    0.276379
    25  H    0.225322
    26  N    0.487951
    27  O   -0.459559
    28  O   -0.460921
 Sum of Mulliken charges =  -0.00000

 Dipole moment (field-independent basis, Debye):
    X=              2.5572    Y=              2.1592    Z=              3.0228  Tot=              4.5099
 Quadrupole moment (field-independent basis, Debye-Ang):
   XX=           -140.5742   YY=           -103.9148   ZZ=           -100.8168
   XY=             28.1162   XZ=             -2.4482   YZ=             -0.9176

 Normal termination of Gaussian 16 at Thu May  6 22:39:56 2021.
