 Gaussian 16, Revision A.03,
 Gaussian 16:  EM64L-G16RevA.03 25-Dec-2016

 -------------
 #p 6-31g* mp2
 -------------

 ------------------------------------------------------
 Input file generated by CHIRIPA (05-May-2021 14:53:12)
 ------------------------------------------------------
 Symbolic Z-matrix:
 Charge =  0 Multiplicity = 1

                         Standard orientation:
 ---------------------------------------------------------------------
 Center     Atomic      Atomic             Coordinates (Angstroms)
 Number     Number       Type             X           Y           Z
 ---------------------------------------------------------------------
      1          6           0       -5.067556   -0.551396    0.068964
      2          6           0       -6.383593    0.057698   -0.415841
      3          6           0       -7.431484   -0.999790   -0.764321
      4          1           0       -4.671888   -1.219593   -0.708149
      5          1           0       -5.264201   -1.178267    0.949735
      6          1           0       -6.184318    0.684339   -1.294605
      7          1           0       -6.776076    0.724671    0.362439
      8          1           0       -7.659312   -1.618943    0.109376
      9          1           0       -7.064191   -1.659505   -1.557084
     10          1           0       -8.364316   -0.542442   -1.108583
     11          6           0       -4.009985    0.493206    0.421215
     12          6           0       -2.693947   -0.115888    0.906019
     13          6           0       -1.646057    0.941600    1.254499
     14          1           0       -3.813340    1.120077   -0.459557
     15          1           0       -4.405652    1.161403    1.198327
     16          1           0       -2.301464   -0.782861    0.127739
     17          1           0       -2.893222   -0.742529    1.784784
     18          1           0       -2.013349    1.601315    2.047262
     19          1           0       -1.418229    1.560753    0.380803
     20          1           0       -0.713224    0.484252    1.598761
     21          6           0        1.950355    1.944456   -0.547963
     22          6           0        1.476944    0.628419   -0.569148
     23          6           0        2.351942   -0.444138   -0.372813
     24          6           0        3.700167   -0.163055   -0.157012
     25          6           0        4.202259    1.137128   -0.130258
     26          6           0        3.309106    2.194171   -0.328971
     27          1           0        1.263583    2.771618   -0.701404
     28          1           0        0.422230    0.431501   -0.739000
     29          1           0        2.012286   -1.472692   -0.384231
     30          1           0        5.259041    1.301961    0.041383
     31          1           0        3.679577    3.215204   -0.311996
     32          7           0        4.636099   -1.290311    0.052098
     33          8           0        5.819334   -1.016110    0.240256
     34          8           0        4.168724   -2.426709    0.023880
 ---------------------------------------------------------------------

 SCF Done:  E(RHF) =  -669.534602086     A.U. after   15 cycles
 E2 =    -0.2091871739D+01 EUMP2 =    -0.67162647382503D+03

 The electronic state is 1-A.
 Alpha  occ. eigenvalues --  -20.60726 -20.60720 -15.85777 -11.31134 -11.27692
 Alpha  occ. eigenvalues --  -11.27675 -11.27421 -11.26719 -11.26635 -11.22480
 Alpha  occ. eigenvalues --  -11.22101 -11.22069 -11.22064 -11.21920 -11.21441
 Alpha  occ. eigenvalues --   -1.59801  -1.39355  -1.19300  -1.09098  -1.08695
 Alpha  occ. eigenvalues --   -1.04710  -1.04209  -0.96672  -0.95533  -0.87703
 Alpha  occ. eigenvalues --   -0.86086  -0.82366  -0.80285  -0.78873  -0.77418
 Alpha  occ. eigenvalues --   -0.71997  -0.71124  -0.70407  -0.65780  -0.64949
 Alpha  occ. eigenvalues --   -0.64728  -0.62186  -0.61493  -0.60022  -0.58257
 Alpha  occ. eigenvalues --   -0.55984  -0.55185  -0.53480  -0.53102  -0.52936
 Alpha  occ. eigenvalues --   -0.52700  -0.50584  -0.48753  -0.48749  -0.48590
 Alpha  occ. eigenvalues --   -0.47324  -0.46420  -0.46329  -0.44763  -0.44443
 Alpha  occ. eigenvalues --   -0.37263  -0.36278
 Alpha virt. eigenvalues --    0.05103   0.11317   0.16558   0.19787   0.22592
 Alpha virt. eigenvalues --    0.23857   0.25729   0.26151   0.26904   0.27909
 Alpha virt. eigenvalues --    0.28811   0.30009   0.30951   0.31186   0.31819

 Mulliken charges:
               1
     1  C   -0.298819
     2  C   -0.300061
     3  C   -0.476089
     4  H    0.149969
     5  H    0.151586
     6  H    0.151630
     7  H    0.152703
     8  H    0.156281
     9  H    0.155796
    10  H    0.161481
    11  C   -0.298099
    12  C   -0.302438
    13  C   -0.481746
    14  H    0.147420
    15  H    0.151896
    16  H    0.148145
    17  H    0.157887
    18  H    0.161268
    19  H    0.142959
    20  H    0.167219
    21  C   -0.172799
    22  C   -0.218231
    23  C   -0.174422
    24  C    0.158950
    25  C   -0.171438
    26  C   -0.218384
    27  H    0.225329
    28  H    0.231446
    29  H    0.275207
    30  H    0.275319
    31  H    0.223181
    32  N    0.488038
    33  O   -0.460583
    34  O   -0.460602
 Sum of Mulliken charges =  -0.00000

 Dipole moment (field-independent basis, Debye):
    X=             -3.4873    Y=              3.9579    Z=             -0.6536  Tot=              5.3154
 Quadrupole moment (field-independent basis, Debye-Ang):
   XX=           -116.5985   YY=            -94.8040   ZZ=            -94.3442
   XY=             17.7587   XZ=             -2.5569   YZ=             -0.2869

 Normal termination of Gaussian 16 at Wed May  5 23:22:01 2021.
