 Gaussian 16, Revision A.03,
 Gaussian 16:  EM64L-G16RevA.03 25-Dec-2016

 -------------
 #p 6-31g* mp2
 -------------

 ------------------------------------------------------
 Input file generated by CHIRIPA (05-May-2021 14:53:18)
 ------------------------------------------------------
 Symbolic Z-matrix:
 Charge =  0 Multiplicity = 1

                         Standard orientation:
 ---------------------------------------------------------------------
 Center     Atomic      Atomic             Coordinates (Angstroms)
 Number     Number       Type             X           Y           Z
 ---------------------------------------------------------------------
      1          6           0       -1.295292    1.938798   -0.414226
      2          6           0       -0.506309    2.758989    0.606939
      3          6           0        0.431313    3.774006   -0.047584
      4          1           0       -0.592243    1.416273   -1.077276
      5          1           0       -1.877321    2.620004   -1.050304
      6          1           0        0.072988    2.076355    1.241795
      7          1           0       -1.211317    3.279471    1.267755
      8          1           0       -0.134507    4.477993   -0.666334
      9          1           0        1.157095    3.268041   -0.692441
     10          1           0        0.985421    4.349363    0.700606
     11          6           0       -2.237030    0.919721    0.224786
     12          6           0       -3.026013    0.099530   -0.796379
     13          6           0       -3.963635   -0.915487   -0.141856
     14          1           0       -1.655001    0.238515    0.860865
     15          1           0       -2.940079    1.442246    0.887836
     16          1           0       -2.321005   -0.420952   -1.457195
     17          1           0       -3.605309    0.782164   -1.431235
     18          1           0       -4.689417   -0.409523    0.503001
     19          1           0       -3.397815   -1.619474    0.476894
     20          1           0       -4.517743   -1.490844   -0.890046
     21          6           0        3.028874    0.758544   -0.287003
     22          6           0        2.419268    0.593040    0.960999
     23          6           0        1.504041   -0.442438    1.172400
     24          6           0        1.220388   -1.297891    0.108901
     25          6           0        1.811240   -1.158944   -1.146040
     26          6           0        2.723454   -0.116434   -1.334693
     27          1           0        3.738674    1.565660   -0.442389
     28          1           0        2.654552    1.271051    1.776466
     29          1           0        1.017532   -0.593459    2.128391
     30          1           0        1.556577   -1.850712   -1.939779
     31          1           0        3.195355    0.009697   -2.304974
     32          7           0        0.253073   -2.397828    0.320660
     33          8           0        0.020163   -3.138065   -0.632461
     34          8           0       -0.253881   -2.498894    1.435747
 ---------------------------------------------------------------------

 SCF Done:  E(RHF) =  -669.534726519     A.U. after   15 cycles
 E2 =    -0.2097588563D+01 EUMP2 =    -0.67163231508169D+03

 The electronic state is 1-A.
 Alpha  occ. eigenvalues --  -20.61064 -20.61056 -15.86075 -11.31409 -11.27956
 Alpha  occ. eigenvalues --  -11.27941 -11.27677 -11.26978 -11.26948 -11.21641
 Alpha  occ. eigenvalues --  -11.21395 -11.21260 -11.21105 -11.21018 -11.20228
 Alpha  occ. eigenvalues --   -1.60109  -1.39665  -1.19587  -1.08982  -1.08231
 Alpha  occ. eigenvalues --   -1.04988  -1.03297  -0.95840  -0.95728  -0.86769
 Alpha  occ. eigenvalues --   -0.86371  -0.82658  -0.79414  -0.78035  -0.77670
 Alpha  occ. eigenvalues --   -0.72293  -0.71441  -0.70673  -0.65233  -0.65003
 Alpha  occ. eigenvalues --   -0.64888  -0.62319  -0.60751  -0.59190  -0.57344
 Alpha  occ. eigenvalues --   -0.55468  -0.55042  -0.53240  -0.53054  -0.52451
 Alpha  occ. eigenvalues --   -0.52175  -0.49705  -0.49057  -0.49044  -0.47689
 Alpha  occ. eigenvalues --   -0.46493  -0.45718  -0.45505  -0.44804  -0.43550
 Alpha  occ. eigenvalues --   -0.37507  -0.36426
 Alpha virt. eigenvalues --    0.04768   0.10953   0.16147   0.20706   0.22997
 Alpha virt. eigenvalues --    0.24361   0.26013   0.26812   0.27405   0.28664
 Alpha virt. eigenvalues --    0.28870   0.30481   0.31441   0.31748   0.32425

 Mulliken charges:
               1
     1  C   -0.299474
     2  C   -0.298769
     3  C   -0.478154
     4  H    0.149954
     5  H    0.148731
     6  H    0.148547
     7  H    0.151734
     8  H    0.157226
     9  H    0.151789
    10  H    0.154122
    11  C   -0.304523
    12  C   -0.300221
    13  C   -0.479653
    14  H    0.152873
    15  H    0.149057
    16  H    0.151773
    17  H    0.148815
    18  H    0.150825
    19  H    0.171533
    20  H    0.159668
    21  C   -0.170688
    22  C   -0.215435
    23  C   -0.171957
    24  C    0.161252
    25  C   -0.172369
    26  C   -0.219187
    27  H    0.227672
    28  H    0.226068
    29  H    0.276821
    30  H    0.276431
    31  H    0.224848
    32  N    0.488701
    33  O   -0.458026
    34  O   -0.459984
 Sum of Mulliken charges =  -0.00000

 Dipole moment (field-independent basis, Debye):
    X=              3.5192    Y=              3.6054    Z=             -0.7288  Tot=              5.0907
 Quadrupole moment (field-independent basis, Debye-Ang):
   XX=            -86.8493   YY=           -105.6266   ZZ=            -90.6335
   XY=             -0.6843   XZ=             -1.1344   YZ=              3.1960

 Normal termination of Gaussian 16 at Thu May  6 09:10:42 2021.
