 Gaussian 16, Revision A.03,
 Gaussian 16:  EM64L-G16RevA.03 25-Dec-2016

 -------------
 #p 6-31g* mp2
 -------------

 ------------------------------------------------------
 Input file generated by CHIRIPA (05-May-2021 14:55:20)
 ------------------------------------------------------
 Symbolic Z-matrix:
 Charge =  0 Multiplicity = 1

                         Standard orientation:
 ---------------------------------------------------------------------
 Center     Atomic      Atomic             Coordinates (Angstroms)
 Number     Number       Type             X           Y           Z
 ---------------------------------------------------------------------
      1          6           0       -4.719638    0.486501    1.148774
      2          6           0       -3.656612   -0.046172    1.885493
      3          6           0       -2.541548   -0.583863    1.235825
      4          6           0       -2.522589   -0.572535   -0.158019
      5          6           0       -3.566027   -0.049104   -0.919956
      6          6           0       -4.671038    0.483341   -0.249135
      7          1           0       -5.581942    0.902155    1.661667
      8          1           0       -3.691630   -0.045056    2.971227
      9          1           0       -1.704752   -1.002668    1.781529
     10          1           0       -3.502406   -0.064325   -2.001223
     11          1           0       -5.495148    0.896348   -0.823864
     12          7           0       -1.347442   -1.138988   -0.856990
     13          8           0       -1.354981   -1.117097   -2.085852
     14          8           0       -0.441075   -1.594139   -0.162747
     15          6           0        3.184394    1.311770    0.155419
     16          6           0        1.874638    1.535517   -0.601192
     17          6           0        1.301978    2.937388   -0.389973
     18          1           0        3.014982    1.482521    1.227375
     19          1           0        3.919412    2.061707   -0.168215
     20          1           0        1.142745    0.784517   -0.277234
     21          1           0        2.047143    1.364028   -1.671448
     22          1           0        2.011240    3.698619   -0.730669
     23          1           0        1.101703    3.115817    0.671467
     24          1           0        0.365790    3.075665   -0.939783
     25          6           0        3.769252   -0.085077   -0.045799
     26          6           0        5.079008   -0.308823    0.710812
     27          6           0        5.651668   -1.710694    0.499593
     28          1           0        3.034234   -0.835013    0.277835
     29          1           0        3.938664   -0.255827   -1.117755
     30          1           0        4.906503   -0.137334    1.781068
     31          1           0        5.810901    0.442177    0.386855
     32          1           0        5.851942   -1.889124   -0.561847
     33          1           0        4.942406   -2.471925    0.840289
     34          1           0        6.587856   -1.848971    1.049403
 ---------------------------------------------------------------------

 SCF Done:  E(RHF) =  -669.536239755     A.U. after   15 cycles
 E2 =    -0.2091564764D+01 EUMP2 =    -0.67162780451871D+03

 The electronic state is 1-A.
 Alpha  occ. eigenvalues --  -20.60977 -20.60968 -15.85989 -11.31300 -11.27864
 Alpha  occ. eigenvalues --  -11.27857 -11.27596 -11.26867 -11.26857 -11.20829
 Alpha  occ. eigenvalues --  -11.20625 -11.20544 -11.20483 -11.20344 -11.20336
 Alpha  occ. eigenvalues --   -1.60025  -1.39583  -1.19467  -1.08873  -1.07551
 Alpha  occ. eigenvalues --   -1.04862  -1.02742  -0.95718  -0.95216  -0.86263
 Alpha  occ. eigenvalues --   -0.86232  -0.82554  -0.78784  -0.77612  -0.77329
 Alpha  occ. eigenvalues --   -0.72216  -0.71338  -0.70577  -0.65124  -0.64865
 Alpha  occ. eigenvalues --   -0.64182  -0.62211  -0.60146  -0.58581  -0.56814
 Alpha  occ. eigenvalues --   -0.55367  -0.54513  -0.53193  -0.52955  -0.51941
 Alpha  occ. eigenvalues --   -0.51634  -0.49161  -0.48985  -0.48973  -0.47116
 Alpha  occ. eigenvalues --   -0.45885  -0.45168  -0.44886  -0.44475  -0.42972
 Alpha  occ. eigenvalues --   -0.37442  -0.36461
 Alpha virt. eigenvalues --    0.04892   0.11188   0.16355   0.21311   0.23709
 Alpha virt. eigenvalues --    0.24975   0.27222   0.27469   0.28037   0.28506
 Alpha virt. eigenvalues --    0.28816   0.30864   0.32065   0.32375   0.32448

 Mulliken charges:
               1
     1  C   -0.170468
     2  C   -0.218426
     3  C   -0.170932
     4  C    0.158367
     5  C   -0.170778
     6  C   -0.218504
     7  H    0.226074
     8  H    0.223836
     9  H    0.275409
    10  H    0.275864
    11  H    0.223894
    12  N    0.488140
    13  O   -0.457448
    14  O   -0.459754
    15  C   -0.297082
    16  C   -0.305831
    17  C   -0.475398
    18  H    0.144647
    19  H    0.145506
    20  H    0.163057
    21  H    0.155264
    22  H    0.153193
    23  H    0.150274
    24  H    0.156569
    25  C   -0.301141
    26  C   -0.299028
    27  C   -0.475219
    28  H    0.162887
    29  H    0.150618
    30  H    0.148555
    31  H    0.148788
    32  H    0.155415
    33  H    0.157084
    34  H    0.156567
 Sum of Mulliken charges =  -0.00000

 Dipole moment (field-independent basis, Debye):
    X=             -4.3629    Y=              1.8091    Z=              2.3827  Tot=              5.2901
 Quadrupole moment (field-independent basis, Debye-Ang):
   XX=            -74.1844   YY=            -98.9889   ZZ=            -91.0789
   XY=             -2.9790   XZ=             -4.2336   YZ=             -3.1496

 Normal termination of Gaussian 16 at Thu May  6 07:42:58 2021.
