 Gaussian 16, Revision A.03,
 Gaussian 16:  EM64L-G16RevA.03 25-Dec-2016

 -------------
 #p 6-31g* mp2
 -------------

 ------------------------------------------------------
 Input file generated by CHIRIPA (05-May-2021 14:57:22)
 ------------------------------------------------------
 Symbolic Z-matrix:
 Charge =  0 Multiplicity = 1

                         Standard orientation:
 ---------------------------------------------------------------------
 Center     Atomic      Atomic             Coordinates (Angstroms)
 Number     Number       Type             X           Y           Z
 ---------------------------------------------------------------------
      1          6           0        6.022318   -0.339224   -0.783004
      2          6           0        5.438225    0.930941   -0.828155
      3          6           0        4.137548    1.131478   -0.356380
      4          6           0        3.446621    0.034635    0.156305
      5          6           0        4.001189   -1.242989    0.214781
      6          6           0        5.303204   -1.420229   -0.262598
      7          1           0        7.033235   -0.485957   -1.151667
      8          1           0        5.994336    1.772296   -1.231772
      9          1           0        3.661204    2.104095   -0.379429
     10          1           0        3.421934   -2.062387    0.622788
     11          1           0        5.754286   -2.407777   -0.226286
     12          7           0        2.068944    0.234604    0.658719
     13          8           0        1.481255   -0.748016    1.105616
     14          8           0        1.602897    1.370172    0.596100
     15          6           0       -3.283547    2.486124    0.083217
     16          6           0       -2.354359    1.595941    0.631583
     17          6           0       -2.560246    0.215505    0.550612
     18          6           0       -3.711395   -0.242190   -0.088653
     19          6           0       -4.655657    0.619408   -0.644808
     20          6           0       -4.429211    1.995881   -0.552108
     21          1           0       -3.115624    3.556940    0.150673
     22          1           0       -1.463725    1.973826    1.125565
     23          1           0       -1.857213   -0.495980    0.966486
     24          1           0       -5.534034    0.212748   -1.131119
     25          1           0       -5.152540    2.684867   -0.978883
     26          7           0       -3.940241   -1.701498   -0.180581
     27          8           0       -4.962384   -2.079430   -0.748936
     28          8           0       -3.093133   -2.439739    0.317461
 ---------------------------------------------------------------------

 SCF Done:  E(RHF) =  -868.341110862     A.U. after   16 cycles
 E2 =    -0.2598776530D+01 EUMP2 =    -0.87093988739162D+03

 The electronic state is 1-A.
 Alpha  occ. eigenvalues --  -20.61629 -20.61587 -20.59715 -20.59690 -15.86595
 Alpha  occ. eigenvalues --  -15.84746 -11.31652 -11.29902 -11.28205 -11.28151
 Alpha  occ. eigenvalues --  -11.27876 -11.27144 -11.27106 -11.26543 -11.26234
 Alpha  occ. eigenvalues --  -11.26191 -11.25568 -11.25196  -1.60650  -1.58787
 Alpha  occ. eigenvalues --   -1.40209  -1.38342  -1.19795  -1.18057  -1.09253
 Alpha  occ. eigenvalues --   -1.07512  -1.05149  -1.03387  -0.96138  -0.94373
 Alpha  occ. eigenvalues --   -0.86563  -0.84812  -0.82980  -0.81181  -0.78058
 Alpha  occ. eigenvalues --   -0.76238  -0.72835  -0.71928  -0.70972  -0.70901
 Alpha  occ. eigenvalues --   -0.70109  -0.69184  -0.65453  -0.65153  -0.63696
 Alpha  occ. eigenvalues --   -0.63360  -0.62497  -0.60700  -0.55669  -0.53966
 Alpha  occ. eigenvalues --   -0.53495  -0.53238  -0.51795  -0.51448  -0.49593
 Alpha  occ. eigenvalues --   -0.49577  -0.47735  -0.47708  -0.45671  -0.43793
 Alpha  occ. eigenvalues --   -0.37759  -0.36736  -0.36089  -0.34988
 Alpha virt. eigenvalues --    0.04455   0.06227   0.10923   0.12641   0.16010
 Alpha virt. eigenvalues --    0.17759   0.21077   0.22849   0.27021   0.27919
 Alpha virt. eigenvalues --    0.28949   0.29640   0.30703   0.32072   0.32411

 Mulliken charges:
               1
     1  C   -0.169633
     2  C   -0.218646
     3  C   -0.170370
     4  C    0.157761
     5  C   -0.169711
     6  C   -0.218663
     7  H    0.227481
     8  H    0.224401
     9  H    0.274195
    10  H    0.278874
    11  H    0.226090
    12  N    0.490701
    13  O   -0.458575
    14  O   -0.469050
    15  C   -0.173090
    16  C   -0.222724
    17  C   -0.176721
    18  C    0.156696
    19  C   -0.173718
    20  C   -0.219423
    21  H    0.221344
    22  H    0.242371
    23  H    0.289785
    24  H    0.270648
    25  H    0.217698
    26  N    0.487656
    27  O   -0.466178
    28  O   -0.459198
 Sum of Mulliken charges =  -0.00000

 Dipole moment (field-independent basis, Debye):
    X=              6.3306    Y=              4.3286    Z=             -1.3231  Tot=              7.7823
 Quadrupole moment (field-independent basis, Debye-Ang):
   XX=            -75.4915   YY=           -103.4051   ZZ=           -105.4425
   XY=            -22.3739   XZ=             -5.0216   YZ=             -2.4751

 Normal termination of Gaussian 16 at Thu May  6 14:31:14 2021.
