 Gaussian 16, Revision A.03,
 Gaussian 16:  EM64L-G16RevA.03 25-Dec-2016

 -------------
 #p 6-31g* mp2
 -------------

 ------------------------------------------------------
 Input file generated by CHIRIPA (05-May-2021 14:51:07)
 ------------------------------------------------------
 Symbolic Z-matrix:
 Charge =  0 Multiplicity = 1

                         Standard orientation:
 ---------------------------------------------------------------------
 Center     Atomic      Atomic             Coordinates (Angstroms)
 Number     Number       Type             X           Y           Z
 ---------------------------------------------------------------------
      1          6           0       -3.992851    0.185866   -0.287677
      2          6           0       -5.456393    0.245046    0.151102
      3          6           0       -6.264383    1.286046   -0.624310
      4          1           0       -3.537288    1.177059   -0.157504
      5          1           0       -3.948282   -0.039955   -1.362113
      6          1           0       -5.498155    0.469322    1.224682
      7          1           0       -5.908473   -0.746450    0.020050
      8          1           0       -6.252497    1.062788   -1.696045
      9          1           0       -5.839848    2.285468   -0.484569
     10          1           0       -7.307703    1.311492   -0.294619
     11          6           0       -3.172148   -0.850152    0.478378
     12          6           0       -1.708606   -0.909332    0.039599
     13          6           0       -0.900616   -1.950332    0.815011
     14          1           0       -3.216717   -0.624331    1.552814
     15          1           0       -3.627711   -1.841344    0.348205
     16          1           0       -1.256526    0.082164    0.170651
     17          1           0       -1.666843   -1.133608   -1.033981
     18          1           0       -1.325151   -2.949753    0.675270
     19          1           0       -0.912502   -1.727073    1.886746
     20          1           0        0.142704   -1.975777    0.485320
     21          6           0        4.006570   -0.300357   -0.154855
     22          6           0        3.176616   -1.572707   -0.328883
     23          6           0        4.039164   -2.829677   -0.446498
     24          1           0        4.692105   -0.197925   -1.007201
     25          1           0        4.634671   -0.400327    0.741185
     26          1           0        2.549247   -1.469806   -1.223554
     27          1           0        2.492841   -1.672020    0.523881
     28          1           0        4.654426   -2.959932    0.449652
     29          1           0        4.711153   -2.756569   -1.307710
     30          1           0        3.425582   -3.727494   -0.570200
     31          6           0        3.158429    0.964642   -0.035846
     32          6           0        3.988383    2.236993    0.138182
     33          6           0        3.125835    3.493962    0.255797
     34          1           0        2.530328    1.064614   -0.931887
     35          1           0        2.472893    0.862210    0.816500
     36          1           0        4.672157    2.336306   -0.714581
     37          1           0        4.615751    2.134092    1.032853
     38          1           0        2.453846    3.420854    1.117009
     39          1           0        2.510573    3.624218   -0.640353
     40          1           0        3.739416    4.391779    0.379499
 ---------------------------------------------------------------------

 SCF Done:  E(RHF) =  -470.733255984     A.U. after   11 cycles
 E2 =    -0.1582625697D+01 EUMP2 =    -0.47231588168142D+03

 The electronic state is 1-A.
 Alpha  occ. eigenvalues --  -11.21626 -11.21617 -11.21581 -11.21548 -11.21425
 Alpha  occ. eigenvalues --  -11.21372 -11.21365 -11.21312 -11.21089 -11.21087
 Alpha  occ. eigenvalues --  -11.21055 -11.20965  -1.08455  -1.08392  -1.03560
 Alpha  occ. eigenvalues --   -1.03482  -0.96000  -0.95937  -0.87027  -0.86947
 Alpha  occ. eigenvalues --   -0.79659  -0.79521  -0.78272  -0.78207  -0.65088
 Alpha  occ. eigenvalues --   -0.65023  -0.60964  -0.60883  -0.59502  -0.59198
 Alpha  occ. eigenvalues --   -0.57662  -0.57494  -0.55283  -0.55226  -0.52754
 Alpha  occ. eigenvalues --   -0.52621  -0.52431  -0.52336  -0.49939  -0.49880
 Alpha  occ. eigenvalues --   -0.48050  -0.47752  -0.46650  -0.46583  -0.45798
 Alpha  occ. eigenvalues --   -0.45755  -0.45723  -0.45673  -0.43823  -0.43674
 Alpha virt. eigenvalues --    0.21909   0.23121   0.23656   0.24569   0.26335
 Alpha virt. eigenvalues --    0.26676   0.26750   0.27538   0.27963   0.29051
 Alpha virt. eigenvalues --    0.30398   0.31354   0.31466   0.31904   0.32023

 Mulliken charges:
               1
     1  C   -0.298214
     2  C   -0.299598
     3  C   -0.475684
     4  H    0.149662
     5  H    0.149371
     6  H    0.151867
     7  H    0.151877
     8  H    0.155116
     9  H    0.155178
    10  H    0.160173
    11  C   -0.298319
    12  C   -0.298881
    13  C   -0.484509
    14  H    0.149299
    15  H    0.149500
    16  H    0.152267
    17  H    0.151441
    18  H    0.154551
    19  H    0.153893
    20  H    0.169810
    21  C   -0.297569
    22  C   -0.306062
    23  C   -0.475506
    24  H    0.149759
    25  H    0.149574
    26  H    0.152224
    27  H    0.157468
    28  H    0.155321
    29  H    0.155287
    30  H    0.160638
    31  C   -0.298882
    32  C   -0.299625
    33  C   -0.475726
    34  H    0.149820
    35  H    0.149843
    36  H    0.152046
    37  H    0.151978
    38  H    0.155011
    39  H    0.155267
    40  H    0.160332
 Sum of Mulliken charges =  -0.00000

 Dipole moment (field-independent basis, Debye):
    X=              0.0469    Y=              0.0007    Z=             -0.0083  Tot=              0.0477
 Quadrupole moment (field-independent basis, Debye-Ang):
   XX=            -85.5066   YY=            -85.7770   ZZ=            -83.4918
   XY=              1.1142   XZ=             -0.1297   YZ=              0.6393

 Normal termination of Gaussian 16 at Thu May  6 11:31:28 2021.
