 Gaussian 16, Revision A.03,
 Gaussian 16:  EM64L-G16RevA.03 25-Dec-2016

 -------------
 #p 6-31g* mp2
 -------------

 ------------------------------------------------------
 Input file generated by CHIRIPA (05-May-2021 14:51:14)
 ------------------------------------------------------
 Symbolic Z-matrix:
 Charge =  0 Multiplicity = 1

                         Standard orientation:
 ---------------------------------------------------------------------
 Center     Atomic      Atomic             Coordinates (Angstroms)
 Number     Number       Type             X           Y           Z
 ---------------------------------------------------------------------
      1          6           0        2.413026    0.747796   -0.301492
      2          6           0        2.695659    2.249881   -0.344444
      3          6           0        1.426586    3.093918   -0.222591
      4          1           0        1.719115    0.488369   -1.112744
      5          1           0        1.899109    0.505207    0.638952
      6          1           0        3.210125    2.489349   -1.283910
      7          1           0        3.389128    2.505731    0.466887
      8          1           0        0.913495    2.884012    0.721484
      9          1           0        0.733475    2.867536   -1.039260
     10          1           0        1.651730    4.164469   -0.255627
     11          6           0        3.671877   -0.109208   -0.422179
     12          6           0        3.389243   -1.611293   -0.379227
     13          6           0        4.658317   -2.455330   -0.501080
     14          1           0        4.185793    0.133381   -1.362623
     15          1           0        4.365787    0.150220    0.389073
     16          1           0        2.695775   -1.867143   -1.190558
     17          1           0        2.874778   -1.850760    0.560239
     18          1           0        5.351428   -2.228948    0.315589
     19          1           0        5.171408   -2.245423   -1.445155
     20          1           0        4.433172   -3.525880   -0.468044
     21          6           0       -2.703785   -0.198182    1.035681
     22          6           0       -1.200253   -0.475741    1.017247
     23          6           0       -0.536888   -0.228925    2.372541
     24          1           0       -2.874397    0.842084    1.345006
     25          1           0       -3.177375   -0.832545    1.797712
     26          1           0       -0.729836    0.157957    0.254521
     27          1           0       -1.033192   -1.515411    0.707744
     28          1           0       -0.979219   -0.871509    3.140675
     29          1           0       -0.674141    0.811368    2.684877
     30          1           0        0.537707   -0.433432    2.336727
     31          6           0       -3.381118   -0.440407   -0.312010
     32          6           0       -4.884649   -0.162848   -0.293576
     33          6           0       -5.548014   -0.409664   -1.648870
     34          1           0       -2.907527    0.193956   -1.074041
     35          1           0       -3.210505   -1.480673   -0.621336
     36          1           0       -5.051711    0.876823    0.015926
     37          1           0       -5.355066   -0.796546    0.469149
     38          1           0       -5.410762   -1.449957   -1.961206
     39          1           0       -5.105682    0.232921   -2.417004
     40          1           0       -6.622609   -0.205156   -1.613056
 ---------------------------------------------------------------------

 SCF Done:  E(RHF) =  -470.732770648     A.U. after   11 cycles
 E2 =    -0.1584024729D+01 EUMP2 =    -0.47231679537714D+03

 The electronic state is 1-A.
 Alpha  occ. eigenvalues --  -11.21609 -11.21608 -11.21582 -11.21513 -11.21385
 Alpha  occ. eigenvalues --  -11.21373 -11.21312 -11.21308 -11.21113 -11.21089
 Alpha  occ. eigenvalues --  -11.21074 -11.21059  -1.08456  -1.08377  -1.03559
 Alpha  occ. eigenvalues --   -1.03491  -0.96014  -0.95949  -0.87016  -0.86980
 Alpha  occ. eigenvalues --   -0.79625  -0.79551  -0.78354  -0.78108  -0.65110
 Alpha  occ. eigenvalues --   -0.65004  -0.61002  -0.60855  -0.59421  -0.59297
 Alpha  occ. eigenvalues --   -0.57737  -0.57459  -0.55278  -0.55259  -0.52732
 Alpha  occ. eigenvalues --   -0.52661  -0.52469  -0.52320  -0.49929  -0.49909
 Alpha  occ. eigenvalues --   -0.47988  -0.47847  -0.46657  -0.46606  -0.45962
 Alpha  occ. eigenvalues --   -0.45728  -0.45656  -0.45412  -0.43790  -0.43747
 Alpha virt. eigenvalues --    0.20616   0.22832   0.23670   0.24177   0.25869
 Alpha virt. eigenvalues --    0.26205   0.26647   0.27806   0.28099   0.29547
 Alpha virt. eigenvalues --    0.31085   0.31281   0.31651   0.31854   0.32144

 Mulliken charges:
               1
     1  C   -0.307808
     2  C   -0.298896
     3  C   -0.477584
     4  H    0.150033
     5  H    0.160623
     6  H    0.151783
     7  H    0.151830
     8  H    0.156524
     9  H    0.154547
    10  H    0.160529
    11  C   -0.297797
    12  C   -0.300347
    13  C   -0.475677
    14  H    0.149408
    15  H    0.149309
    16  H    0.152333
    17  H    0.151801
    18  H    0.155168
    19  H    0.155296
    20  H    0.160254
    21  C   -0.298096
    22  C   -0.303900
    23  C   -0.479545
    24  H    0.149576
    25  H    0.149112
    26  H    0.158424
    27  H    0.151764
    28  H    0.155747
    29  H    0.154882
    30  H    0.161072
    31  C   -0.298142
    32  C   -0.299631
    33  C   -0.475687
    34  H    0.149273
    35  H    0.149523
    36  H    0.152014
    37  H    0.151890
    38  H    0.155096
    39  H    0.155088
    40  H    0.160211
 Sum of Mulliken charges =  -0.00000

 Dipole moment (field-independent basis, Debye):
    X=              0.0139    Y=              0.0036    Z=             -0.0045  Tot=              0.0150
 Quadrupole moment (field-independent basis, Debye-Ang):
   XX=            -85.9185   YY=            -84.4243   ZZ=            -84.5610
   XY=              0.6996   XZ=             -0.4146   YZ=             -0.4035

 Normal termination of Gaussian 16 at Thu May  6 02:25:45 2021.
