 Gaussian 16, Revision A.03,
 Gaussian 16:  EM64L-G16RevA.03 25-Dec-2016

 -------------
 #p 6-31g* mp2
 -------------

 ------------------------------------------------------
 Input file generated by CHIRIPA (05-May-2021 14:53:11)
 ------------------------------------------------------
 Symbolic Z-matrix:
 Charge =  0 Multiplicity = 1

                         Standard orientation:
 ---------------------------------------------------------------------
 Center     Atomic      Atomic             Coordinates (Angstroms)
 Number     Number       Type             X           Y           Z
 ---------------------------------------------------------------------
      1          6           0        3.813219   -0.325887    0.306110
      2          6           0        2.918638   -1.487117   -0.128926
      3          6           0        1.496630   -1.376403    0.421919
      4          1           0        3.845554   -0.287481    1.403573
      5          1           0        3.362700    0.619488   -0.026595
      6          1           0        3.371415   -2.430111    0.203297
      7          1           0        2.888583   -1.522881   -1.225481
      8          1           0        1.021886   -0.451143    0.079700
      9          1           0        1.507462   -1.363528    1.516596
     10          1           0        0.874319   -2.216695    0.098659
     11          6           0        5.237939   -0.422417   -0.236644
     12          6           0        6.132520    0.738812    0.198392
     13          6           0        7.554528    0.628098   -0.352453
     14          1           0        5.688459   -1.367793    0.096061
     15          1           0        5.205604   -0.460823   -1.334107
     16          1           0        6.162575    0.774576    1.294947
     17          1           0        5.679743    1.681806   -0.133831
     18          1           0        7.543696    0.615223   -1.447130
     19          1           0        8.029272   -0.297162   -0.010234
     20          1           0        8.176840    1.468390   -0.029193
     21          6           0       -5.173137   -1.624873   -0.121188
     22          6           0       -5.638129   -0.305751   -0.136070
     23          6           0       -4.739909    0.764330   -0.084363
     24          6           0       -3.377299    0.477652   -0.018042
     25          6           0       -2.883077   -0.825714   -0.001599
     26          6           0       -3.799517   -1.880194   -0.054118
     27          1           0       -5.877973   -2.450077   -0.161671
     28          1           0       -6.704350   -0.104479   -0.188111
     29          1           0       -5.072592    1.795173   -0.094457
     30          1           0       -1.814405   -0.994879    0.050769
     31          1           0       -3.435536   -2.903632   -0.042411
     32          7           0       -2.416749    1.602241    0.037128
     33          8           0       -1.221193    1.323106    0.095142
     34          8           0       -2.877614    2.741535    0.021311
 ---------------------------------------------------------------------

 SCF Done:  E(RHF) =  -669.536122649     A.U. after   15 cycles
 E2 =    -0.2091177667D+01 EUMP2 =    -0.67162730031619D+03

 The electronic state is 1-A.
 Alpha  occ. eigenvalues --  -20.60842 -20.60831 -15.85887 -11.31189 -11.27766
 Alpha  occ. eigenvalues --  -11.27725 -11.27506 -11.26772 -11.26754 -11.21218
 Alpha  occ. eigenvalues --  -11.21202 -11.20980 -11.20863 -11.20741 -11.20611
 Alpha  occ. eigenvalues --   -1.59909  -1.39465  -1.19363  -1.08773  -1.08001
 Alpha  occ. eigenvalues --   -1.04757  -1.03131  -0.95643  -0.95557  -0.86610
 Alpha  occ. eigenvalues --   -0.86157  -0.82452  -0.79204  -0.77809  -0.77488
 Alpha  occ. eigenvalues --   -0.72117  -0.71225  -0.70474  -0.65023  -0.64767
 Alpha  occ. eigenvalues --   -0.64622  -0.62108  -0.60512  -0.58976  -0.57192
 Alpha  occ. eigenvalues --   -0.55271  -0.54839  -0.53094  -0.52875  -0.52304
 Alpha  occ. eigenvalues --   -0.51989  -0.49523  -0.48858  -0.48832  -0.47490
 Alpha  occ. eigenvalues --   -0.46199  -0.45350  -0.45249  -0.44882  -0.43405
 Alpha  occ. eigenvalues --   -0.37350  -0.36359
 Alpha virt. eigenvalues --    0.05029   0.11293   0.16529   0.20993   0.23311
 Alpha virt. eigenvalues --    0.24406   0.26137   0.27129   0.27676   0.28005
 Alpha virt. eigenvalues --    0.29338   0.30637   0.31591   0.31950   0.32203

 Mulliken charges:
               1
     1  C   -0.299556
     2  C   -0.298471
     3  C   -0.489722
     4  H    0.149312
     5  H    0.157040
     6  H    0.148331
     7  H    0.150878
     8  H    0.183649
     9  H    0.154759
    10  H    0.145178
    11  C   -0.298173
    12  C   -0.299720
    13  C   -0.475519
    14  H    0.147420
    15  H    0.149023
    16  H    0.151695
    17  H    0.154105
    18  H    0.154750
    19  H    0.153928
    20  H    0.159824
    21  C   -0.170320
    22  C   -0.219027
    23  C   -0.170414
    24  C    0.156423
    25  C   -0.174742
    26  C   -0.220664
    27  H    0.225586
    28  H    0.223379
    29  H    0.275431
    30  H    0.285233
    31  H    0.223827
    32  N    0.493445
    33  O   -0.467018
    34  O   -0.459871
 Sum of Mulliken charges =  -0.00000

 Dipole moment (field-independent basis, Debye):
    X=             -3.4600    Y=             -3.8009    Z=             -0.1975  Tot=              5.1437
 Quadrupole moment (field-independent basis, Debye-Ang):
   XX=            -70.6627   YY=            -96.8995   ZZ=            -95.1278
   XY=              9.2746   XZ=              1.4662   YZ=             -0.5470

 Normal termination of Gaussian 16 at Thu May  6 02:29:28 2021.
