 Gaussian 16, Revision A.03,
 Gaussian 16:  EM64L-G16RevA.03 25-Dec-2016

 -------------
 #p 6-31g* mp2
 -------------

 ------------------------------------------------------
 Input file generated by CHIRIPA (05-May-2021 14:51:10)
 ------------------------------------------------------
 Symbolic Z-matrix:
 Charge =  0 Multiplicity = 1

                         Standard orientation:
 ---------------------------------------------------------------------
 Center     Atomic      Atomic             Coordinates (Angstroms)
 Number     Number       Type             X           Y           Z
 ---------------------------------------------------------------------
      1          6           0       -3.971642   -0.055527    0.324613
      2          6           0       -4.575163    0.633281   -0.899843
      3          6           0       -6.084363    0.844495   -0.775363
      4          1           0       -4.467793   -1.024242    0.474180
      5          1           0       -4.186049    0.546752    1.218305
      6          1           0       -4.358489    0.030586   -1.791150
      7          1           0       -4.077385    1.600384   -1.046626
      8          1           0       -6.315938    1.464606    0.096667
      9          1           0       -6.598639   -0.114111   -0.652087
     10          1           0       -6.495070    1.338334   -1.661536
     11          6           0       -2.463608   -0.273646    0.215131
     12          6           0       -1.860088   -0.962453    1.439587
     13          6           0       -0.350887   -1.173668    1.315107
     14          1           0       -2.249201   -0.875924   -0.678561
     15          1           0       -1.967457    0.695069    0.065564
     16          1           0       -2.357865   -1.929557    1.586370
     17          1           0       -2.076761   -0.359759    2.330894
     18          1           0        0.163389   -0.215062    1.191831
     19          1           0       -0.119312   -1.793779    0.443077
     20          1           0        0.059820   -1.667507    2.201279
     21          6           0        3.370951   -0.557454   -0.073451
     22          6           0        2.764189   -1.587187   -1.027114
     23          6           0        3.079655   -3.027073   -0.620906
     24          1           0        4.459734   -0.699079   -0.035531
     25          1           0        2.996000   -0.743313    0.942552
     26          1           0        3.139097   -1.398582   -2.041258
     27          1           0        1.676744   -1.442970   -1.062917
     28          1           0        2.690825   -3.238864    0.380371
     29          1           0        4.161487   -3.194225   -0.603529
     30          1           0        2.636311   -3.746674   -1.316233
     31          6           0        3.064299    0.886627   -0.466292
     32          6           0        3.671062    1.916361    0.487370
     33          6           0        3.355595    3.356245    0.081162
     34          1           0        3.439251    1.072486   -1.482296
     35          1           0        1.975516    1.028252   -0.504213
     36          1           0        4.758506    1.772143    0.523173
     37          1           0        3.296153    1.727756    1.501514
     38          1           0        2.273763    3.523397    0.063785
     39          1           0        3.744425    3.568037   -0.920115
     40          1           0        3.798939    4.075846    0.776490
 ---------------------------------------------------------------------

 SCF Done:  E(RHF) =  -470.732813986     A.U. after   11 cycles
 E2 =    -0.1583722186D+01 EUMP2 =    -0.47231653617156D+03

 The electronic state is 1-A.
 Alpha  occ. eigenvalues --  -11.21677 -11.21636 -11.21571 -11.21468 -11.21456
 Alpha  occ. eigenvalues --  -11.21404 -11.21330 -11.21250 -11.21164 -11.21097
 Alpha  occ. eigenvalues --  -11.21061 -11.20991  -1.08496  -1.08352  -1.03605
 Alpha  occ. eigenvalues --   -1.03455  -0.96050  -0.95919  -0.87081  -0.86925
 Alpha  occ. eigenvalues --   -0.79676  -0.79520  -0.78311  -0.78162  -0.65123
 Alpha  occ. eigenvalues --   -0.65008  -0.61099  -0.60796  -0.59425  -0.59280
 Alpha  occ. eigenvalues --   -0.57645  -0.57528  -0.55506  -0.55048  -0.52739
 Alpha  occ. eigenvalues --   -0.52626  -0.52468  -0.52344  -0.50006  -0.49846
 Alpha  occ. eigenvalues --   -0.48065  -0.47792  -0.46787  -0.46437  -0.45952
 Alpha  occ. eigenvalues --   -0.45762  -0.45650  -0.45492  -0.43841  -0.43715
 Alpha virt. eigenvalues --    0.20517   0.22977   0.23512   0.24563   0.25986
 Alpha virt. eigenvalues --    0.26546   0.26875   0.27733   0.27945   0.29588
 Alpha virt. eigenvalues --    0.30625   0.30884   0.31795   0.32132   0.32286

 Mulliken charges:
               1
     1  C   -0.298290
     2  C   -0.299724
     3  C   -0.475757
     4  H    0.149864
     5  H    0.149681
     6  H    0.152077
     7  H    0.152028
     8  H    0.155235
     9  H    0.155243
    10  H    0.160424
    11  C   -0.298437
    12  C   -0.300362
    13  C   -0.481964
    14  H    0.149482
    15  H    0.149209
    16  H    0.152376
    17  H    0.152099
    18  H    0.157952
    19  H    0.160361
    20  H    0.160213
    21  C   -0.299490
    22  C   -0.302777
    23  C   -0.476935
    24  H    0.149112
    25  H    0.152557
    26  H    0.151083
    27  H    0.156199
    28  H    0.156288
    29  H    0.154940
    30  H    0.159224
    31  C   -0.300545
    32  C   -0.299878
    33  C   -0.475483
    34  H    0.149459
    35  H    0.150876
    36  H    0.152049
    37  H    0.151698
    38  H    0.154499
    39  H    0.155272
    40  H    0.160144
 Sum of Mulliken charges =  -0.00000

 Dipole moment (field-independent basis, Debye):
    X=             -0.0467    Y=             -0.0109    Z=              0.0192  Tot=              0.0517
 Quadrupole moment (field-independent basis, Debye-Ang):
   XX=            -85.3117   YY=            -85.2548   ZZ=            -84.3440
   XY=              0.6086   XZ=             -0.4344   YZ=              0.5331

 Normal termination of Gaussian 16 at Thu May  6 02:13:09 2021.
