 Gaussian 16, Revision A.03,
 Gaussian 16:  EM64L-G16RevA.03 25-Dec-2016

 -------------
 #p 6-31g* mp2
 -------------

 ------------------------------------------------------
 Input file generated by CHIRIPA (05-May-2021 14:53:16)
 ------------------------------------------------------
 Symbolic Z-matrix:
 Charge =  0 Multiplicity = 1

                         Standard orientation:
 ---------------------------------------------------------------------
 Center     Atomic      Atomic             Coordinates (Angstroms)
 Number     Number       Type             X           Y           Z
 ---------------------------------------------------------------------
      1          6           0       -3.128063   -0.324907   -0.410492
      2          6           0       -1.876542   -0.381446    0.466141
      3          6           0       -0.596045   -0.585756   -0.344030
      4          1           0       -3.203953   -1.254768   -0.990616
      5          1           0       -3.020208    0.490294   -1.139333
      6          1           0       -1.987321   -1.195413    1.194015
      7          1           0       -1.803727    0.548578    1.044388
      8          1           0       -0.458258    0.231488   -1.059381
      9          1           0       -0.642896   -1.522412   -0.908904
     10          1           0        0.286342   -0.623187    0.302386
     11          6           0       -4.416219   -0.121049    0.385011
     12          6           0       -5.667740   -0.064510   -0.491621
     13          6           0       -6.948237    0.139801    0.318549
     14          1           0       -4.524074   -0.936250    1.113852
     15          1           0       -4.340329    0.808812    0.965135
     16          1           0       -5.740555   -0.994534   -1.069868
     17          1           0       -5.556961    0.749457   -1.219496
     18          1           0       -6.901386    1.076456    0.883423
     19          1           0       -7.086023   -0.677444    1.033901
     20          1           0       -7.830624    0.177232   -0.327866
     21          6           0        2.353117    2.625692   -0.048652
     22          6           0        2.579406    1.989353    1.176249
     23          6           0        2.909069    0.631452    1.220699
     24          6           0        3.004398   -0.062799    0.015619
     25          6           0        2.784796    0.542986   -1.220540
     26          6           0        2.456353    1.901755   -1.241035
     27          1           0        2.097500    3.680879   -0.073878
     28          1           0        2.499928    2.549072    2.103850
     29          1           0        3.089421    0.113922    2.155073
     30          1           0        2.871359   -0.041309   -2.128573
     31          1           0        2.281155    2.393335   -2.193768
     32          7           0        3.352752   -1.500808    0.049996
     33          8           0        3.430544   -2.090207   -1.025732
     34          8           0        3.541403   -2.011291    1.152019
 ---------------------------------------------------------------------

 SCF Done:  E(RHF) =  -669.534052138     A.U. after   15 cycles
 E2 =    -0.2093571087D+01 EUMP2 =    -0.67162762322524D+03

 The electronic state is 1-A.
 Alpha  occ. eigenvalues --  -20.60770 -20.60764 -15.85816 -11.31145 -11.27767
 Alpha  occ. eigenvalues --  -11.27743 -11.27541 -11.26814 -11.26797 -11.21657
 Alpha  occ. eigenvalues --  -11.21564 -11.21439 -11.21374 -11.21131 -11.20891
 Alpha  occ. eigenvalues --   -1.59844  -1.39397  -1.19388  -1.08779  -1.08448
 Alpha  occ. eigenvalues --   -1.04790  -1.03528  -0.95984  -0.95602  -0.87006
 Alpha  occ. eigenvalues --   -0.86186  -0.82440  -0.79608  -0.78269  -0.77479
 Alpha  occ. eigenvalues --   -0.72042  -0.71181  -0.70492  -0.65083  -0.65035
 Alpha  occ. eigenvalues --   -0.64796  -0.62134  -0.60931  -0.59413  -0.57619
 Alpha  occ. eigenvalues --   -0.55309  -0.55294  -0.53602  -0.52882  -0.52417
 Alpha  occ. eigenvalues --   -0.52120  -0.49883  -0.48801  -0.48795  -0.47924
 Alpha  occ. eigenvalues --   -0.46627  -0.45809  -0.45738  -0.44797  -0.43797
 Alpha  occ. eigenvalues --   -0.37282  -0.36360
 Alpha virt. eigenvalues --    0.05043   0.11179   0.16506   0.21383   0.22838
 Alpha virt. eigenvalues --    0.24300   0.26617   0.27205   0.27513   0.27878
 Alpha virt. eigenvalues --    0.28349   0.30728   0.31410   0.31842   0.31856

 Mulliken charges:
               1
     1  C   -0.298335
     2  C   -0.299021
     3  C   -0.478878
     4  H    0.151411
     5  H    0.146643
     6  H    0.153966
     7  H    0.147876
     8  H    0.150650
     9  H    0.159145
    10  H    0.162195
    11  C   -0.298046
    12  C   -0.299536
    13  C   -0.475647
    14  H    0.150680
    15  H    0.147800
    16  H    0.152887
    17  H    0.150682
    18  H    0.154299
    19  H    0.155865
    20  H    0.160272
    21  C   -0.171051
    22  C   -0.215878
    23  C   -0.174639
    24  C    0.158184
    25  C   -0.166724
    26  C   -0.217613
    27  H    0.225619
    28  H    0.223629
    29  H    0.275651
    30  H    0.275789
    31  H    0.223465
    32  N    0.489988
    33  O   -0.460250
    34  O   -0.461077
 Sum of Mulliken charges =  -0.00000

 Dipole moment (field-independent basis, Debye):
    X=             -1.1531    Y=              5.0513    Z=             -0.1447  Tot=              5.1832
 Quadrupole moment (field-independent basis, Debye-Ang):
   XX=           -104.1539   YY=            -94.9414   ZZ=            -89.9789
   XY=             15.8625   XZ=              0.2741   YZ=              0.1575

 Normal termination of Gaussian 16 at Thu May  6 05:57:18 2021.
