 Gaussian 16, Revision A.03,
 Gaussian 16:  EM64L-G16RevA.03 25-Dec-2016

 -------------
 #p 6-31g* mp2
 -------------

 ------------------------------------------------------
 Input file generated by CHIRIPA (05-May-2021 14:53:11)
 ------------------------------------------------------
 Symbolic Z-matrix:
 Charge =  0 Multiplicity = 1

                         Standard orientation:
 ---------------------------------------------------------------------
 Center     Atomic      Atomic             Coordinates (Angstroms)
 Number     Number       Type             X           Y           Z
 ---------------------------------------------------------------------
      1          6           0        3.238742   -0.416924   -0.028613
      2          6           0        3.953738   -1.095769   -1.197345
      3          6           0        4.067672   -2.610311   -1.021340
      4          1           0        3.778072   -0.639782    0.902194
      5          1           0        2.235121   -0.850886    0.080088
      6          1           0        4.955201   -0.659690   -1.304681
      7          1           0        3.412752   -0.871111   -2.125504
      8          1           0        3.074930   -3.064050   -0.936567
      9          1           0        4.626144   -2.851427   -0.111080
     10          1           0        4.582035   -3.075317   -1.868134
     11          6           0        3.117068    1.097302   -0.189991
     12          6           0        2.402072    1.776148    0.978741
     13          6           0        2.288138    3.290690    0.802736
     14          1           0        4.120689    1.531265   -0.298692
     15          1           0        2.577738    1.320161   -1.120798
     16          1           0        2.943058    1.551490    1.906900
     17          1           0        1.400608    1.340069    1.086077
     18          1           0        1.729666    3.531806   -0.107524
     19          1           0        3.280880    3.744428    0.717963
     20          1           0        1.773775    3.755696    1.649530
     21          6           0       -1.496500   -2.173320    1.409977
     22          6           0       -2.663297   -2.368876    0.663744
     23          6           0       -3.218608   -1.319115   -0.073941
     24          6           0       -2.578084   -0.081359   -0.042664
     25          6           0       -1.414554    0.144818    0.691047
     26          6           0       -0.876944   -0.919308    1.421227
     27          1           0       -1.071997   -2.994378    1.980113
     28          1           0       -3.146602   -3.341681    0.653151
     29          1           0       -4.121001   -1.442857   -0.660279
     30          1           0       -0.955426    1.125908    0.682049
     31          1           0        0.029300   -0.764537    1.999856
     32          7           0       -3.156597    1.037580   -0.819645
     33          8           0       -2.573169    2.118462   -0.775577
     34          8           0       -4.182509    0.812534   -1.457999
 ---------------------------------------------------------------------

 SCF Done:  E(RHF) =  -669.535398511     A.U. after   15 cycles
 E2 =    -0.2092571058D+01 EUMP2 =    -0.67162796956944D+03

 The electronic state is 1-A.
 Alpha  occ. eigenvalues --  -20.60791 -20.60786 -15.85844 -11.31208 -11.27785
 Alpha  occ. eigenvalues --  -11.27764 -11.27521 -11.26795 -11.26766 -11.22261
 Alpha  occ. eigenvalues --  -11.21991 -11.21890 -11.21804 -11.21479 -11.21362
 Alpha  occ. eigenvalues --   -1.59866  -1.39420  -1.19386  -1.08915  -1.08776
 Alpha  occ. eigenvalues --   -1.04793  -1.03979  -0.96392  -0.95613  -0.87407
 Alpha  occ. eigenvalues --   -0.86182  -0.82454  -0.80068  -0.78764  -0.77480
 Alpha  occ. eigenvalues --   -0.72063  -0.71190  -0.70502  -0.65572  -0.65028
 Alpha  occ. eigenvalues --   -0.64787  -0.62217  -0.61296  -0.59762  -0.58021
 Alpha  occ. eigenvalues --   -0.55669  -0.55284  -0.53134  -0.53071  -0.52883
 Alpha  occ. eigenvalues --   -0.52797  -0.50322  -0.48821  -0.48819  -0.48365
 Alpha  occ. eigenvalues --   -0.47100  -0.46269  -0.46188  -0.44825  -0.44228
 Alpha  occ. eigenvalues --   -0.37362  -0.36372
 Alpha virt. eigenvalues --    0.05020   0.11207   0.16399   0.19876   0.22834
 Alpha virt. eigenvalues --    0.23604   0.25185   0.26325   0.27188   0.28236
 Alpha virt. eigenvalues --    0.29265   0.30863   0.31214   0.31628   0.32152

 Mulliken charges:
               1
     1  C   -0.302263
     2  C   -0.299819
     3  C   -0.476067
     4  H    0.147591
     5  H    0.147523
     6  H    0.153615
     7  H    0.155128
     8  H    0.153612
     9  H    0.154189
    10  H    0.162363
    11  C   -0.298414
    12  C   -0.305061
    13  C   -0.477622
    14  H    0.152481
    15  H    0.155052
    16  H    0.151805
    17  H    0.141944
    18  H    0.163574
    19  H    0.157471
    20  H    0.161416
    21  C   -0.171633
    22  C   -0.218755
    23  C   -0.170614
    24  C    0.159812
    25  C   -0.177326
    26  C   -0.220485
    27  H    0.226158
    28  H    0.223656
    29  H    0.275698
    30  H    0.280159
    31  H    0.227376
    32  N    0.488457
    33  O   -0.460714
    34  O   -0.460308
 Sum of Mulliken charges =  -0.00000

 Dipole moment (field-independent basis, Debye):
    X=              2.1160    Y=             -3.8625    Z=              2.6418  Tot=              5.1357
 Quadrupole moment (field-independent basis, Debye-Ang):
   XX=           -101.7845   YY=            -93.4898   ZZ=            -94.9720
   XY=             13.2323   XZ=             -5.7057   YZ=              0.9292

 Normal termination of Gaussian 16 at Thu May  6 04:03:48 2021.
