 Gaussian 16, Revision A.03,
 Gaussian 16:  EM64L-G16RevA.03 25-Dec-2016

 -------------
 #p 6-31g* mp2
 -------------

 ------------------------------------------------------
 Input file generated by CHIRIPA (05-May-2021 14:53:14)
 ------------------------------------------------------
 Symbolic Z-matrix:
 Charge =  0 Multiplicity = 1

                         Standard orientation:
 ---------------------------------------------------------------------
 Center     Atomic      Atomic             Coordinates (Angstroms)
 Number     Number       Type             X           Y           Z
 ---------------------------------------------------------------------
      1          6           0        2.594511    1.260012   -0.663134
      2          6           0        1.363824    2.106293   -0.335715
      3          6           0        1.078473    3.169822   -1.396505
      4          1           0        3.467370    1.918859   -0.767935
      5          1           0        2.449137    0.776191   -1.638930
      6          1           0        1.510891    2.587275    0.639808
      7          1           0        0.493831    1.445335   -0.231492
      8          1           0        0.905669    2.704155   -2.372155
      9          1           0        1.928507    3.852583   -1.495905
     10          1           0        0.194606    3.763211   -1.142482
     11          6           0        2.892701    0.192383    0.388045
     12          6           0        4.123388   -0.653898    0.060626
     13          6           0        4.408739   -1.717427    1.121416
     14          1           0        3.038075    0.676204    1.363842
     15          1           0        2.019842   -0.466465    0.492846
     16          1           0        4.993381    0.007060   -0.043596
     17          1           0        3.976322   -1.134880   -0.914896
     18          1           0        3.558705   -2.400188    1.220816
     19          1           0        4.581543   -1.251760    2.097067
     20          1           0        5.292606   -2.310816    0.867393
     21          6           0       -3.387269    1.328771    1.213609
     22          6           0       -3.959458    0.654013    0.130178
     23          6           0       -3.279360   -0.398068   -0.490420
     24          6           0       -2.023194   -0.750651    0.000518
     25          6           0       -1.426633   -0.097716    1.078053
     26          6           0       -2.124910    0.951419    1.683260
     27          1           0       -3.922646    2.144909    1.689726
     28          1           0       -4.939679    0.944907   -0.236688
     29          1           0       -3.698970   -0.937512   -1.330864
     30          1           0       -0.447986   -0.410483    1.421337
     31          1           0       -1.678092    1.473656    2.524490
     32          7           0       -1.293583   -1.862883   -0.648335
     33          8           0       -0.188177   -2.154268   -0.196884
     34          8           0       -1.840937   -2.422203   -1.596069
 ---------------------------------------------------------------------

 SCF Done:  E(RHF) =  -669.535227061     A.U. after   15 cycles
 E2 =    -0.2094178822D+01 EUMP2 =    -0.67162940588312D+03

 The electronic state is 1-A.
 Alpha  occ. eigenvalues --  -20.60987 -20.60978 -15.86016 -11.31299 -11.27865
 Alpha  occ. eigenvalues --  -11.27841 -11.27593 -11.26856 -11.26840 -11.21491
 Alpha  occ. eigenvalues --  -11.21057 -11.21047 -11.21035 -11.20868 -11.20466
 Alpha  occ. eigenvalues --   -1.60047  -1.39605  -1.19480  -1.08881  -1.08075
 Alpha  occ. eigenvalues --   -1.04870  -1.03191  -0.95735  -0.95635  -0.86663
 Alpha  occ. eigenvalues --   -0.86270  -0.82564  -0.79302  -0.77994  -0.77531
 Alpha  occ. eigenvalues --   -0.72243  -0.71364  -0.70587  -0.65137  -0.64928
 Alpha  occ. eigenvalues --   -0.64616  -0.62208  -0.60589  -0.59046  -0.57262
 Alpha  occ. eigenvalues --   -0.55369  -0.54908  -0.53245  -0.52956  -0.52352
 Alpha  occ. eigenvalues --   -0.52069  -0.49591  -0.48996  -0.48986  -0.47606
 Alpha  occ. eigenvalues --   -0.46325  -0.45514  -0.45375  -0.44799  -0.43434
 Alpha  occ. eigenvalues --   -0.37446  -0.36374
 Alpha virt. eigenvalues --    0.04869   0.11108   0.16355   0.20994   0.23339
 Alpha virt. eigenvalues --    0.24604   0.25701   0.26954   0.27818   0.28250
 Alpha virt. eigenvalues --    0.29402   0.31012   0.31631   0.31968   0.32222

 Mulliken charges:
               1
     1  C   -0.296647
     2  C   -0.306557
     3  C   -0.474420
     4  H    0.147685
     5  H    0.154169
     6  H    0.144775
     7  H    0.155627
     8  H    0.157282
     9  H    0.155140
    10  H    0.156086
    11  C   -0.313662
    12  C   -0.297583
    13  C   -0.478115
    14  H    0.141113
    15  H    0.169967
    16  H    0.148180
    17  H    0.157528
    18  H    0.163938
    19  H    0.149965
    20  H    0.159046
    21  C   -0.170418
    22  C   -0.218556
    23  C   -0.170553
    24  C    0.157986
    25  C   -0.174524
    26  C   -0.217590
    27  H    0.226194
    28  H    0.223883
    29  H    0.275786
    30  H    0.281783
    31  H    0.225097
    32  N    0.490089
    33  O   -0.464021
    34  O   -0.458673
 Sum of Mulliken charges =  -0.00000

 Dipole moment (field-independent basis, Debye):
    X=             -2.7327    Y=              3.7316    Z=              2.2122  Tot=              5.1270
 Quadrupole moment (field-independent basis, Debye-Ang):
   XX=            -81.7873   YY=           -101.7555   ZZ=            -93.3555
   XY=             -5.3708   XZ=             -2.1975   YZ=             -0.2653

 Normal termination of Gaussian 16 at Wed May  5 20:13:29 2021.
