 Gaussian 16, Revision A.03,
 Gaussian 16:  EM64L-G16RevA.03 25-Dec-2016

 -------------
 #p 6-31g* mp2
 -------------

 ------------------------------------------------------
 Input file generated by CHIRIPA (05-May-2021 14:57:27)
 ------------------------------------------------------
 Symbolic Z-matrix:
 Charge =  0 Multiplicity = 1

                         Standard orientation:
 ---------------------------------------------------------------------
 Center     Atomic      Atomic             Coordinates (Angstroms)
 Number     Number       Type             X           Y           Z
 ---------------------------------------------------------------------
      1          6           0        5.558426    1.133524    0.556672
      2          6           0        5.241656   -0.166886    0.963013
      3          6           0        4.023990   -0.748283    0.597206
      4          6           0        3.142579    0.002684   -0.178972
      5          6           0        3.429365    1.300476   -0.599425
      6          6           0        4.652866    1.861770   -0.221877
      7          1           0        6.506604    1.577359    0.845400
      8          1           0        5.943001   -0.734800    1.567690
      9          1           0        3.753329   -1.753110    0.898011
     10          1           0        2.709939    1.841850   -1.201719
     11          1           0        4.896208    2.871885   -0.538890
     12          7           0        1.850402   -0.602174   -0.572450
     13          8           0        1.091008    0.080325   -1.256667
     14          8           0        1.621454   -1.747308   -0.189190
     15          6           0       -5.206166    1.598105    0.336620
     16          6           0       -4.605574    1.063353    1.481107
     17          6           0       -3.579309    0.120521    1.369777
     18          6           0       -3.176633   -0.266768    0.092612
     19          6           0       -3.755351    0.247715   -1.066562
     20          6           0       -4.779889    1.189299   -0.931327
     21          1           0       -6.002723    2.330035    0.432388
     22          1           0       -4.934588    1.378986    2.467094
     23          1           0       -3.096997   -0.309617    2.239131
     24          1           0       -3.405900   -0.086429   -2.035917
     25          1           0       -5.244498    1.602901   -1.821898
     26          7           0       -2.091087   -1.264242   -0.037902
     27          8           0       -1.754460   -1.588975   -1.174505
     28          8           0       -1.597418   -1.702442    0.998876
 ---------------------------------------------------------------------

 SCF Done:  E(RHF) =  -868.334442433     A.U. after   16 cycles
 E2 =    -0.2601867924D+01 EUMP2 =    -0.87093631035746D+03

 The electronic state is 1-A.
 Alpha  occ. eigenvalues --  -20.59653 -20.59521 -20.59144 -20.59013 -15.84664
 Alpha  occ. eigenvalues --  -15.84155 -11.30456 -11.30082 -11.27100 -11.27049
 Alpha  occ. eigenvalues --  -11.26903 -11.26744 -11.26691 -11.26586 -11.26203
 Alpha  occ. eigenvalues --  -11.26170 -11.25887 -11.25856  -1.58650  -1.58114
 Alpha  occ. eigenvalues --   -1.38200  -1.37672  -1.18669  -1.18309  -1.07983
 Alpha  occ. eigenvalues --   -1.07598  -1.04136  -1.03800  -0.94748  -0.94335
 Alpha  occ. eigenvalues --   -0.85514  -0.85173  -0.81582  -0.81188  -0.76555
 Alpha  occ. eigenvalues --   -0.76127  -0.70878  -0.70381  -0.70062  -0.69778
 Alpha  occ. eigenvalues --   -0.69424  -0.69400  -0.64311  -0.64143  -0.63953
 Alpha  occ. eigenvalues --   -0.63816  -0.61480  -0.61145  -0.54628  -0.54296
 Alpha  occ. eigenvalues --   -0.52444  -0.52235  -0.52097  -0.51907  -0.47875
 Alpha  occ. eigenvalues --   -0.47603  -0.47084  -0.46845  -0.43555  -0.42868
 Alpha  occ. eigenvalues --   -0.36676  -0.36319  -0.35760  -0.35430
 Alpha virt. eigenvalues --    0.05985   0.06437   0.11887   0.12218   0.17403
 Alpha virt. eigenvalues --    0.17824   0.21965   0.22249   0.27845   0.28117
 Alpha virt. eigenvalues --    0.28896   0.29195   0.31478   0.31748   0.33162

 Mulliken charges:
               1
     1  C   -0.172317
     2  C   -0.218624
     3  C   -0.171207
     4  C    0.159720
     5  C   -0.172245
     6  C   -0.218555
     7  H    0.222704
     8  H    0.221544
     9  H    0.277440
    10  H    0.273084
    11  H    0.220249
    12  N    0.486147
    13  O   -0.465302
    14  O   -0.442158
    15  C   -0.172986
    16  C   -0.218760
    17  C   -0.172769
    18  C    0.161854
    19  C   -0.169699
    20  C   -0.218958
    21  H    0.221063
    22  H    0.218990
    23  H    0.273016
    24  H    0.276931
    25  H    0.219860
    26  N    0.489481
    27  O   -0.444963
    28  O   -0.463538
 Sum of Mulliken charges =  -0.00000

 Dipole moment (field-independent basis, Debye):
    X=              0.8517    Y=              5.2551    Z=              1.6890  Tot=              5.5852
 Quadrupole moment (field-independent basis, Debye-Ang):
   XX=            -55.7961   YY=           -104.1625   ZZ=            -99.9067
   XY=             -4.7587   XZ=              3.3395   YZ=             -2.7095

 Normal termination of Gaussian 16 at Thu May  6 02:02:13 2021.
