 Gaussian 16, Revision A.03,
 Gaussian 16:  EM64L-G16RevA.03 25-Dec-2016

 -------------
 #p 6-31g* mp2
 -------------

 ------------------------------------------------------
 Input file generated by CHIRIPA (05-May-2021 14:57:22)
 ------------------------------------------------------
 Symbolic Z-matrix:
 Charge =  0 Multiplicity = 1

                         Standard orientation:
 ---------------------------------------------------------------------
 Center     Atomic      Atomic             Coordinates (Angstroms)
 Number     Number       Type             X           Y           Z
 ---------------------------------------------------------------------
      1          6           0        2.030029    2.684246    0.136959
      2          6           0        1.273390    1.619958   -0.364349
      3          6           0        1.839079    0.348724   -0.500386
      4          6           0        3.170171    0.176579   -0.123754
      5          6           0        3.949940    1.217031    0.378947
      6          6           0        3.363538    2.479746    0.506356
      7          1           0        1.582543    3.668462    0.239285
      8          1           0        0.237539    1.775853   -0.652022
      9          1           0        1.276177   -0.492791   -0.885628
     10          1           0        4.980107    1.030829    0.657340
     11          1           0        3.953551    3.304443    0.895978
     12          7           0        3.780005   -1.164711   -0.263204
     13          8           0        4.954741   -1.290368    0.075679
     14          8           0        3.071709   -2.064958   -0.708747
     15          6           0       -4.783053    1.341726   -0.535485
     16          6           0       -4.493185    1.104864    0.812251
     17          6           0       -3.545659    0.143542    1.176398
     18          6           0       -2.904019   -0.565795    0.162282
     19          6           0       -3.170998   -0.352738   -1.189242
     20          6           0       -4.122200    0.613453   -1.530177
     21          1           0       -5.520542    2.090396   -0.809347
     22          1           0       -5.004860    1.668947    1.586877
     23          1           0       -3.301995   -0.060066    2.212056
     24          1           0       -2.644576   -0.930889   -1.938935
     25          1           0       -4.345297    0.795283   -2.577656
     26          7           0       -1.898969   -1.586081    0.535501
     27          8           0       -1.347494   -2.197629   -0.376924
     28          8           0       -1.681718   -1.754913    1.733388
 ---------------------------------------------------------------------

 SCF Done:  E(RHF) =  -868.337518839     A.U. after   16 cycles
 E2 =    -0.2600068571D+01 EUMP2 =    -0.87093758740991D+03

 The electronic state is 1-A.
 Alpha  occ. eigenvalues --  -20.61274 -20.61250 -20.60026 -20.59970 -15.86299
 Alpha  occ. eigenvalues --  -15.85058 -11.31781 -11.30574 -11.28349 -11.28319
 Alpha  occ. eigenvalues --  -11.28071 -11.27362 -11.27344 -11.27228 -11.27099
 Alpha  occ. eigenvalues --  -11.27048 -11.26286 -11.26269  -1.60328  -1.59077
 Alpha  occ. eigenvalues --   -1.39877  -1.38621  -1.19951  -1.18793  -1.09317
 Alpha  occ. eigenvalues --   -1.08176  -1.05352  -1.04225  -0.96129  -0.94972
 Alpha  occ. eigenvalues --   -0.86739  -0.85618  -0.82948  -0.81805  -0.77992
 Alpha  occ. eigenvalues --   -0.76803  -0.72488  -0.71677  -0.71273  -0.71023
 Alpha  occ. eigenvalues --   -0.70403  -0.69911  -0.65582  -0.65330  -0.64453
 Alpha  occ. eigenvalues --   -0.64251  -0.62682  -0.61551  -0.55826  -0.54764
 Alpha  occ. eigenvalues --   -0.53704  -0.53423  -0.52549  -0.52320  -0.49261
 Alpha  occ. eigenvalues --   -0.49256  -0.48064  -0.48010  -0.45241  -0.43993
 Alpha  occ. eigenvalues --   -0.37939  -0.36972  -0.36813  -0.35834
 Alpha virt. eigenvalues --    0.04497   0.05733   0.10665   0.11816   0.15950
 Alpha virt. eigenvalues --    0.17163   0.20875   0.21825   0.26784   0.27380
 Alpha virt. eigenvalues --    0.27869   0.28795   0.30544   0.31321   0.32008

 Mulliken charges:
               1
     1  C   -0.170915
     2  C   -0.221636
     3  C   -0.173663
     4  C    0.158052
     5  C   -0.170592
     6  C   -0.219206
     7  H    0.221415
     8  H    0.218332
     9  H    0.288287
    10  H    0.274530
    11  H    0.220855
    12  N    0.487331
    13  O   -0.464536
    14  O   -0.452352
    15  C   -0.171700
    16  C   -0.219102
    17  C   -0.171589
    18  C    0.155833
    19  C   -0.176394
    20  C   -0.219335
    21  H    0.227153
    22  H    0.225120
    23  H    0.277699
    24  H    0.277285
    25  H    0.225348
    26  N    0.486342
    27  O   -0.458040
    28  O   -0.454522
 Sum of Mulliken charges =  -0.00000

 Dipole moment (field-independent basis, Debye):
    X=             -5.8916    Y=              8.0686    Z=             -0.7851  Tot=             10.0215
 Quadrupole moment (field-independent basis, Debye-Ang):
   XX=            -94.8788   YY=           -107.7526   ZZ=           -100.6758
   XY=              7.2798   XZ=              5.9271   YZ=              2.7202

 Normal termination of Gaussian 16 at Thu May  6 12:55:53 2021.
