 Gaussian 16, Revision A.03,
 Gaussian 16:  EM64L-G16RevA.03 25-Dec-2016

 -------------
 #p 6-31g* mp2
 -------------

 ------------------------------------------------------
 Input file generated by CHIRIPA (05-May-2021 14:55:19)
 ------------------------------------------------------
 Symbolic Z-matrix:
 Charge =  0 Multiplicity = 1

                         Standard orientation:
 ---------------------------------------------------------------------
 Center     Atomic      Atomic             Coordinates (Angstroms)
 Number     Number       Type             X           Y           Z
 ---------------------------------------------------------------------
      1          6           0       -0.673250   -1.251087    1.396100
      2          6           0       -1.718346   -1.991253    0.833562
      3          6           0       -2.771179   -1.347274    0.176766
      4          6           0       -2.746868    0.044459    0.100738
      5          6           0       -1.719846    0.809722    0.651091
      6          6           0       -0.677328    0.144578    1.303233
      7          1           0        0.140610   -1.759566    1.904507
      8          1           0       -1.717803   -3.075256    0.904158
      9          1           0       -3.592816   -1.895741   -0.267660
     10          1           0       -1.748040    1.889143    0.564638
     11          1           0        0.132991    0.721974    1.739171
     12          7           0       -3.855995    0.737414   -0.592118
     13          8           0       -3.811230    1.964516   -0.645524
     14          8           0       -4.749091    0.040328   -1.068654
     15          6           0        3.592863   -0.585970   -0.450729
     16          6           0        2.590757   -1.740517   -0.422596
     17          6           0        3.227654   -3.084838   -0.776091
     18          1           0        4.046676   -0.526992   -1.449489
     19          1           0        4.409931   -0.801637    0.251610
     20          1           0        1.775112   -1.522095   -1.123761
     21          1           0        2.139136   -1.796632    0.576156
     22          1           0        4.028582   -3.329008   -0.070756
     23          1           0        3.662489   -3.052911   -1.780331
     24          1           0        2.493518   -3.896145   -0.749908
     25          6           0        2.971157    0.764527   -0.099490
     26          6           0        3.973262    1.919074   -0.127624
     27          6           0        3.336365    3.263394    0.225871
     28          1           0        2.154088    0.980193   -0.801830
     29          1           0        2.517344    0.705549    0.899269
     30          1           0        4.424883    1.975190   -1.126375
     31          1           0        4.788907    1.700652    0.573541
     32          1           0        2.901530    3.231468    1.230111
     33          1           0        2.535438    3.507565   -0.479463
     34          1           0        4.070501    4.074703    0.199688
 ---------------------------------------------------------------------

 SCF Done:  E(RHF) =  -669.534401801     A.U. after   15 cycles
 E2 =    -0.2093202998D+01 EUMP2 =    -0.67162760479900D+03

 The electronic state is 1-A.
 Alpha  occ. eigenvalues --  -20.60725 -20.60720 -15.85779 -11.31125 -11.27705
 Alpha  occ. eigenvalues --  -11.27690 -11.27425 -11.26709 -11.26670 -11.22398
 Alpha  occ. eigenvalues --  -11.22263 -11.22200 -11.22110 -11.21793 -11.21698
 Alpha  occ. eigenvalues --   -1.59802  -1.39356  -1.19303  -1.09201  -1.08695
 Alpha  occ. eigenvalues --   -1.04701  -1.04255  -0.96699  -0.95542  -0.87713
 Alpha  occ. eigenvalues --   -0.86105  -0.82379  -0.80320  -0.79047  -0.77410
 Alpha  occ. eigenvalues --   -0.71998  -0.71126  -0.70442  -0.65849  -0.64952
 Alpha  occ. eigenvalues --   -0.64688  -0.62060  -0.61653  -0.60079  -0.58322
 Alpha  occ. eigenvalues --   -0.56000  -0.55224  -0.53404  -0.53159  -0.53021
 Alpha  occ. eigenvalues --   -0.52762  -0.50630  -0.48779  -0.48754  -0.48595
 Alpha  occ. eigenvalues --   -0.47343  -0.46563  -0.46453  -0.44766  -0.44516
 Alpha  occ. eigenvalues --   -0.37214  -0.36294
 Alpha virt. eigenvalues --    0.05096   0.11277   0.16511   0.19613   0.22800
 Alpha virt. eigenvalues --    0.22980   0.25156   0.26435   0.27141   0.27290
 Alpha virt. eigenvalues --    0.29185   0.30463   0.31100   0.31263   0.31971

 Mulliken charges:
               1
     1  C   -0.167135
     2  C   -0.220421
     3  C   -0.171181
     4  C    0.158286
     5  C   -0.172916
     6  C   -0.217432
     7  H    0.225467
     8  H    0.223039
     9  H    0.275286
    10  H    0.275589
    11  H    0.225934
    12  N    0.488053
    13  O   -0.460674
    14  O   -0.460737
    15  C   -0.298811
    16  C   -0.299909
    17  C   -0.475964
    18  H    0.153680
    19  H    0.149898
    20  H    0.158676
    21  H    0.140147
    22  H    0.155530
    23  H    0.159072
    24  H    0.158539
    25  C   -0.299535
    26  C   -0.300021
    27  C   -0.476556
    28  H    0.154498
    29  H    0.139218
    30  H    0.155477
    31  H    0.152722
    32  H    0.150556
    33  H    0.157500
    34  H    0.164123
 Sum of Mulliken charges =  -0.00000

 Dipole moment (field-independent basis, Debye):
    X=              4.0532    Y=             -2.4110    Z=              2.3009  Tot=              5.2474
 Quadrupole moment (field-independent basis, Debye-Ang):
   XX=           -115.6965   YY=            -92.1453   ZZ=            -93.8967
   XY=              9.5722   XZ=             -5.9957   YZ=              0.4307

 Normal termination of Gaussian 16 at Wed May  5 22:06:39 2021.
