 Gaussian 16, Revision A.03,
 Gaussian 16:  EM64L-G16RevA.03 25-Dec-2016

 -------------
 #p 6-31g* mp2
 -------------

 ------------------------------------------------------
 Input file generated by CHIRIPA (05-May-2021 14:51:09)
 ------------------------------------------------------
 Symbolic Z-matrix:
 Charge =  0 Multiplicity = 1

                         Standard orientation:
 ---------------------------------------------------------------------
 Center     Atomic      Atomic             Coordinates (Angstroms)
 Number     Number       Type             X           Y           Z
 ---------------------------------------------------------------------
      1          6           0       -3.728340   -0.559330   -0.328537
      2          6           0       -2.664730   -1.561998    0.120213
      3          6           0       -2.932977   -2.977371   -0.392189
      4          1           0       -4.713024   -0.897354    0.022293
      5          1           0       -3.773832   -0.550360   -1.426373
      6          1           0       -2.620293   -1.568063    1.216846
      7          1           0       -1.682439   -1.221448   -0.231562
      8          1           0       -2.956692   -2.992820   -1.486629
      9          1           0       -3.899876   -3.341404   -0.029992
     10          1           0       -2.160553   -3.677836   -0.059666
     11          6           0       -3.473995    0.860056    0.175824
     12          6           0       -4.537605    1.862723   -0.272925
     13          6           0       -4.269358    3.278097    0.239476
     14          1           0       -3.428503    0.851086    1.273660
     15          1           0       -2.489310    1.198080   -0.175006
     16          1           0       -5.519896    1.522173    0.078849
     17          1           0       -4.582041    1.868789   -1.369559
     18          1           0       -3.302459    3.642130   -0.122721
     19          1           0       -4.245642    3.293545    1.333917
     20          1           0       -5.041781    3.978562   -0.093047
     21          6           0        3.973610    0.502983    0.209993
     22          6           0        5.334433    0.577932   -0.483207
     23          6           0        6.067397    1.890901   -0.206317
     24          1           0        3.353685    1.347477   -0.120867
     25          1           0        4.114433    0.624041    1.293003
     26          1           0        5.191228    0.455384   -1.564453
     27          1           0        5.951120   -0.266948   -0.150804
     28          1           0        6.239395    2.017042    0.867511
     29          1           0        5.475185    2.743477   -0.554169
     30          1           0        7.037795    1.923216   -0.711433
     31          6           0        3.228725   -0.803709   -0.057281
     32          6           0        1.867902   -0.878657    0.635920
     33          6           0        1.134938   -2.191627    0.359029
     34          1           0        3.087902   -0.924767   -1.140290
     35          1           0        3.848649   -1.648203    0.273579
     36          1           0        1.251215   -0.033778    0.303517
     37          1           0        2.011106   -0.756109    1.717165
     38          1           0        1.727150   -3.044203    0.706882
     39          1           0        0.962940   -2.317767   -0.714798
     40          1           0        0.164540   -2.223942    0.864146
 ---------------------------------------------------------------------

 SCF Done:  E(RHF) =  -470.732704473     A.U. after   11 cycles
 E2 =    -0.1583093434D+01 EUMP2 =    -0.47231579790710D+03

 The electronic state is 1-A.
 Alpha  occ. eigenvalues --  -11.21604 -11.21601 -11.21600 -11.21539 -11.21405
 Alpha  occ. eigenvalues --  -11.21393 -11.21346 -11.21331 -11.21073 -11.21072
 Alpha  occ. eigenvalues --  -11.21033 -11.20994  -1.08443  -1.08405  -1.03575
 Alpha  occ. eigenvalues --   -1.03469  -0.96026  -0.95913  -0.86998  -0.86975
 Alpha  occ. eigenvalues --   -0.79660  -0.79520  -0.78244  -0.78236  -0.65111
 Alpha  occ. eigenvalues --   -0.65007  -0.61048  -0.60817  -0.59630  -0.59110
 Alpha  occ. eigenvalues --   -0.57750  -0.57380  -0.55323  -0.55185  -0.52754
 Alpha  occ. eigenvalues --   -0.52565  -0.52399  -0.52365  -0.49954  -0.49868
 Alpha  occ. eigenvalues --   -0.48008  -0.47777  -0.46664  -0.46556  -0.45787
 Alpha  occ. eigenvalues --   -0.45763  -0.45709  -0.45682  -0.43795  -0.43713
 Alpha virt. eigenvalues --    0.21598   0.23139   0.23468   0.24774   0.26033
 Alpha virt. eigenvalues --    0.26700   0.26999   0.27153   0.27961   0.29032
 Alpha virt. eigenvalues --    0.30172   0.31366   0.31513   0.31693   0.32254

 Mulliken charges:
               1
     1  C   -0.297737
     2  C   -0.305519
     3  C   -0.477102
     4  H    0.149411
     5  H    0.149281
     6  H    0.150475
     7  H    0.159423
     8  H    0.154942
     9  H    0.155028
    10  H    0.162168
    11  C   -0.298180
    12  C   -0.299622
    13  C   -0.475666
    14  H    0.149536
    15  H    0.149051
    16  H    0.152025
    17  H    0.151848
    18  H    0.155033
    19  H    0.155230
    20  H    0.160246
    21  C   -0.298205
    22  C   -0.299637
    23  C   -0.475695
    24  H    0.149467
    25  H    0.149598
    26  H    0.151853
    27  H    0.151974
    28  H    0.155218
    29  H    0.155140
    30  H    0.160251
    31  C   -0.298303
    32  C   -0.300664
    33  C   -0.482335
    34  H    0.149327
    35  H    0.149830
    36  H    0.151783
    37  H    0.152132
    38  H    0.154762
    39  H    0.154266
    40  H    0.169367
 Sum of Mulliken charges =  -0.00000

 Dipole moment (field-independent basis, Debye):
    X=              0.0010    Y=             -0.0105    Z=              0.0077  Tot=              0.0130
 Quadrupole moment (field-independent basis, Debye-Ang):
   XX=            -84.8658   YY=            -86.5504   ZZ=            -83.4806
   XY=             -0.6991   XZ=             -0.1719   YZ=             -0.9494

 Normal termination of Gaussian 16 at Wed May  5 15:07:57 2021.
