 Gaussian 16, Revision A.03,
 Gaussian 16:  EM64L-G16RevA.03 25-Dec-2016

 -------------
 #p 6-31g* mp2
 -------------

 ------------------------------------------------------
 Input file generated by CHIRIPA (05-May-2021 14:53:11)
 ------------------------------------------------------
 Symbolic Z-matrix:
 Charge =  0 Multiplicity = 1

                         Standard orientation:
 ---------------------------------------------------------------------
 Center     Atomic      Atomic             Coordinates (Angstroms)
 Number     Number       Type             X           Y           Z
 ---------------------------------------------------------------------
      1          6           0        3.192609    0.980409    0.210009
      2          6           0        3.494799    2.193309   -0.670639
      3          6           0        3.088008    3.514387   -0.017133
      4          1           0        2.118735    0.961465    0.441053
      5          1           0        3.716763    1.092764    1.169193
      6          1           0        2.971341    2.078037   -1.628406
      7          1           0        4.568047    2.209261   -0.899771
      8          1           0        3.620048    3.655964    0.929170
      9          1           0        2.014270    3.523994    0.196394
     10          1           0        3.312956    4.368214   -0.663847
     11          6           0        3.593648   -0.347653   -0.429635
     12          6           0        3.291458   -1.560553    0.451013
     13          6           0        3.698249   -2.881631   -0.202492
     14          1           0        3.069494   -0.460008   -1.388819
     15          1           0        4.667522   -0.328709   -0.660678
     16          1           0        2.218210   -1.576505    0.680145
     17          1           0        3.814916   -1.445281    1.408781
     18          1           0        4.771987   -2.891238   -0.416020
     19          1           0        3.166209   -3.023208   -1.148796
     20          1           0        3.473301   -3.735458    0.444221
     21          6           0       -0.875735   -2.023418    0.330168
     22          6           0       -0.698819   -0.770324    0.925967
     23          6           0       -1.675768    0.221403    0.797138
     24          6           0       -2.822496   -0.075450    0.062166
     25          6           0       -3.027856   -1.314253   -0.543212
     26          6           0       -2.037640   -2.290912   -0.401231
     27          1           0       -0.111664   -2.787962    0.435354
     28          1           0        0.202523   -0.559779    1.494561
     29          1           0       -1.564477    1.200051    1.248002
     30          1           0       -3.936988   -1.494565   -1.103912
     31          1           0       -2.177726   -3.263185   -0.865025
     32          7           0       -3.863771    0.966471   -0.081182
     33          8           0       -4.865066    0.679980   -0.733844
     34          8           0       -3.658910    2.049890    0.461840
 ---------------------------------------------------------------------

 SCF Done:  E(RHF) =  -669.535034403     A.U. after   15 cycles
 E2 =    -0.2092749015D+01 EUMP2 =    -0.67162778341802D+03

 The electronic state is 1-A.
 Alpha  occ. eigenvalues --  -20.60782 -20.60777 -15.85836 -11.31212 -11.27785
 Alpha  occ. eigenvalues --  -11.27780 -11.27508 -11.26794 -11.26756 -11.22687
 Alpha  occ. eigenvalues --  -11.22192 -11.22132 -11.22075 -11.22061 -11.21443
 Alpha  occ. eigenvalues --   -1.59857  -1.39411  -1.19386  -1.09219  -1.08774
 Alpha  occ. eigenvalues --   -1.04791  -1.04279  -0.96704  -0.95611  -0.87723
 Alpha  occ. eigenvalues --   -0.86195  -0.82442  -0.80379  -0.79030  -0.77483
 Alpha  occ. eigenvalues --   -0.72054  -0.71181  -0.70502  -0.65941  -0.65037
 Alpha  occ. eigenvalues --   -0.64735  -0.62155  -0.61647  -0.60100  -0.58320
 Alpha  occ. eigenvalues --   -0.55998  -0.55260  -0.53413  -0.53132  -0.53112
 Alpha  occ. eigenvalues --   -0.52884  -0.50655  -0.48829  -0.48809  -0.48661
 Alpha  occ. eigenvalues --   -0.47409  -0.46534  -0.46431  -0.44814  -0.44527
 Alpha  occ. eigenvalues --   -0.37352  -0.36380
 Alpha virt. eigenvalues --    0.05026   0.11143   0.16432   0.19628   0.22867
 Alpha virt. eigenvalues --    0.23035   0.24961   0.26173   0.26699   0.28156
 Alpha virt. eigenvalues --    0.29582   0.30779   0.31014   0.31174   0.31363

 Mulliken charges:
               1
     1  C   -0.301387
     2  C   -0.300337
     3  C   -0.476330
     4  H    0.145171
     5  H    0.150182
     6  H    0.154713
     7  H    0.153513
     8  H    0.155237
     9  H    0.155855
    10  H    0.163587
    11  C   -0.297869
    12  C   -0.305191
    13  C   -0.477373
    14  H    0.152588
    15  H    0.153318
    16  H    0.142926
    17  H    0.154937
    18  H    0.160830
    19  H    0.155740
    20  H    0.158621
    21  C   -0.172981
    22  C   -0.221260
    23  C   -0.172391
    24  C    0.158431
    25  C   -0.170749
    26  C   -0.218936
    27  H    0.228065
    28  H    0.228615
    29  H    0.275638
    30  H    0.275744
    31  H    0.223666
    32  N    0.488068
    33  O   -0.460323
    34  O   -0.460320
 Sum of Mulliken charges =  -0.00000

 Dipole moment (field-independent basis, Debye):
    X=              3.8159    Y=             -3.6092    Z=              0.4153  Tot=              5.2687
 Quadrupole moment (field-independent basis, Debye-Ang):
   XX=           -112.9020   YY=            -93.4146   ZZ=            -93.7312
   XY=             12.5998   XZ=              0.7905   YZ=              1.4297

 Normal termination of Gaussian 16 at Thu May  6 04:02:39 2021.
