 Gaussian 16, Revision A.03,
 Gaussian 16:  EM64L-G16RevA.03 25-Dec-2016

 -------------
 #p 6-31g* mp2
 -------------

 ------------------------------------------------------
 Input file generated by CHIRIPA (05-May-2021 14:53:12)
 ------------------------------------------------------
 Symbolic Z-matrix:
 Charge =  0 Multiplicity = 1

                         Standard orientation:
 ---------------------------------------------------------------------
 Center     Atomic      Atomic             Coordinates (Angstroms)
 Number     Number       Type             X           Y           Z
 ---------------------------------------------------------------------
      1          6           0        3.351007   -1.203664    0.047459
      2          6           0        1.956164   -1.203981    0.673875
      3          6           0        1.320066   -2.594126    0.699738
      4          1           0        3.286513   -1.598044   -0.975894
      5          1           0        3.997249   -1.893243    0.608036
      6          1           0        1.313125   -0.513561    0.113128
      7          1           0        2.023956   -0.809375    1.695788
      8          1           0        1.938201   -3.289956    1.276219
      9          1           0        1.223331   -2.992461   -0.315433
     10          1           0        0.323495   -2.571273    1.151606
     11          6           0        3.999951    0.178909    0.014410
     12          6           0        5.394794    0.179226   -0.612006
     13          6           0        6.030892    1.569371   -0.637870
     14          1           0        3.353709    0.868488   -0.546167
     15          1           0        4.064446    0.573289    1.037762
     16          1           0        5.327002   -0.215380   -1.633919
     17          1           0        6.037833   -0.511194   -0.051259
     18          1           0        6.127627    1.967706    0.377302
     19          1           0        5.412757    2.265201   -1.214351
     20          1           0        7.027463    1.546518   -1.089738
     21          6           0       -4.155870   -1.685188   -0.629971
     22          6           0       -2.818970   -1.778082   -0.229233
     23          6           0       -2.097586   -0.629201    0.108740
     24          6           0       -2.747296    0.601912    0.034399
     25          6           0       -4.078132    0.727083   -0.361201
     26          6           0       -4.780084   -0.435105   -0.694561
     27          1           0       -4.708711   -2.582835   -0.890724
     28          1           0       -2.331628   -2.747583   -0.178146
     29          1           0       -1.061587   -0.672336    0.422210
     30          1           0       -4.536855    1.707540   -0.402393
     31          1           0       -5.818232   -0.359945   -1.005441
     32          7           0       -1.993886    1.825225    0.389754
     33          8           0       -2.589148    2.898009    0.316044
     34          8           0       -0.822365    1.688110    0.735263
 ---------------------------------------------------------------------

 SCF Done:  E(RHF) =  -669.535323821     A.U. after   15 cycles
 E2 =    -0.2092450175D+01 EUMP2 =    -0.67162777399563D+03

 The electronic state is 1-A.
 Alpha  occ. eigenvalues --  -20.60782 -20.60776 -15.85823 -11.31145 -11.27728
 Alpha  occ. eigenvalues --  -11.27653 -11.27465 -11.26740 -11.26705 -11.21648
 Alpha  occ. eigenvalues --  -11.21586 -11.21332 -11.21311 -11.21037 -11.20748
 Alpha  occ. eigenvalues --   -1.59852  -1.39407  -1.19322  -1.08728  -1.08303
 Alpha  occ. eigenvalues --   -1.04724  -1.03506  -0.95994  -0.95563  -0.86994
 Alpha  occ. eigenvalues --   -0.86123  -0.82400  -0.79548  -0.78064  -0.77441
 Alpha  occ. eigenvalues --   -0.72046  -0.71172  -0.70453  -0.64981  -0.64977
 Alpha  occ. eigenvalues --   -0.64696  -0.62206  -0.60850  -0.59334  -0.57560
 Alpha  occ. eigenvalues --   -0.55314  -0.55157  -0.53057  -0.52823  -0.52703
 Alpha  occ. eigenvalues --   -0.52371  -0.49893  -0.48832  -0.48800  -0.47834
 Alpha  occ. eigenvalues --   -0.46541  -0.45599  -0.45494  -0.44807  -0.43732
 Alpha  occ. eigenvalues --   -0.37310  -0.36321
 Alpha virt. eigenvalues --    0.05048   0.11306   0.16549   0.20171   0.23177
 Alpha virt. eigenvalues --    0.24044   0.26476   0.26845   0.27224   0.28173
 Alpha virt. eigenvalues --    0.29574   0.30225   0.31354   0.31667   0.32663

 Mulliken charges:
               1
     1  C   -0.298084
     2  C   -0.309167
     3  C   -0.482960
     4  H    0.147685
     5  H    0.148403
     6  H    0.163047
     7  H    0.159566
     8  H    0.160759
     9  H    0.154068
    10  H    0.149326
    11  C   -0.299398
    12  C   -0.299838
    13  C   -0.475744
    14  H    0.156512
    15  H    0.152577
    16  H    0.150391
    17  H    0.150290
    18  H    0.156213
    19  H    0.157285
    20  H    0.158802
    21  C   -0.170315
    22  C   -0.224672
    23  C   -0.181096
    24  C    0.156812
    25  C   -0.169824
    26  C   -0.219239
    27  H    0.225516
    28  H    0.225458
    29  H    0.294033
    30  H    0.275364
    31  H    0.223288
    32  N    0.487672
    33  O   -0.460122
    34  O   -0.462605
 Sum of Mulliken charges =  -0.00000

 Dipole moment (field-independent basis, Debye):
    X=             -2.5478    Y=             -4.1798    Z=             -1.2281  Tot=              5.0468
 Quadrupole moment (field-independent basis, Debye-Ang):
   XX=            -77.1866   YY=            -99.9696   ZZ=            -94.6609
   XY=              7.3948   XZ=              4.9763   YZ=             -1.5444

 Normal termination of Gaussian 16 at Wed May  5 20:09:26 2021.
