 Gaussian 16, Revision A.03,
 Gaussian 16:  EM64L-G16RevA.03 25-Dec-2016

 -------------
 #p 6-31g* mp2
 -------------

 ------------------------------------------------------
 Input file generated by CHIRIPA (05-May-2021 14:53:18)
 ------------------------------------------------------
 Symbolic Z-matrix:
 Charge =  0 Multiplicity = 1

                         Standard orientation:
 ---------------------------------------------------------------------
 Center     Atomic      Atomic             Coordinates (Angstroms)
 Number     Number       Type             X           Y           Z
 ---------------------------------------------------------------------
      1          6           0       -2.903566    0.984287    0.360509
      2          6           0       -1.834707    1.919580   -0.205841
      3          6           0       -1.853526    3.302398    0.446275
      4          1           0       -3.892611    1.442479    0.223408
      5          1           0       -2.754135    0.881682    1.444269
      6          1           0       -1.985270    2.019296   -1.288432
      7          1           0       -0.848108    1.459022   -0.067549
      8          1           0       -1.680764    3.222282    1.524391
      9          1           0       -2.824387    3.785739    0.296571
     10          1           0       -1.081454    3.954756    0.026520
     11          6           0       -2.897350   -0.401932   -0.281429
     12          6           0       -3.966210   -1.337225    0.284920
     13          6           0       -3.947391   -2.720043   -0.367195
     14          1           0       -3.046782   -0.299327   -1.365190
     15          1           0       -1.908306   -0.860124   -0.144329
     16          1           0       -4.952809   -0.876667    0.146628
     17          1           0       -3.815647   -1.436941    1.367511
     18          1           0       -2.976530   -3.203384   -0.217492
     19          1           0       -4.120153   -2.639927   -1.445312
     20          1           0       -4.719463   -3.372401    0.052560
     21          6           0        2.402901   -2.714351    0.372420
     22          6           0        2.269752   -2.222763   -0.930321
     23          6           0        2.192945   -0.846792   -1.165590
     24          6           0        2.252747    0.012939   -0.069881
     25          6           0        2.385156   -0.446129    1.239705
     26          6           0        2.460077   -1.826032    1.451373
     27          1           0        2.461834   -3.784766    0.546015
     28          1           0        2.225086   -2.910302   -1.770167
     29          1           0        2.089645   -0.439119   -2.163863
     30          1           0        2.426918    0.263924    2.056710
     31          1           0        2.563459   -2.204965    2.464174
     32          7           0        2.172433    1.471700   -0.306457
     33          8           0        2.227451    2.208286    0.675913
     34          8           0        2.055985    1.850867   -1.469774
 ---------------------------------------------------------------------

 SCF Done:  E(RHF) =  -669.535806274     A.U. after   15 cycles
 E2 =    -0.2092010968D+01 EUMP2 =    -0.67162781724206D+03

 The electronic state is 1-A.
 Alpha  occ. eigenvalues --  -20.60841 -20.60836 -15.85884 -11.31261 -11.27826
 Alpha  occ. eigenvalues --  -11.27821 -11.27565 -11.26837 -11.26826 -11.21558
 Alpha  occ. eigenvalues --  -11.21215 -11.21157 -11.21033 -11.20972 -11.20191
 Alpha  occ. eigenvalues --   -1.59916  -1.39466  -1.19430  -1.08826  -1.08144
 Alpha  occ. eigenvalues --   -1.04828  -1.03177  -0.95660  -0.95622  -0.86645
 Alpha  occ. eigenvalues --   -0.86226  -0.82487  -0.79277  -0.77932  -0.77535
 Alpha  occ. eigenvalues --   -0.72104  -0.71256  -0.70532  -0.65080  -0.64828
 Alpha  occ. eigenvalues --   -0.64780  -0.62173  -0.60579  -0.59022  -0.57200
 Alpha  occ. eigenvalues --   -0.55329  -0.54929  -0.53162  -0.52918  -0.52285
 Alpha  occ. eigenvalues --   -0.52053  -0.49595  -0.48866  -0.48860  -0.47575
 Alpha  occ. eigenvalues --   -0.46332  -0.45475  -0.45385  -0.44858  -0.43427
 Alpha  occ. eigenvalues --   -0.37407  -0.36429
 Alpha virt. eigenvalues --    0.04990   0.11222   0.16462   0.21365   0.23019
 Alpha virt. eigenvalues --    0.24588   0.26670   0.27276   0.27550   0.28256
 Alpha virt. eigenvalues --    0.28402   0.30768   0.31587   0.31948   0.32488

 Mulliken charges:
               1
     1  C   -0.298236
     2  C   -0.296325
     3  C   -0.475802
     4  H    0.149094
     5  H    0.147603
     6  H    0.153505
     7  H    0.146795
     8  H    0.153794
     9  H    0.150017
    10  H    0.173461
    11  C   -0.298227
    12  C   -0.298980
    13  C   -0.475097
    14  H    0.149262
    15  H    0.147471
    16  H    0.152698
    17  H    0.150731
    18  H    0.151718
    19  H    0.155120
    20  H    0.159572
    21  C   -0.170849
    22  C   -0.218637
    23  C   -0.170669
    24  C    0.155355
    25  C   -0.171739
    26  C   -0.218708
    27  H    0.225964
    28  H    0.223994
    29  H    0.276302
    30  H    0.275916
    31  H    0.223689
    32  N    0.490197
    33  O   -0.459969
    34  O   -0.459018
 Sum of Mulliken charges =  -0.00000

 Dipole moment (field-independent basis, Debye):
    X=              0.3974    Y=             -5.0244    Z=              0.7942  Tot=              5.1023
 Quadrupole moment (field-independent basis, Debye-Ang):
   XX=            -94.2328   YY=            -96.0411   ZZ=            -89.6669
   XY=            -12.1182   XZ=              2.8295   YZ=              0.5865

 Normal termination of Gaussian 16 at Wed May  5 22:04:03 2021.
