 Gaussian 16, Revision A.03,
 Gaussian 16:  EM64L-G16RevA.03 25-Dec-2016

 -------------
 #p 6-31g* mp2
 -------------

 ------------------------------------------------------
 Input file generated by CHIRIPA (05-May-2021 14:57:24)
 ------------------------------------------------------
 Symbolic Z-matrix:
 Charge =  0 Multiplicity = 1

                         Standard orientation:
 ---------------------------------------------------------------------
 Center     Atomic      Atomic             Coordinates (Angstroms)
 Number     Number       Type             X           Y           Z
 ---------------------------------------------------------------------
      1          6           0       -1.652406    1.683792   -0.561870
      2          6           0       -2.738218    2.291916    0.076659
      3          6           0       -3.898254    1.562567    0.353994
      4          6           0       -3.938461    0.221039   -0.022801
      5          6           0       -2.873233   -0.413166   -0.660266
      6          6           0       -1.723254    0.335568   -0.927649
      7          1           0       -0.755169    2.257897   -0.773444
      8          1           0       -2.686006    3.338803    0.361872
      9          1           0       -4.753494    2.008372    0.847189
     10          1           0       -2.954887   -1.458451   -0.932535
     11          1           0       -0.881533   -0.139328   -1.423658
     12          7           0       -5.161216   -0.561352    0.265533
     13          8           0       -5.171642   -1.741808   -0.076594
     14          8           0       -6.086032    0.020682    0.828196
     15          6           0        5.732118    1.182705    0.260145
     16          6           0        5.183966    0.601726    1.408412
     17          6           0        4.078519   -0.249058    1.315134
     18          6           0        3.544050   -0.498161    0.051971
     19          6           0        4.067634    0.065529   -1.110528
     20          6           0        5.173188    0.913227   -0.993449
     21          1           0        6.590898    1.842416    0.341850
     22          1           0        5.615966    0.809214    2.383281
     23          1           0        3.634258   -0.712202    2.187801
     24          1           0        3.615159   -0.160196   -2.068511
     25          1           0        5.596804    1.363021   -1.886914
     26          7           0        2.373706   -1.397214   -0.059376
     27          8           0        1.921274   -1.600726   -1.183888
     28          8           0        1.930984   -1.881358    0.979969
 ---------------------------------------------------------------------

 SCF Done:  E(RHF) =  -868.339321016     A.U. after   16 cycles
 E2 =    -0.2598680834D+01 EUMP2 =    -0.87093800185009D+03

 The electronic state is 1-A.
 Alpha  occ. eigenvalues --  -20.61728 -20.61666 -20.60113 -20.60096 -15.86722
 Alpha  occ. eigenvalues --  -15.85153 -11.31936 -11.30431 -11.28500 -11.28455
 Alpha  occ. eigenvalues --  -11.28178 -11.27460 -11.27431 -11.27030 -11.26880
 Alpha  occ. eigenvalues --  -11.26741 -11.26083 -11.25813  -1.60761  -1.59183
 Alpha  occ. eigenvalues --   -1.40317  -1.38738  -1.20091  -1.18586  -1.09510
 Alpha  occ. eigenvalues --   -1.08014  -1.05465  -1.03952  -0.96369  -0.94866
 Alpha  occ. eigenvalues --   -0.86868  -0.85367  -0.83202  -0.81679  -0.78274
 Alpha  occ. eigenvalues --   -0.76728  -0.72937  -0.72076  -0.71377  -0.71183
 Alpha  occ. eigenvalues --   -0.70502  -0.69736  -0.65739  -0.65455  -0.64237
 Alpha  occ. eigenvalues --   -0.63934  -0.62809  -0.61282  -0.55958  -0.54520
 Alpha  occ. eigenvalues --   -0.53810  -0.53546  -0.52317  -0.52026  -0.49712
 Alpha  occ. eigenvalues --   -0.49679  -0.48136  -0.48125  -0.45742  -0.44163
 Alpha  occ. eigenvalues --   -0.38061  -0.37066  -0.36602  -0.35543
 Alpha virt. eigenvalues --    0.04210   0.05770   0.10591   0.12091   0.15719
 Alpha virt. eigenvalues --    0.17282   0.20777   0.22247   0.26708   0.27579
 Alpha virt. eigenvalues --    0.28337   0.28978   0.30370   0.31673   0.32037

 Mulliken charges:
               1
     1  C   -0.172948
     2  C   -0.218466
     3  C   -0.172762
     4  C    0.158274
     5  C   -0.170472
     6  C   -0.223178
     7  H    0.220297
     8  H    0.219045
     9  H    0.272715
    10  H    0.278957
    11  H    0.240263
    12  N    0.488048
    13  O   -0.459597
    14  O   -0.463471
    15  C   -0.170328
    16  C   -0.218646
    17  C   -0.170679
    18  C    0.156936
    19  C   -0.172939
    20  C   -0.218741
    21  H    0.227929
    22  H    0.226015
    23  H    0.277753
    24  H    0.274506
    25  H    0.225061
    26  N    0.487867
    27  O   -0.467655
    28  O   -0.453783
 Sum of Mulliken charges =  -0.00000

 Dipole moment (field-independent basis, Debye):
    X=              8.8130    Y=              5.7681    Z=             -0.5707  Tot=             10.5482
 Quadrupole moment (field-independent basis, Debye-Ang):
   XX=           -109.7458   YY=           -104.6140   ZZ=            -99.5353
   XY=             -1.8921   XZ=              5.0343   YZ=              0.8158

 Normal termination of Gaussian 16 at Thu May  6 06:38:42 2021.
