 Gaussian 16, Revision A.03,
 Gaussian 16:  EM64L-G16RevA.03 25-Dec-2016

 -------------
 #p 6-31g* mp2
 -------------

 ------------------------------------------------------
 Input file generated by CHIRIPA (05-May-2021 14:53:14)
 ------------------------------------------------------
 Symbolic Z-matrix:
 Charge =  0 Multiplicity = 1

                         Standard orientation:
 ---------------------------------------------------------------------
 Center     Atomic      Atomic             Coordinates (Angstroms)
 Number     Number       Type             X           Y           Z
 ---------------------------------------------------------------------
      1          6           0        4.132662   -0.245592    0.386015
      2          6           0        3.945317   -1.631312   -0.232585
      3          6           0        4.723572   -2.719365    0.507856
      4          1           0        5.202222    0.005335    0.390653
      5          1           0        3.813901   -0.274815    1.437173
      6          1           0        4.263038   -1.599135   -1.282649
      7          1           0        2.876060   -1.878889   -0.235926
      8          1           0        4.401130   -2.780581    1.552310
      9          1           0        5.795989   -2.499238    0.499640
     10          1           0        4.575380   -3.701845    0.048908
     11          6           0        3.360839    0.852738   -0.343155
     12          6           0        3.548184    2.238458    0.275445
     13          6           0        2.769928    3.326512   -0.464996
     14          1           0        3.679599    0.881961   -1.394313
     15          1           0        2.291279    0.601811   -0.347793
     16          1           0        4.617441    2.486035    0.278785
     17          1           0        3.230462    2.206282    1.325508
     18          1           0        1.697512    3.106384   -0.456780
     19          1           0        3.092370    3.387727   -1.509450
     20          1           0        2.918121    4.308991   -0.006048
     21          6           0       -0.534779   -0.982496   -0.311663
     22          6           0       -1.579370   -1.895722   -0.488779
     23          6           0       -2.908720   -1.493845   -0.327933
     24          6           0       -3.158434   -0.165111    0.011770
     25          6           0       -2.139465    0.768372    0.195074
     26          6           0       -0.817662    0.344298    0.029096
     27          1           0        0.494959   -1.303306   -0.438606
     28          1           0       -1.362650   -2.926758   -0.753435
     29          1           0       -3.736625   -2.180000   -0.459013
     30          1           0       -2.386811    1.789516    0.458708
     31          1           0       -0.008434    1.055706    0.167280
     32          7           0       -4.561762    0.272088    0.184766
     33          8           0       -4.755326    1.448314    0.484205
     34          8           0       -5.441555   -0.569740    0.017647
 ---------------------------------------------------------------------

 SCF Done:  E(RHF) =  -669.534691426     A.U. after   15 cycles
 E2 =    -0.2092927524D+01 EUMP2 =    -0.67162761895019D+03

 The electronic state is 1-A.
 Alpha  occ. eigenvalues --  -20.60725 -20.60719 -15.85778 -11.31137 -11.27710
 Alpha  occ. eigenvalues --  -11.27706 -11.27420 -11.26718 -11.26697 -11.22822
 Alpha  occ. eigenvalues --  -11.22676 -11.22616 -11.22476 -11.22076 -11.22011
 Alpha  occ. eigenvalues --   -1.59800  -1.39354  -1.19310  -1.09591  -1.08704
 Alpha  occ. eigenvalues --   -1.04720  -1.04608  -0.97038  -0.95544  -0.88049
 Alpha  occ. eigenvalues --   -0.86122  -0.82380  -0.80677  -0.79431  -0.77425
 Alpha  occ. eigenvalues --   -0.71997  -0.71123  -0.70453  -0.66303  -0.64960
 Alpha  occ. eigenvalues --   -0.64682  -0.62213  -0.61874  -0.60402  -0.58652
 Alpha  occ. eigenvalues --   -0.56335  -0.55237  -0.53694  -0.53454  -0.53041
 Alpha  occ. eigenvalues --   -0.52825  -0.50990  -0.48990  -0.48752  -0.48745
 Alpha  occ. eigenvalues --   -0.47710  -0.46929  -0.46835  -0.44874  -0.44761
 Alpha  occ. eigenvalues --   -0.37286  -0.36319
 Alpha virt. eigenvalues --    0.05111   0.11316   0.16587   0.18248   0.21460
 Alpha virt. eigenvalues --    0.22981   0.24984   0.25728   0.26356   0.27614
 Alpha virt. eigenvalues --    0.29407   0.30653   0.30955   0.31043   0.32193

 Mulliken charges:
               1
     1  C   -0.299074
     2  C   -0.304759
     3  C   -0.476009
     4  H    0.155111
     5  H    0.151621
     6  H    0.155834
     7  H    0.144139
     8  H    0.157336
     9  H    0.159179
    10  H    0.162043
    11  C   -0.304082
    12  C   -0.301775
    13  C   -0.477410
    14  H    0.154590
    15  H    0.140945
    16  H    0.157232
    17  H    0.153088
    18  H    0.148981
    19  H    0.159467
    20  H    0.165856
    21  C   -0.179847
    22  C   -0.221301
    23  C   -0.170668
    24  C    0.158384
    25  C   -0.171312
    26  C   -0.228978
    27  H    0.238234
    28  H    0.223684
    29  H    0.275433
    30  H    0.275607
    31  H    0.231584
    32  N    0.487898
    33  O   -0.460489
    34  O   -0.460542
 Sum of Mulliken charges =  -0.00000

 Dipole moment (field-independent basis, Debye):
    X=              5.2869    Y=             -1.4852    Z=             -0.6007  Tot=              5.5243
 Quadrupole moment (field-independent basis, Debye-Ang):
   XX=           -124.1342   YY=            -90.3100   ZZ=            -95.1427
   XY=              6.5129   XZ=              1.7106   YZ=              1.4649

 Normal termination of Gaussian 16 at Thu May  6 17:05:20 2021.
