 Gaussian 16, Revision A.03,
 Gaussian 16:  EM64L-G16RevA.03 25-Dec-2016

 -------------
 #p 6-31g* mp2
 -------------

 ------------------------------------------------------
 Input file generated by CHIRIPA (05-May-2021 14:51:13)
 ------------------------------------------------------
 Symbolic Z-matrix:
 Charge =  0 Multiplicity = 1

                         Standard orientation:
 ---------------------------------------------------------------------
 Center     Atomic      Atomic             Coordinates (Angstroms)
 Number     Number       Type             X           Y           Z
 ---------------------------------------------------------------------
      1          6           0       -4.209427   -0.137509    0.376967
      2          6           0       -4.815976   -1.194990   -0.545972
      3          6           0       -5.707630   -2.188696    0.199210
      4          1           0       -3.626949   -0.636873    1.163287
      5          1           0       -5.019511    0.404350    0.884457
      6          1           0       -4.005018   -1.733765   -1.052615
      7          1           0       -5.396920   -0.693044   -1.330299
      8          1           0       -6.536268   -1.669055    0.691077
      9          1           0       -5.136458   -2.715689    0.970340
     10          1           0       -6.130778   -2.935740   -0.479562
     11          6           0       -3.315538    0.863148   -0.353360
     12          6           0       -2.708989    1.920629    0.569579
     13          6           0       -1.817335    2.914334   -0.175604
     14          1           0       -2.505454    0.321289   -0.860851
     15          1           0       -3.898017    1.362511   -1.139681
     16          1           0       -2.128045    1.418682    1.353906
     17          1           0       -3.519947    2.459403    1.076221
     18          1           0       -2.388507    3.441328   -0.946733
     19          1           0       -0.988697    2.394694   -0.667471
     20          1           0       -1.394187    3.661378    0.503168
     21          6           0        3.097801   -0.515333    0.332245
     22          6           0        1.884175   -0.308740   -0.574629
     23          6           0        0.561798   -0.617867    0.127903
     24          1           0        3.106088   -1.553251    0.692247
     25          1           0        2.995660    0.122908    1.220846
     26          1           0        1.989247   -0.946151   -1.461919
     27          1           0        1.878883    0.728755   -0.932667
     28          1           0        0.430464    0.026965    1.002856
     29          1           0        0.541455   -1.657458    0.470596
     30          1           0       -0.292530   -0.463566   -0.538562
     31          6           0        4.427165   -0.210306   -0.355851
     32          6           0        5.640789   -0.416899    0.551022
     33          6           0        6.963167   -0.107771   -0.151509
     34          1           0        4.529305   -0.848547   -1.244452
     35          1           0        4.418878    0.827613   -0.715852
     36          1           0        5.646082   -1.454394    0.909060
     37          1           0        5.535717    0.220512    1.438312
     38          1           0        6.983509    0.931819   -0.494203
     39          1           0        7.094501   -0.752604   -1.026462
     40          1           0        7.817495   -0.262072    0.514956
 ---------------------------------------------------------------------

 SCF Done:  E(RHF) =  -470.733098288     A.U. after   11 cycles
 E2 =    -0.1583280372D+01 EUMP2 =    -0.47231637866015D+03

 The electronic state is 1-A.
 Alpha  occ. eigenvalues --  -11.21668 -11.21623 -11.21567 -11.21543 -11.21442
 Alpha  occ. eigenvalues --  -11.21380 -11.21352 -11.21292 -11.21145 -11.21086
 Alpha  occ. eigenvalues --  -11.21042 -11.21031  -1.08474  -1.08382  -1.03589
 Alpha  occ. eigenvalues --   -1.03476  -0.96030  -0.95939  -0.87056  -0.86949
 Alpha  occ. eigenvalues --   -0.79641  -0.79551  -0.78280  -0.78205  -0.65139
 Alpha  occ. eigenvalues --   -0.65009  -0.61095  -0.60800  -0.59419  -0.59264
 Alpha  occ. eigenvalues --   -0.57639  -0.57552  -0.55386  -0.55149  -0.52749
 Alpha  occ. eigenvalues --   -0.52635  -0.52468  -0.52348  -0.49968  -0.49874
 Alpha  occ. eigenvalues --   -0.47978  -0.47864  -0.46702  -0.46539  -0.45834
 Alpha  occ. eigenvalues --   -0.45755  -0.45735  -0.45635  -0.43779  -0.43737
 Alpha virt. eigenvalues --    0.20366   0.22991   0.23695   0.25104   0.26058
 Alpha virt. eigenvalues --    0.26258   0.26530   0.27461   0.28048   0.29127
 Alpha virt. eigenvalues --    0.30480   0.30905   0.31643   0.31865   0.32265

 Mulliken charges:
               1
     1  C   -0.298380
     2  C   -0.299610
     3  C   -0.475694
     4  H    0.150474
     5  H    0.149330
     6  H    0.151732
     7  H    0.151763
     8  H    0.155094
     9  H    0.155283
    10  H    0.160077
    11  C   -0.303007
    12  C   -0.300248
    13  C   -0.478133
    14  H    0.153670
    15  H    0.149433
    16  H    0.153821
    17  H    0.151651
    18  H    0.154905
    19  H    0.157570
    20  H    0.159610
    21  C   -0.298691
    22  C   -0.300293
    23  C   -0.483041
    24  H    0.149743
    25  H    0.149777
    26  H    0.152156
    27  H    0.152756
    28  H    0.156914
    29  H    0.155219
    30  H    0.165626
    31  C   -0.298330
    32  C   -0.299685
    33  C   -0.475736
    34  H    0.149582
    35  H    0.149890
    36  H    0.151943
    37  H    0.152011
    38  H    0.155280
    39  H    0.155209
    40  H    0.160327
 Sum of Mulliken charges =  -0.00000

 Dipole moment (field-independent basis, Debye):
    X=              0.0318    Y=             -0.0138    Z=              0.0066  Tot=              0.0353
 Quadrupole moment (field-independent basis, Debye-Ang):
   XX=            -85.7004   YY=            -84.1846   ZZ=            -84.9692
   XY=             -1.2502   XZ=              0.7359   YZ=              0.5903

 Normal termination of Gaussian 16 at Thu May  6 05:32:36 2021.
