 Gaussian 16, Revision A.03,
 Gaussian 16:  EM64L-G16RevA.03 25-Dec-2016

 -------------
 #p 6-31g* mp2
 -------------

 ------------------------------------------------------
 Input file generated by CHIRIPA (05-May-2021 14:53:12)
 ------------------------------------------------------
 Symbolic Z-matrix:
 Charge =  0 Multiplicity = 1

                         Standard orientation:
 ---------------------------------------------------------------------
 Center     Atomic      Atomic             Coordinates (Angstroms)
 Number     Number       Type             X           Y           Z
 ---------------------------------------------------------------------
      1          6           0       -4.654679    0.314284    0.205150
      2          6           0       -5.245692    0.523357   -1.189475
      3          6           0       -6.473997    1.433841   -1.180582
      4          1           0       -5.424530   -0.112582    0.862463
      5          1           0       -4.385575    1.290454    0.631845
      6          1           0       -5.512324   -0.453028   -1.613970
      7          1           0       -4.474288    0.949596   -1.843595
      8          1           0       -6.218971    2.420922   -0.781541
      9          1           0       -7.262904    1.010328   -0.550611
     10          1           0       -6.880336    1.569682   -2.187705
     11          6           0       -3.426157   -0.593683    0.212616
     12          6           0       -2.835144   -0.802756    1.607241
     13          6           0       -1.606839   -1.713240    1.598348
     14          1           0       -3.695261   -1.569854   -0.214079
     15          1           0       -2.656306   -0.166818   -0.444697
     16          1           0       -3.606548   -1.228995    2.261361
     17          1           0       -2.568512    0.173629    2.031736
     18          1           0       -0.817932   -1.289728    0.968378
     19          1           0       -1.861865   -2.700321    1.199307
     20          1           0       -1.200500   -1.849081    2.605471
     21          6           0        3.735770    2.463925    0.533551
     22          6           0        4.675805    1.684535   -0.148656
     23          6           0        4.365790    0.378535   -0.539555
     24          6           0        3.100583   -0.118512   -0.230548
     25          6           0        2.142523    0.633195    0.447943
     26          6           0        2.474353    1.936698    0.829152
     27          1           0        3.985070    3.477487    0.833447
     28          1           0        5.656217    2.091376   -0.379564
     29          1           0        5.074582   -0.246741   -1.068763
     30          1           0        1.173412    0.200111    0.664001
     31          1           0        1.742323    2.539686    1.358852
     32          7           0        2.760836   -1.499793   -0.639246
     33          8           0        1.639254   -1.914452   -0.355088
     34          8           0        3.622559   -2.141627   -1.236004
 ---------------------------------------------------------------------

 SCF Done:  E(RHF) =  -669.535467558     A.U. after   15 cycles
 E2 =    -0.2091491271D+01 EUMP2 =    -0.67162695882983D+03

 The electronic state is 1-A.
 Alpha  occ. eigenvalues --  -20.60829 -20.60824 -15.85873 -11.31232 -11.27800
 Alpha  occ. eigenvalues --  -11.27797 -11.27545 -11.26818 -11.26808 -11.21489
 Alpha  occ. eigenvalues --  -11.21373 -11.21267 -11.21148 -11.21006 -11.20523
 Alpha  occ. eigenvalues --   -1.59901  -1.39456  -1.19406  -1.08803  -1.08255
 Alpha  occ. eigenvalues --   -1.04810  -1.03321  -0.95758  -0.95627  -0.86751
 Alpha  occ. eigenvalues --   -0.86209  -0.82473  -0.79380  -0.78065  -0.77515
 Alpha  occ. eigenvalues --   -0.72100  -0.71218  -0.70520  -0.65064  -0.64925
 Alpha  occ. eigenvalues --   -0.64794  -0.62182  -0.60718  -0.59130  -0.57351
 Alpha  occ. eigenvalues --   -0.55329  -0.55024  -0.53138  -0.52911  -0.52433
 Alpha  occ. eigenvalues --   -0.52133  -0.49707  -0.48850  -0.48833  -0.47654
 Alpha  occ. eigenvalues --   -0.46416  -0.45582  -0.45538  -0.44860  -0.43579
 Alpha  occ. eigenvalues --   -0.37387  -0.36412
 Alpha virt. eigenvalues --    0.05015   0.11241   0.16510   0.20560   0.22909
 Alpha virt. eigenvalues --    0.24004   0.26235   0.27196   0.27602   0.27854
 Alpha virt. eigenvalues --    0.29218   0.30484   0.31542   0.31935   0.32106

 Mulliken charges:
               1
     1  C   -0.297727
     2  C   -0.299485
     3  C   -0.475501
     4  H    0.149720
     5  H    0.146121
     6  H    0.153452
     7  H    0.151480
     8  H    0.153624
     9  H    0.155246
    10  H    0.160239
    11  C   -0.297333
    12  C   -0.300635
    13  C   -0.485448
    14  H    0.152999
    15  H    0.148407
    16  H    0.151549
    17  H    0.143424
    18  H    0.170213
    19  H    0.161904
    20  H    0.156496
    21  C   -0.170254
    22  C   -0.219017
    23  C   -0.169966
    24  C    0.154895
    25  C   -0.171929
    26  C   -0.222274
    27  H    0.225792
    28  H    0.223611
    29  H    0.275783
    30  H    0.285032
    31  H    0.224170
    32  N    0.490936
    33  O   -0.465649
    34  O   -0.459874
 Sum of Mulliken charges =  -0.00000

 Dipole moment (field-independent basis, Debye):
    X=              1.2903    Y=              4.7498    Z=              1.3691  Tot=              5.1088
 Quadrupole moment (field-independent basis, Debye-Ang):
   XX=            -83.8994   YY=            -96.0030   ZZ=            -95.6081
   XY=             16.0370   XZ=              2.0536   YZ=             -1.0023

 Normal termination of Gaussian 16 at Thu May  6 10:26:26 2021.
