 Gaussian 16, Revision A.03,
 Gaussian 16:  EM64L-G16RevA.03 25-Dec-2016

 -------------
 #p 6-31g* mp2
 -------------

 ------------------------------------------------------
 Input file generated by CHIRIPA (05-May-2021 14:55:19)
 ------------------------------------------------------
 Symbolic Z-matrix:
 Charge =  0 Multiplicity = 1

                         Standard orientation:
 ---------------------------------------------------------------------
 Center     Atomic      Atomic             Coordinates (Angstroms)
 Number     Number       Type             X           Y           Z
 ---------------------------------------------------------------------
      1          6           0       -2.583989   -1.961522    1.131760
      2          6           0       -1.637963   -1.090397    1.681939
      3          6           0       -1.513687    0.217172    1.203016
      4          6           0       -2.355434    0.622226    0.168278
      5          6           0       -3.307700   -0.222107   -0.400562
      6          6           0       -3.414374   -1.525366    0.094094
      7          1           0       -2.673693   -2.975599    1.509910
      8          1           0       -0.991742   -1.426393    2.487885
      9          1           0       -0.789880    0.912384    1.610696
     10          1           0       -3.937838    0.141579   -1.203106
     11          1           0       -4.149969   -2.199712   -0.335095
     12          7           0       -2.233186    2.004210   -0.347064
     13          8           0       -2.986626    2.336791   -1.259399
     14          8           0       -1.386242    2.728659    0.171104
     15          6           0        3.612722   -0.018373   -0.463963
     16          6           0        4.333420    0.449833    0.800696
     17          6           0        5.475170    1.422728    0.504590
     18          1           0        4.338421   -0.496165   -1.136289
     19          1           0        3.220061    0.857210   -0.999282
     20          1           0        4.723410   -0.426472    1.334187
     21          1           0        3.605887    0.926396    1.470172
     22          1           0        5.098585    2.314406   -0.006970
     23          1           0        6.222458    0.953853   -0.143729
     24          1           0        5.976584    1.744638    1.422641
     25          6           0        2.468767   -0.991441   -0.184263
     26          6           0        1.748070   -1.459648   -1.448921
     27          6           0        0.606320   -2.432543   -1.152816
     28          1           0        2.861428   -1.867024    0.351057
     29          1           0        1.743070   -0.513649    0.488064
     30          1           0        2.475603   -1.936210   -2.118398
     31          1           0        1.358080   -0.583342   -1.982413
     32          1           0       -0.140968   -1.963668   -0.504497
     33          1           0        0.982905   -3.324221   -0.641256
     34          1           0        0.104906   -2.754452   -2.070867
 ---------------------------------------------------------------------

 SCF Done:  E(RHF) =  -669.534649401     A.U. after   15 cycles
 E2 =    -0.2093818649D+01 EUMP2 =    -0.67162846805022D+03

 The electronic state is 1-A.
 Alpha  occ. eigenvalues --  -20.60871 -20.60865 -15.85925 -11.31324 -11.27881
 Alpha  occ. eigenvalues --  -11.27874 -11.27585 -11.26890 -11.26862 -11.21621
 Alpha  occ. eigenvalues --  -11.21615 -11.21509 -11.21347 -11.21014 -11.20998
 Alpha  occ. eigenvalues --   -1.59945  -1.39498  -1.19501  -1.08880  -1.08459
 Alpha  occ. eigenvalues --   -1.04898  -1.03532  -0.95990  -0.95704  -0.87012
 Alpha  occ. eigenvalues --   -0.86280  -0.82533  -0.79612  -0.78295  -0.77579
 Alpha  occ. eigenvalues --   -0.72140  -0.71270  -0.70576  -0.65142  -0.65092
 Alpha  occ. eigenvalues --   -0.64875  -0.62232  -0.60961  -0.59365  -0.57632
 Alpha  occ. eigenvalues --   -0.55410  -0.55369  -0.53354  -0.52968  -0.52670
 Alpha  occ. eigenvalues --   -0.52279  -0.49859  -0.48902  -0.48894  -0.47903
 Alpha  occ. eigenvalues --   -0.46610  -0.45827  -0.45743  -0.44895  -0.43805
 Alpha  occ. eigenvalues --   -0.37420  -0.36445
 Alpha virt. eigenvalues --    0.04910   0.11114   0.16353   0.20910   0.22902
 Alpha virt. eigenvalues --    0.24357   0.25698   0.27045   0.27751   0.28076
 Alpha virt. eigenvalues --    0.28957   0.30908   0.31499   0.31853   0.32013

 Mulliken charges:
               1
     1  C   -0.169542
     2  C   -0.221906
     3  C   -0.171233
     4  C    0.159738
     5  C   -0.170992
     6  C   -0.216178
     7  H    0.226985
     8  H    0.225472
     9  H    0.275958
    10  H    0.276244
    11  H    0.224424
    12  N    0.488050
    13  O   -0.459843
    14  O   -0.460418
    15  C   -0.299148
    16  C   -0.299256
    17  C   -0.476080
    18  H    0.149796
    19  H    0.155028
    20  H    0.149699
    21  H    0.150658
    22  H    0.158513
    23  H    0.154873
    24  H    0.159872
    25  C   -0.297797
    26  C   -0.298786
    27  C   -0.486091
    28  H    0.146575
    29  H    0.143538
    30  H    0.151682
    31  H    0.155295
    32  H    0.167906
    33  H    0.148867
    34  H    0.158098
 Sum of Mulliken charges =  -0.00000

 Dipole moment (field-independent basis, Debye):
    X=             -0.5601    Y=             -4.7862    Z=              1.8149  Tot=              5.1493
 Quadrupole moment (field-independent basis, Debye-Ang):
   XX=            -90.4546   YY=           -101.4256   ZZ=            -92.4519
   XY=             11.4368   XZ=             -1.7567   YZ=              0.8386

 Normal termination of Gaussian 16 at Thu May  6 19:03:19 2021.
