 Gaussian 16, Revision A.03,
 Gaussian 16:  EM64L-G16RevA.03 25-Dec-2016

 -------------
 #p 6-31g* mp2
 -------------

 ------------------------------------------------------
 Input file generated by CHIRIPA (05-May-2021 14:53:16)
 ------------------------------------------------------
 Symbolic Z-matrix:
 Charge =  0 Multiplicity = 1

                         Standard orientation:
 ---------------------------------------------------------------------
 Center     Atomic      Atomic             Coordinates (Angstroms)
 Number     Number       Type             X           Y           Z
 ---------------------------------------------------------------------
      1          6           0       -3.463255   -0.284546    0.445438
      2          6           0       -3.963131   -0.620969   -0.959884
      3          6           0       -4.942427   -1.795100   -0.973666
      4          1           0       -2.980590   -1.171533    0.878144
      5          1           0       -4.324236   -0.052659    1.087572
      6          1           0       -3.101364   -0.850804   -1.599532
      7          1           0       -4.444492    0.266978   -1.389368
      8          1           0       -5.820124   -1.571933   -0.358486
      9          1           0       -4.469365   -2.696067   -0.569845
     10          1           0       -5.287096   -2.018515   -1.988135
     11          6           0       -2.483450    0.887120    0.475581
     12          6           0       -1.983575    1.223543    1.880903
     13          6           0       -1.004279    2.397674    1.894685
     14          1           0       -1.622469    0.655233   -0.166553
     15          1           0       -2.966115    1.774107    0.042875
     16          1           0       -1.502213    0.335596    2.310387
     17          1           0       -2.845341    1.453379    2.520551
     18          1           0       -1.477341    3.298641    1.490864
     19          1           0       -0.126582    2.174507    1.279505
     20          1           0       -0.659609    2.621089    2.909154
     21          6           0        1.571871    1.628170   -1.885882
     22          6           0        0.734217    0.532054   -1.654826
     23          6           0        1.140003   -0.506249   -0.811138
     24          6           0        2.395542   -0.415542   -0.212234
     25          6           0        3.252788    0.663416   -0.422633
     26          6           0        2.826271    1.690243   -1.270133
     27          1           0        1.248593    2.430293   -2.542760
     28          1           0       -0.240499    0.481178   -2.131677
     29          1           0        0.511525   -1.366412   -0.614785
     30          1           0        4.218833    0.686003    0.066925
     31          1           0        3.478900    2.540288   -1.447742
     32          7           0        2.836103   -1.508673    0.682958
     33          8           0        3.946963   -1.405010    1.198595
     34          8           0        2.062214   -2.448433    0.852022
 ---------------------------------------------------------------------

 SCF Done:  E(RHF) =  -669.534753839     A.U. after   15 cycles
 E2 =    -0.2093833902D+01 EUMP2 =    -0.67162858774064D+03

 The electronic state is 1-A.
 Alpha  occ. eigenvalues --  -20.60842 -20.60836 -15.85897 -11.31289 -11.27860
 Alpha  occ. eigenvalues --  -11.27845 -11.27589 -11.26874 -11.26856 -11.22160
 Alpha  occ. eigenvalues --  -11.21807 -11.21765 -11.21706 -11.21435 -11.21215
 Alpha  occ. eigenvalues --   -1.59917  -1.39469  -1.19470  -1.08868  -1.08797
 Alpha  occ. eigenvalues --   -1.04882  -1.03856  -0.96296  -0.95681  -0.87314
 Alpha  occ. eigenvalues --   -0.86265  -0.82526  -0.79938  -0.78666  -0.77546
 Alpha  occ. eigenvalues --   -0.72114  -0.71241  -0.70558  -0.65528  -0.65098
 Alpha  occ. eigenvalues --   -0.64849  -0.62217  -0.61262  -0.59669  -0.57911
 Alpha  occ. eigenvalues --   -0.55591  -0.55346  -0.53240  -0.53013  -0.52961
 Alpha  occ. eigenvalues --   -0.52687  -0.50242  -0.48875  -0.48867  -0.48240
 Alpha  occ. eigenvalues --   -0.46976  -0.46156  -0.46089  -0.44868  -0.44120
 Alpha  occ. eigenvalues --   -0.37427  -0.36386
 Alpha virt. eigenvalues --    0.04949   0.11134   0.16302   0.19688   0.22888
 Alpha virt. eigenvalues --    0.23818   0.25091   0.26485   0.27383   0.28289
 Alpha virt. eigenvalues --    0.29956   0.30414   0.31352   0.31638   0.32277

 Mulliken charges:
               1
     1  C   -0.299610
     2  C   -0.298834
     3  C   -0.476000
     4  H    0.153117
     5  H    0.152309
     6  H    0.141942
     7  H    0.152008
     8  H    0.157458
     9  H    0.158070
    10  H    0.160521
    11  C   -0.305021
    12  C   -0.299529
    13  C   -0.479480
    14  H    0.147911
    15  H    0.147276
    16  H    0.156624
    17  H    0.152917
    18  H    0.151851
    19  H    0.158623
    20  H    0.162232
    21  C   -0.172357
    22  C   -0.218609
    23  C   -0.170442
    24  C    0.158525
    25  C   -0.170998
    26  C   -0.218508
    27  H    0.226856
    28  H    0.227112
    29  H    0.275890
    30  H    0.276136
    31  H    0.224229
    32  N    0.488134
    33  O   -0.459901
    34  O   -0.460453
 Sum of Mulliken charges =  -0.00000

 Dipole moment (field-independent basis, Debye):
    X=             -1.5146    Y=              3.8277    Z=             -3.1080  Tot=              5.1581
 Quadrupole moment (field-independent basis, Debye-Ang):
   XX=            -98.1800   YY=            -97.6536   ZZ=            -93.9266
   XY=             11.5479   XZ=             -6.9399   YZ=              0.6683

 Normal termination of Gaussian 16 at Thu May  6 07:31:10 2021.
