 Gaussian 16, Revision A.03,
 Gaussian 16:  EM64L-G16RevA.03 25-Dec-2016

 -------------
 #p 6-31g* mp2
 -------------

 ------------------------------------------------------
 Input file generated by CHIRIPA (05-May-2021 14:51:07)
 ------------------------------------------------------
 Symbolic Z-matrix:
 Charge =  0 Multiplicity = 1

                         Standard orientation:
 ---------------------------------------------------------------------
 Center     Atomic      Atomic             Coordinates (Angstroms)
 Number     Number       Type             X           Y           Z
 ---------------------------------------------------------------------
      1          6           0        3.453001   -0.407918    0.306330
      2          6           0        3.983091   -1.587833   -0.509017
      3          6           0        3.629346   -2.940481    0.109854
      4          1           0        3.858264   -0.463477    1.325947
      5          1           0        2.361596   -0.495810    0.398553
      6          1           0        5.073014   -1.497000   -0.600849
      7          1           0        3.576670   -1.529352   -1.526867
      8          1           0        2.543449   -3.056854    0.186570
      9          1           0        4.048294   -3.024319    1.117849
     10          1           0        4.017966   -3.769967   -0.489135
     11          6           0        3.798618    0.951157   -0.299632
     12          6           0        3.268528    2.131072    0.515714
     13          6           0        3.622273    3.483721   -0.103156
     14          1           0        4.890023    1.039049   -0.391856
     15          1           0        3.393354    1.006717   -1.319250
     16          1           0        3.674949    2.072592    1.533564
     17          1           0        2.178605    2.040240    0.607547
     18          1           0        3.203324    3.567558   -1.111152
     19          1           0        4.708170    3.600094   -0.179873
     20          1           0        3.233653    4.313207    0.495832
     21          6           0       -4.096249    0.307632   -0.166401
     22          6           0       -5.557600    0.017074    0.177132
     23          6           0       -6.486452    1.185343   -0.154799
     24          1           0       -3.769408    1.203987    0.378272
     25          1           0       -4.018806    0.546347   -1.236173
     26          1           0       -5.632061   -0.222374    1.245652
     27          1           0       -5.880943   -0.878804   -0.368274
     28          1           0       -6.441766    1.421589   -1.222878
     29          1           0       -6.191469    2.081748    0.400219
     30          1           0       -7.526183    0.956150    0.098757
     31          6           0       -3.155369   -0.850871    0.159704
     32          6           0       -1.694019   -0.560313   -0.183829
     33          6           0       -0.765168   -1.728582    0.148101
     34          1           0       -3.232812   -1.089586    1.229476
     35          1           0       -3.482211   -1.747226   -0.384969
     36          1           0       -1.370676    0.335564    0.361577
     37          1           0       -1.619558   -0.320864   -1.252349
     38          1           0       -1.060150   -2.624987   -0.406916
     39          1           0       -0.809853   -1.964828    1.216180
     40          1           0        0.274564   -1.499390   -0.105454
 ---------------------------------------------------------------------

 SCF Done:  E(RHF) =  -470.733211212     A.U. after   11 cycles
 E2 =    -0.1582879556D+01 EUMP2 =    -0.47231609076755D+03

 The electronic state is 1-A.
 Alpha  occ. eigenvalues --  -11.21675 -11.21627 -11.21595 -11.21580 -11.21446
 Alpha  occ. eigenvalues --  -11.21386 -11.21385 -11.21324 -11.21137 -11.21090
 Alpha  occ. eigenvalues --  -11.21065 -11.21014  -1.08476  -1.08416  -1.03583
 Alpha  occ. eigenvalues --   -1.03507  -0.96030  -0.95957  -0.87050  -0.86973
 Alpha  occ. eigenvalues --   -0.79660  -0.79556  -0.78285  -0.78232  -0.65109
 Alpha  occ. eigenvalues --   -0.65069  -0.60971  -0.60942  -0.59450  -0.59267
 Alpha  occ. eigenvalues --   -0.57650  -0.57559  -0.55319  -0.55237  -0.52762
 Alpha  occ. eigenvalues --   -0.52644  -0.52483  -0.52354  -0.49972  -0.49893
 Alpha  occ. eigenvalues --   -0.48000  -0.47859  -0.46675  -0.46596  -0.45827
 Alpha  occ. eigenvalues --   -0.45766  -0.45750  -0.45690  -0.43782  -0.43750
 Alpha virt. eigenvalues --    0.20780   0.23028   0.23785   0.24565   0.26190
 Alpha virt. eigenvalues --    0.26633   0.27210   0.27314   0.27966   0.29079
 Alpha virt. eigenvalues --    0.30313   0.31364   0.31757   0.31928   0.32047

 Mulliken charges:
               1
     1  C   -0.306084
     2  C   -0.299230
     3  C   -0.479091
     4  H    0.149871
     5  H    0.156071
     6  H    0.151978
     7  H    0.151476
     8  H    0.159062
     9  H    0.155023
    10  H    0.160053
    11  C   -0.297695
    12  C   -0.299692
    13  C   -0.475694
    14  H    0.149564
    15  H    0.149471
    16  H    0.151924
    17  H    0.151825
    18  H    0.155252
    19  H    0.155182
    20  H    0.160159
    21  C   -0.298301
    22  C   -0.299691
    23  C   -0.475736
    24  H    0.149738
    25  H    0.149542
    26  H    0.152034
    27  H    0.152006
    28  H    0.155205
    29  H    0.155238
    30  H    0.160359
    31  C   -0.298507
    32  C   -0.299761
    33  C   -0.484359
    34  H    0.149812
    35  H    0.149895
    36  H    0.151876
    37  H    0.151881
    38  H    0.155729
    39  H    0.156018
    40  H    0.167598
 Sum of Mulliken charges =  -0.00000

 Dipole moment (field-independent basis, Debye):
    X=             -0.0288    Y=             -0.0062    Z=              0.0066  Tot=              0.0302
 Quadrupole moment (field-independent basis, Debye-Ang):
   XX=            -84.6975   YY=            -86.3296   ZZ=            -83.7343
   XY=              0.5079   XZ=              0.5391   YZ=              0.8494

 Normal termination of Gaussian 16 at Thu May  6 05:13:48 2021.
