 Gaussian 16, Revision A.03,
 Gaussian 16:  EM64L-G16RevA.03 25-Dec-2016

 -------------
 #p 6-31g* mp2
 -------------

 ------------------------------------------------------
 Input file generated by CHIRIPA (05-May-2021 14:57:27)
 ------------------------------------------------------
 Symbolic Z-matrix:
 Charge =  0 Multiplicity = 1

                         Standard orientation:
 ---------------------------------------------------------------------
 Center     Atomic      Atomic             Coordinates (Angstroms)
 Number     Number       Type             X           Y           Z
 ---------------------------------------------------------------------
      1          6           0        5.131998    0.382146    0.499843
      2          6           0        4.619396   -0.892376    0.763197
      3          6           0        3.315877   -1.225800    0.383438
      4          6           0        2.549241   -0.255956   -0.260736
      5          6           0        3.031512    1.022446   -0.537128
      6          6           0        4.337821    1.333811   -0.148337
      7          1           0        6.145686    0.632589    0.798357
      8          1           0        5.233887   -1.633456    1.266431
      9          1           0        2.893937   -2.204934    0.574960
     10          1           0        2.394961    1.740067   -1.040358
     11          1           0        4.733284    2.324413   -0.354156
     12          7           0        1.167788   -0.597261   -0.667551
     13          8           0        0.512639    0.275008   -1.233735
     14          8           0        0.766312   -1.730582   -0.412526
     15          6           0       -2.354166    2.681719    0.357424
     16          6           0       -2.632697    2.099441   -0.883501
     17          6           0       -2.868536    0.725248   -0.986071
     18          6           0       -2.817792   -0.040247    0.177859
     19          6           0       -2.542857    0.510481    1.428618
     20          6           0       -2.310213    1.886782    1.507496
     21          1           0       -2.172200    3.750043    0.427900
     22          1           0       -2.667475    2.714346   -1.778334
     23          1           0       -3.086436    0.248518   -1.934051
     24          1           0       -2.514965   -0.128333    2.303007
     25          1           0       -2.094139    2.336266    2.472546
     26          7           0       -3.065773   -1.496160    0.081814
     27          8           0       -3.015345   -2.148740    1.122118
     28          8           0       -3.305874   -1.957155   -1.031951
 ---------------------------------------------------------------------

 SCF Done:  E(RHF) =  -868.337388792     A.U. after   16 cycles
 E2 =    -0.2601464243D+01 EUMP2 =    -0.87093885303536D+03

 The electronic state is 1-A.
 Alpha  occ. eigenvalues --  -20.60905 -20.60870 -20.59274 -20.59245 -15.85912
 Alpha  occ. eigenvalues --  -15.84328 -11.31312 -11.29713 -11.27917 -11.27847
 Alpha  occ. eigenvalues --  -11.27634 -11.26928 -11.26877 -11.26430 -11.26310
 Alpha  occ. eigenvalues --  -11.26247 -11.25520 -11.25397  -1.59955  -1.58311
 Alpha  occ. eigenvalues --   -1.39505  -1.37878  -1.19488  -1.17938  -1.08880
 Alpha  occ. eigenvalues --   -1.07356  -1.04895  -1.03396  -0.95709  -0.94184
 Alpha  occ. eigenvalues --   -0.86290  -0.84816  -0.82538  -0.81046  -0.77583
 Alpha  occ. eigenvalues --   -0.76048  -0.72139  -0.71280  -0.70595  -0.70583
 Alpha  occ. eigenvalues --   -0.69574  -0.69169  -0.65140  -0.64898  -0.63652
 Alpha  occ. eigenvalues --   -0.63480  -0.62240  -0.60783  -0.55399  -0.53999
 Alpha  occ. eigenvalues --   -0.53230  -0.52988  -0.51723  -0.51556  -0.48894
 Alpha  occ. eigenvalues --   -0.48853  -0.47332  -0.47307  -0.44881  -0.43286
 Alpha  occ. eigenvalues --   -0.37473  -0.36501  -0.35928  -0.34921
 Alpha virt. eigenvalues --    0.04948   0.06555   0.11154   0.12686   0.16434
 Alpha virt. eigenvalues --    0.17984   0.21293   0.22504   0.27195   0.28195
 Alpha virt. eigenvalues --    0.28394   0.29413   0.30839   0.31965   0.32429

 Mulliken charges:
               1
     1  C   -0.170915
     2  C   -0.218694
     3  C   -0.170744
     4  C    0.158529
     5  C   -0.171356
     6  C   -0.218757
     7  H    0.225727
     8  H    0.224618
     9  H    0.278950
    10  H    0.272849
    11  H    0.222301
    12  N    0.488475
    13  O   -0.464694
    14  O   -0.454494
    15  C   -0.171777
    16  C   -0.214074
    17  C   -0.149806
    18  C    0.166789
    19  C   -0.173598
    20  C   -0.220675
    21  H    0.217398
    22  H    0.217480
    23  H    0.274078
    24  H    0.270721
    25  H    0.215457
    26  N    0.492963
    27  O   -0.466325
    28  O   -0.460424
 Sum of Mulliken charges =  -0.00000

 Dipole moment (field-independent basis, Debye):
    X=              5.9253    Y=              6.0355    Z=              1.5430  Tot=              8.5975
 Quadrupole moment (field-independent basis, Debye-Ang):
   XX=            -86.6756   YY=           -102.9307   ZZ=           -100.9292
   XY=            -13.1627   XZ=              3.4169   YZ=             -2.4840

 Normal termination of Gaussian 16 at Thu May  6 19:48:09 2021.
