 Gaussian 16, Revision A.03,
 Gaussian 16:  EM64L-G16RevA.03 25-Dec-2016

 -------------
 #p 6-31g* mp2
 -------------

 ------------------------------------------------------
 Input file generated by CHIRIPA (05-May-2021 14:55:20)
 ------------------------------------------------------
 Symbolic Z-matrix:
 Charge =  0 Multiplicity = 1

                         Standard orientation:
 ---------------------------------------------------------------------
 Center     Atomic      Atomic             Coordinates (Angstroms)
 Number     Number       Type             X           Y           Z
 ---------------------------------------------------------------------
      1          6           0        1.306732    1.975907    0.828805
      2          6           0        2.386612    2.113935   -0.049449
      3          6           0        3.138509    0.998759   -0.431000
      4          6           0        2.781066   -0.245038    0.087164
      5          6           0        1.710700   -0.414884    0.963952
      6          6           0        0.972812    0.714163    1.331816
      7          1           0        0.728082    2.847590    1.119887
      8          1           0        2.648228    3.092591   -0.441666
      9          1           0        3.979408    1.077093   -1.109359
     10          1           0        1.474028   -1.403428    1.338365
     11          1           0        0.134676    0.603979    2.014042
     12          7           0        3.569651   -1.432967   -0.309522
     13          8           0        3.234379   -2.517802    0.160969
     14          8           0        4.508083   -1.256736   -1.083424
     15          6           0       -3.479371    0.802310   -0.367091
     16          6           0       -2.203816    1.622551   -0.171770
     17          6           0       -2.391689    3.099539   -0.519623
     18          1           0       -3.811487    0.895457   -1.410147
     19          1           0       -4.279261    1.227557    0.254791
     20          1           0       -1.406194    1.195045   -0.792780
     21          1           0       -1.874592    1.527286    0.870896
     22          1           0       -3.168549    3.547440    0.108449
     23          1           0       -2.697489    3.213312   -1.564680
     24          1           0       -1.467568    3.667261   -0.372818
     25          6           0       -3.307440   -0.676222   -0.023417
     26          6           0       -4.582994   -1.496462   -0.218739
     27          6           0       -4.395121   -2.973450    0.129115
     28          1           0       -2.507549   -1.101469   -0.645298
     29          1           0       -2.975324   -0.769368    1.019640
     30          1           0       -4.912218   -1.401197   -1.261404
     31          1           0       -5.380616   -1.068957    0.402272
     32          1           0       -4.089321   -3.087224    1.174171
     33          1           0       -3.618261   -3.421352   -0.498958
     34          1           0       -5.319241   -3.541172   -0.017690
 ---------------------------------------------------------------------

 SCF Done:  E(RHF) =  -669.534286833     A.U. after   15 cycles
 E2 =    -0.2093194001D+01 EUMP2 =    -0.67162748083329D+03

 The electronic state is 1-A.
 Alpha  occ. eigenvalues --  -20.60745 -20.60739 -15.85797 -11.31155 -11.27719
 Alpha  occ. eigenvalues --  -11.27695 -11.27440 -11.26744 -11.26704 -11.22366
 Alpha  occ. eigenvalues --  -11.22008 -11.21987 -11.21961 -11.21905 -11.21353
 Alpha  occ. eigenvalues --   -1.59820  -1.39374  -1.19328  -1.09038  -1.08715
 Alpha  occ. eigenvalues --   -1.04732  -1.04121  -0.96573  -0.95556  -0.87586
 Alpha  occ. eigenvalues --   -0.86135  -0.82390  -0.80208  -0.78834  -0.77433
 Alpha  occ. eigenvalues --   -0.72016  -0.71144  -0.70442  -0.65677  -0.64977
 Alpha  occ. eigenvalues --   -0.64737  -0.62103  -0.61488  -0.59985  -0.58199
 Alpha  occ. eigenvalues --   -0.55839  -0.55226  -0.53322  -0.53046  -0.52975
 Alpha  occ. eigenvalues --   -0.52810  -0.50495  -0.48793  -0.48771  -0.48479
 Alpha  occ. eigenvalues --   -0.47217  -0.46369  -0.46258  -0.44782  -0.44379
 Alpha  occ. eigenvalues --   -0.37246  -0.36299
 Alpha virt. eigenvalues --    0.05062   0.11292   0.16464   0.19677   0.22697
 Alpha virt. eigenvalues --    0.23696   0.24776   0.26242   0.26618   0.28591
 Alpha virt. eigenvalues --    0.28861   0.30082   0.31176   0.31651   0.32213

 Mulliken charges:
               1
     1  C   -0.169206
     2  C   -0.219991
     3  C   -0.171439
     4  C    0.158312
     5  C   -0.173217
     6  C   -0.214142
     7  H    0.227060
     8  H    0.223189
     9  H    0.275356
    10  H    0.275506
    11  H    0.223868
    12  N    0.488028
    13  O   -0.460489
    14  O   -0.460623
    15  C   -0.298860
    16  C   -0.300302
    17  C   -0.476550
    18  H    0.152546
    19  H    0.149710
    20  H    0.160778
    21  H    0.139991
    22  H    0.156919
    23  H    0.160302
    24  H    0.151364
    25  C   -0.298485
    26  C   -0.300035
    27  C   -0.476343
    28  H    0.152945
    29  H    0.143870
    30  H    0.153735
    31  H    0.152012
    32  H    0.154363
    33  H    0.157843
    34  H    0.161985
 Sum of Mulliken charges =  -0.00000

 Dipole moment (field-independent basis, Debye):
    X=             -2.8946    Y=              4.1207    Z=              1.2957  Tot=              5.1998
 Quadrupole moment (field-independent basis, Debye-Ang):
   XX=           -108.7538   YY=            -96.8156   ZZ=            -92.5262
   XY=             14.4546   XZ=              1.7842   YZ=             -1.5216

 Normal termination of Gaussian 16 at Wed May  5 20:33:03 2021.
