 Gaussian 16, Revision A.03,
 Gaussian 16:  EM64L-G16RevA.03 25-Dec-2016

 -------------
 #p 6-31g* mp2
 -------------

 ------------------------------------------------------
 Input file generated by CHIRIPA (05-May-2021 14:55:23)
 ------------------------------------------------------
 Symbolic Z-matrix:
 Charge =  0 Multiplicity = 1

                         Standard orientation:
 ---------------------------------------------------------------------
 Center     Atomic      Atomic             Coordinates (Angstroms)
 Number     Number       Type             X           Y           Z
 ---------------------------------------------------------------------
      1          6           0        4.380833    0.591836   -1.024442
      2          6           0        3.949783   -0.678501   -1.420622
      3          6           0        2.887344   -1.305050   -0.762436
      4          6           0        2.276006   -0.629408    0.292582
      5          6           0        2.682470    0.636773    0.710746
      6          6           0        3.746918    1.244269    0.038105
      7          1           0        5.206942    1.071154   -1.541351
      8          1           0        4.440217   -1.187558   -2.245475
      9          1           0        2.533343   -2.288050   -1.048464
     10          1           0        2.173849    1.119271    1.536530
     11          1           0        4.079550    2.230877    0.347951
     12          7           0        1.150186   -1.282622    0.997026
     13          8           0        0.628255   -0.666312    1.923518
     14          8           0        0.811017   -2.398552    0.609339
     15          6           0       -3.390595    0.002373   -0.514129
     16          6           0       -4.823866   -0.350098   -0.114777
     17          6           0       -5.289250   -1.684183   -0.699097
     18          1           0       -3.319720    0.035744   -1.609943
     19          1           0       -2.716978   -0.799543   -0.181615
     20          1           0       -5.494401    0.452903   -0.446725
     21          1           0       -4.891383   -0.382446    0.980216
     22          1           0       -4.644049   -2.500213   -0.357903
     23          1           0       -5.250493   -1.660118   -1.792953
     24          1           0       -6.316401   -1.916531   -0.401047
     25          6           0       -2.910985    1.333310    0.062336
     26          6           0       -1.477714    1.685781   -0.337016
     27          6           0       -1.012330    3.019866    0.247304
     28          1           0       -3.584602    2.135226   -0.270178
     29          1           0       -2.981860    1.299939    1.158150
     30          1           0       -1.410197    1.718128   -1.432009
     31          1           0       -0.807180    0.882780   -0.005067
     32          1           0       -1.051086    2.995801    1.341160
     33          1           0       -1.657531    3.835895   -0.093890
     34          1           0        0.014822    3.252213   -0.050746
 ---------------------------------------------------------------------

 SCF Done:  E(RHF) =  -669.536369225     A.U. after   15 cycles
 E2 =    -0.2092218194D+01 EUMP2 =    -0.67162858741904D+03

 The electronic state is 1-A.
 Alpha  occ. eigenvalues --  -20.60985 -20.60979 -15.85996 -11.31280 -11.27842
 Alpha  occ. eigenvalues --  -11.27837 -11.27576 -11.26844 -11.26834 -11.21024
 Alpha  occ. eigenvalues --  -11.20887 -11.20771 -11.20684 -11.20558 -11.20388
 Alpha  occ. eigenvalues --   -1.60042  -1.39598  -1.19448  -1.08862  -1.07736
 Alpha  occ. eigenvalues --   -1.04838  -1.02925  -0.95710  -0.95386  -0.86410
 Alpha  occ. eigenvalues --   -0.86241  -0.82545  -0.79001  -0.77613  -0.77533
 Alpha  occ. eigenvalues --   -0.72227  -0.71367  -0.70557  -0.65107  -0.64843
 Alpha  occ. eigenvalues --   -0.64332  -0.62187  -0.60304  -0.58782  -0.57006
 Alpha  occ. eigenvalues --   -0.55348  -0.54656  -0.53166  -0.52929  -0.52129
 Alpha  occ. eigenvalues --   -0.51821  -0.49319  -0.48993  -0.48983  -0.47339
 Alpha  occ. eigenvalues --   -0.46090  -0.45197  -0.45060  -0.44677  -0.43162
 Alpha  occ. eigenvalues --   -0.37422  -0.36431
 Alpha virt. eigenvalues --    0.04906   0.11175   0.16381   0.21192   0.23473
 Alpha virt. eigenvalues --    0.24629   0.27110   0.27260   0.28032   0.28130
 Alpha virt. eigenvalues --    0.28910   0.30805   0.31874   0.32104   0.32426

 Mulliken charges:
               1
     1  C   -0.170342
     2  C   -0.218592
     3  C   -0.170525
     4  C    0.157417
     5  C   -0.171001
     6  C   -0.219093
     7  H    0.226020
     8  H    0.223805
     9  H    0.275794
    10  H    0.276938
    11  H    0.224083
    12  N    0.488111
    13  O   -0.458594
    14  O   -0.458420
    15  C   -0.301838
    16  C   -0.299236
    17  C   -0.476178
    18  H    0.145036
    19  H    0.161875
    20  H    0.148342
    21  H    0.153944
    22  H    0.159657
    23  H    0.152471
    24  H    0.157849
    25  C   -0.297026
    26  C   -0.302329
    27  C   -0.476130
    28  H    0.145137
    29  H    0.154922
    30  H    0.147118
    31  H    0.157602
    32  H    0.158379
    33  H    0.153843
    34  H    0.150964
 Sum of Mulliken charges =  -0.00000

 Dipole moment (field-independent basis, Debye):
    X=              4.0958    Y=              2.1309    Z=             -2.3698  Tot=              5.1896
 Quadrupole moment (field-independent basis, Debye-Ang):
   XX=            -77.7159   YY=            -95.7869   ZZ=            -94.3858
   XY=              2.0456   XZ=             -5.2255   YZ=              4.4032

 Normal termination of Gaussian 16 at Wed May  5 23:57:58 2021.
