 Gaussian 16, Revision A.03,
 Gaussian 16:  EM64L-G16RevA.03 25-Dec-2016

 -------------
 #p 6-31g* mp2
 -------------

 ------------------------------------------------------
 Input file generated by CHIRIPA (05-May-2021 14:53:17)
 ------------------------------------------------------
 Symbolic Z-matrix:
 Charge =  0 Multiplicity = 1

                         Standard orientation:
 ---------------------------------------------------------------------
 Center     Atomic      Atomic             Coordinates (Angstroms)
 Number     Number       Type             X           Y           Z
 ---------------------------------------------------------------------
      1          6           0        3.754566   -0.709468    0.216427
      2          6           0        4.386834    0.659054   -0.039248
      3          6           0        5.840564    0.735272    0.428355
      4          1           0        3.808273   -0.936301    1.290022
      5          1           0        4.346422   -1.480553   -0.295950
      6          1           0        3.793168    1.427480    0.472318
      7          1           0        4.331443    0.882740   -1.112333
      8          1           0        6.451788   -0.010085   -0.090730
      9          1           0        5.910455    0.537750    1.502925
     10          1           0        6.272949    1.722134    0.235984
     11          6           0        2.301364   -0.801276   -0.245637
     12          6           0        1.669096   -2.169798    0.010037
     13          6           0        0.215365   -2.246016   -0.457566
     14          1           0        1.709508   -0.030191    0.266740
     15          1           0        2.247657   -0.574443   -1.319233
     16          1           0        1.724487   -2.393484    1.083123
     17          1           0        2.262761   -2.938224   -0.501529
     18          1           0        0.145474   -2.048493   -1.532136
     19          1           0       -0.395859   -1.500659    0.061519
     20          1           0       -0.217019   -3.232878   -0.265194
     21          6           0       -3.808575   -1.437408    0.427116
     22          6           0       -3.375788   -1.140152   -0.869361
     23          6           0       -2.575934   -0.019349   -1.111402
     24          6           0       -2.226096    0.786150   -0.028779
     25          6           0       -2.641475    0.516434    1.274296
     26          6           0       -3.440685   -0.609626    1.492929
     27          1           0       -4.429671   -2.310116    0.606048
     28          1           0       -3.659951   -1.781238   -1.699002
     29          1           0       -2.226929    0.234113   -2.105068
     30          1           0       -2.341933    1.174252    2.081121
     31          1           0       -3.775330   -0.838033    2.500842
     32          7           0       -1.379667    1.975475   -0.272626
     33          8           0       -1.085198    2.669291    0.698223
     34          8           0       -1.026732    2.191335   -1.429984
 ---------------------------------------------------------------------

 SCF Done:  E(RHF) =  -669.534407914     A.U. after   15 cycles
 E2 =    -0.2093720237D+01 EUMP2 =    -0.67162812815090D+03

 The electronic state is 1-A.
 Alpha  occ. eigenvalues --  -20.60799 -20.60790 -15.85852 -11.31184 -11.27816
 Alpha  occ. eigenvalues --  -11.27749 -11.27539 -11.26818 -11.26765 -11.21414
 Alpha  occ. eigenvalues --  -11.21075 -11.21028 -11.20970 -11.20963 -11.20636
 Alpha  occ. eigenvalues --   -1.59874  -1.39427  -1.19408  -1.08788  -1.08081
 Alpha  occ. eigenvalues --   -1.04800  -1.03216  -0.95707  -0.95602  -0.86713
 Alpha  occ. eigenvalues --   -0.86191  -0.82452  -0.79287  -0.77869  -0.77501
 Alpha  occ. eigenvalues --   -0.72069  -0.71204  -0.70501  -0.65044  -0.64795
 Alpha  occ. eigenvalues --   -0.64714  -0.62143  -0.60634  -0.59065  -0.57336
 Alpha  occ. eigenvalues --   -0.55297  -0.55101  -0.53397  -0.52883  -0.52361
 Alpha  occ. eigenvalues --   -0.51845  -0.49558  -0.48827  -0.48823  -0.47558
 Alpha  occ. eigenvalues --   -0.46279  -0.45414  -0.45321  -0.44825  -0.43467
 Alpha  occ. eigenvalues --   -0.37365  -0.36350
 Alpha virt. eigenvalues --    0.05024   0.11244   0.16479   0.21331   0.23124
 Alpha virt. eigenvalues --    0.24510   0.26740   0.27212   0.27722   0.28247
 Alpha virt. eigenvalues --    0.28459   0.30967   0.31471   0.31955   0.32231

 Mulliken charges:
               1
     1  C   -0.298105
     2  C   -0.300611
     3  C   -0.475712
     4  H    0.147940
     5  H    0.147494
     6  H    0.158051
     7  H    0.153601
     8  H    0.153145
     9  H    0.153809
    10  H    0.160979
    11  C   -0.299120
    12  C   -0.299542
    13  C   -0.477921
    14  H    0.151962
    15  H    0.152524
    16  H    0.149987
    17  H    0.150201
    18  H    0.150652
    19  H    0.162516
    20  H    0.154245
    21  C   -0.170655
    22  C   -0.213819
    23  C   -0.169709
    24  C    0.157656
    25  C   -0.173757
    26  C   -0.217523
    27  H    0.225908
    28  H    0.223781
    29  H    0.275374
    30  H    0.275715
    31  H    0.223676
    32  N    0.488529
    33  O   -0.461475
    34  O   -0.459793
 Sum of Mulliken charges =  -0.00000

 Dipole moment (field-independent basis, Debye):
    X=             -3.0773    Y=             -4.0845    Z=              0.8299  Tot=              5.1809
 Quadrupole moment (field-independent basis, Debye-Ang):
   XX=            -83.2683   YY=           -102.1234   ZZ=            -89.3028
   XY=              7.2208   XZ=             -2.6573   YZ=              2.2295

 Normal termination of Gaussian 16 at Thu May  6 02:47:02 2021.
