 Gaussian 16, Revision A.03,
 Gaussian 16:  EM64L-G16RevA.03 25-Dec-2016

 -------------
 #p 6-31g* mp2
 -------------

 ------------------------------------------------------
 Input file generated by CHIRIPA (05-May-2021 14:55:19)
 ------------------------------------------------------
 Symbolic Z-matrix:
 Charge =  0 Multiplicity = 1

                         Standard orientation:
 ---------------------------------------------------------------------
 Center     Atomic      Atomic             Coordinates (Angstroms)
 Number     Number       Type             X           Y           Z
 ---------------------------------------------------------------------
      1          6           0       -3.946537   -2.276436    0.340565
      2          6           0       -3.686896   -1.834812   -0.961002
      3          6           0       -3.068998   -0.600328   -1.181907
      4          6           0       -2.722579    0.170403   -0.073188
      5          6           0       -2.968011   -0.242050    1.235603
      6          6           0       -3.586900   -1.480050    1.432788
      7          1           0       -4.426919   -3.236779    0.502956
      8          1           0       -3.965094   -2.451194   -1.811133
      9          1           0       -2.856298   -0.234130   -2.178940
     10          1           0       -2.679096    0.394541    2.063068
     11          1           0       -3.787314   -1.820473    2.444712
     12          7           0       -2.067914    1.479158   -0.294494
     13          8           0       -1.772505    2.139472    0.699164
     14          8           0       -1.862592    1.819863   -1.457421
     15          6           0        4.231303   -0.385621    0.175950
     16          6           0        4.058719   -1.815578   -0.337297
     17          6           0        5.284005   -2.690821   -0.071935
     18          1           0        5.114313    0.063544   -0.298907
     19          1           0        4.436690   -0.413075    1.255051
     20          1           0        3.852346   -1.785362   -1.414846
     21          1           0        3.175906   -2.261325    0.138694
     22          1           0        5.489405   -2.750723    1.001761
     23          1           0        6.169690   -2.272055   -0.560605
     24          1           0        5.139048   -3.708774   -0.446926
     25          6           0        3.014713    0.501576   -0.081962
     26          6           0        3.187297    1.931533    0.431285
     27          6           0        1.962012    2.806777    0.165923
     28          1           0        2.809325    0.529031   -1.161063
     29          1           0        2.131704    0.052412    0.392896
     30          1           0        4.070111    2.377280   -0.044706
     31          1           0        3.393670    1.901317    1.508835
     32          1           0        1.076327    2.388010    0.654594
     33          1           0        1.756611    2.866678   -0.907773
     34          1           0        2.106969    3.824730    0.540914
 ---------------------------------------------------------------------

 SCF Done:  E(RHF) =  -669.536113986     A.U. after   15 cycles
 E2 =    -0.2091181705D+01 EUMP2 =    -0.67162729569082D+03

 The electronic state is 1-A.
 Alpha  occ. eigenvalues --  -20.60920 -20.60914 -15.85942 -11.31280 -11.27846
 Alpha  occ. eigenvalues --  -11.27839 -11.27583 -11.26854 -11.26843 -11.21301
 Alpha  occ. eigenvalues --  -11.20917 -11.20855 -11.20721 -11.20637 -11.19555
 Alpha  occ. eigenvalues --   -1.59971  -1.39529  -1.19448  -1.08849  -1.07833
 Alpha  occ. eigenvalues --   -1.04847  -1.02832  -0.95690  -0.95244  -0.86258
 Alpha  occ. eigenvalues --   -0.86241  -0.82523  -0.78929  -0.77605  -0.77575
 Alpha  occ. eigenvalues --   -0.72163  -0.71286  -0.70557  -0.65104  -0.64849
 Alpha  occ. eigenvalues --   -0.64475  -0.62194  -0.60232  -0.58705  -0.56856
 Alpha  occ. eigenvalues --   -0.55351  -0.54528  -0.53178  -0.52939  -0.51933
 Alpha  occ. eigenvalues --   -0.51661  -0.49248  -0.48920  -0.48871  -0.47197
 Alpha  occ. eigenvalues --   -0.46008  -0.45200  -0.45092  -0.44754  -0.43101
 Alpha  occ. eigenvalues --   -0.37426  -0.36448
 Alpha virt. eigenvalues --    0.04920   0.11207   0.16401   0.21340   0.23396
 Alpha virt. eigenvalues --    0.25066   0.27202   0.27260   0.27996   0.28213
 Alpha virt. eigenvalues --    0.28897   0.30892   0.32124   0.32291   0.32510

 Mulliken charges:
               1
     1  C   -0.170606
     2  C   -0.218521
     3  C   -0.170613
     4  C    0.158684
     5  C   -0.171116
     6  C   -0.218549
     7  H    0.225964
     8  H    0.223829
     9  H    0.275891
    10  H    0.275593
    11  H    0.223739
    12  N    0.488250
    13  O   -0.459430
    14  O   -0.458278
    15  C   -0.297519
    16  C   -0.298827
    17  C   -0.475212
    18  H    0.149232
    19  H    0.148009
    20  H    0.151413
    21  H    0.149377
    22  H    0.154402
    23  H    0.155331
    24  H    0.158047
    25  C   -0.296791
    26  C   -0.300283
    27  C   -0.480499
    28  H    0.150212
    29  H    0.146045
    30  H    0.148041
    31  H    0.147829
    32  H    0.171172
    33  H    0.158456
    34  H    0.156729
 Sum of Mulliken charges =  -0.00000

 Dipole moment (field-independent basis, Debye):
    X=             -2.5701    Y=             -4.5426    Z=              0.7408  Tot=              5.2715
 Quadrupole moment (field-independent basis, Debye-Ang):
   XX=            -84.2390   YY=            -97.4379   ZZ=            -89.1595
   XY=             13.2383   XZ=             -2.2925   YZ=              1.0646

 Normal termination of Gaussian 16 at Wed May  5 18:51:40 2021.
