 Gaussian 16, Revision A.03,
 Gaussian 16:  EM64L-G16RevA.03 25-Dec-2016

 -------------
 #p 6-31g* mp2
 -------------

 ------------------------------------------------------
 Input file generated by CHIRIPA (05-May-2021 14:57:22)
 ------------------------------------------------------
 Symbolic Z-matrix:
 Charge =  0 Multiplicity = 1

                         Standard orientation:
 ---------------------------------------------------------------------
 Center     Atomic      Atomic             Coordinates (Angstroms)
 Number     Number       Type             X           Y           Z
 ---------------------------------------------------------------------
      1          6           0       -1.590570    0.569806    2.331534
      2          6           0       -2.574807    1.397224    1.780917
      3          6           0       -3.274246    1.003704    0.636158
      4          6           0       -2.962443   -0.229264    0.065317
      5          6           0       -1.987262   -1.075836    0.590319
      6          6           0       -1.300451   -0.661912    1.735529
      7          1           0       -1.052134    0.883428    3.220986
      8          1           0       -2.802222    2.354327    2.241658
      9          1           0       -4.041008    1.624679    0.189073
     10          1           0       -1.782735   -2.024294    0.108640
     11          1           0       -0.536583   -1.306548    2.160963
     12          7           0       -3.696224   -0.656666   -1.146827
     13          8           0       -3.402806   -1.747665   -1.630836
     14          8           0       -4.550884    0.107427   -1.589945
     15          6           0        1.665124    2.317350   -0.833251
     16          6           0        3.062092    2.252839   -0.862229
     17          6           0        3.724517    1.062126   -0.549271
     18          6           0        2.955236   -0.049856   -0.210166
     19          6           0        1.562112   -0.017161   -0.172357
     20          6           0        0.920904    1.184143   -0.489014
     21          1           0        1.158777    3.246438   -1.077801
     22          1           0        3.642633    3.131326   -1.129210
     23          1           0        4.804865    0.984319   -0.563820
     24          1           0        1.010491   -0.909507    0.097551
     25          1           0       -0.164118    1.231322   -0.465682
     26          7           0        3.645285   -1.316017    0.123108
     27          8           0        2.944675   -2.281636    0.418678
     28          8           0        4.873688   -1.318838    0.082446
 ---------------------------------------------------------------------

 SCF Done:  E(RHF) =  -868.336714799     A.U. after   16 cycles
 E2 =    -0.2604083926D+01 EUMP2 =    -0.87094079872490D+03

 The electronic state is 1-A.
 Alpha  occ. eigenvalues --  -20.61487 -20.61470 -20.61132 -20.61104 -15.86543
 Alpha  occ. eigenvalues --  -15.86164 -11.32140 -11.31423 -11.28701 -11.28624
 Alpha  occ. eigenvalues --  -11.28347 -11.27954 -11.27917 -11.27709 -11.27656
 Alpha  occ. eigenvalues --  -11.27603 -11.26976 -11.26847  -1.60558  -1.60192
 Alpha  occ. eigenvalues --   -1.40102  -1.39752  -1.20332  -1.19570  -1.09631
 Alpha  occ. eigenvalues --   -1.08987  -1.05749  -1.04929  -0.96429  -0.95846
 Alpha  occ. eigenvalues --   -0.87065  -0.86361  -0.83252  -0.82671  -0.78296
 Alpha  occ. eigenvalues --   -0.77746  -0.72739  -0.72385  -0.71901  -0.71513
 Alpha  occ. eigenvalues --   -0.71300  -0.70706  -0.65913  -0.65657  -0.65221
 Alpha  occ. eigenvalues --   -0.64942  -0.63042  -0.62344  -0.56102  -0.55531
 Alpha  occ. eigenvalues --   -0.54066  -0.53737  -0.53263  -0.52871  -0.49522
 Alpha  occ. eigenvalues --   -0.49491  -0.49155  -0.49119  -0.45455  -0.45178
 Alpha  occ. eigenvalues --   -0.38423  -0.37573  -0.37376  -0.36345
 Alpha virt. eigenvalues --    0.04183   0.04741   0.10199   0.11173   0.15581
 Alpha virt. eigenvalues --    0.16320   0.20211   0.21663   0.25559   0.27387
 Alpha virt. eigenvalues --    0.27513   0.28906   0.29931   0.31182   0.31792

 Mulliken charges:
               1
     1  C   -0.169454
     2  C   -0.221638
     3  C   -0.176706
     4  C    0.157463
     5  C   -0.182293
     6  C   -0.228473
     7  H    0.231606
     8  H    0.226673
     9  H    0.278246
    10  H    0.282913
    11  H    0.236909
    12  N    0.487877
    13  O   -0.455638
    14  O   -0.458875
    15  C   -0.173589
    16  C   -0.218203
    17  C   -0.171797
    18  C    0.159300
    19  C   -0.174065
    20  C   -0.220656
    21  H    0.225774
    22  H    0.223806
    23  H    0.275595
    24  H    0.267993
    25  H    0.232117
    26  N    0.488658
    27  O   -0.465220
    28  O   -0.458324
 Sum of Mulliken charges =  -0.00000

 Dipole moment (field-independent basis, Debye):
    X=             -0.0561    Y=              5.9699    Z=              3.1963  Tot=              6.7719
 Quadrupole moment (field-independent basis, Debye-Ang):
   XX=           -129.5150   YY=           -101.9542   ZZ=           -104.6157
   XY=              8.1540   XZ=            -16.5483   YZ=             -2.0103

 Normal termination of Gaussian 16 at Thu May  6 17:53:09 2021.
