 Gaussian 16, Revision A.03,
 Gaussian 16:  EM64L-G16RevA.03 25-Dec-2016

 -------------
 #p 6-31g* mp2
 -------------

 ------------------------------------------------------
 Input file generated by CHIRIPA (05-May-2021 14:53:13)
 ------------------------------------------------------
 Symbolic Z-matrix:
 Charge =  0 Multiplicity = 1

                         Standard orientation:
 ---------------------------------------------------------------------
 Center     Atomic      Atomic             Coordinates (Angstroms)
 Number     Number       Type             X           Y           Z
 ---------------------------------------------------------------------
      1          6           0        3.327938   -0.900286   -0.506412
      2          6           0        1.813631   -1.105843   -0.455378
      3          6           0        1.378017   -2.443018   -1.055375
      4          1           0        3.665067   -0.962670   -1.550154
      5          1           0        3.820854   -1.722292    0.030930
      6          1           0        1.323659   -0.282955   -0.991472
      7          1           0        1.480042   -1.042772    0.588345
      8          1           0        1.840041   -3.276115   -0.515853
      9          1           0        1.682771   -2.511981   -2.104647
     10          1           0        0.291860   -2.569236   -1.008564
     11          6           0        3.778889    0.432005    0.089719
     12          6           0        5.293196    0.637562    0.038684
     13          6           0        5.728810    1.974737    0.638682
     14          1           0        3.285974    1.254010   -0.447624
     15          1           0        3.441760    0.494389    1.133461
     16          1           0        5.626786    0.574490   -1.005038
     17          1           0        5.783168   -0.185327    0.574779
     18          1           0        5.424057    2.043699    1.687953
     19          1           0        5.266786    2.807834    0.099160
     20          1           0        6.814968    2.100954    0.591871
     21          6           0       -3.356938    2.423790   -0.840758
     22          6           0       -3.292989    1.287831   -1.654409
     23          6           0       -2.972121    0.041104   -1.109191
     24          6           0       -2.719951   -0.033716    0.259789
     25          6           0       -2.775801    1.079806    1.096591
     26          6           0       -3.098595    2.316341    0.529729
     27          1           0       -3.606944    3.388319   -1.272703
     28          1           0       -3.493138    1.368296   -2.719074
     29          1           0       -2.915675   -0.854431   -1.716025
     30          1           0       -2.571191    0.968181    2.154463
     31          1           0       -3.147531    3.196853    1.164039
     32          7           0       -2.379244   -1.348175    0.848443
     33          8           0       -2.161380   -1.387570    2.057419
     34          8           0       -2.336511   -2.314165    0.089710
 ---------------------------------------------------------------------

 SCF Done:  E(RHF) =  -669.536471333     A.U. after   15 cycles
 E2 =    -0.2091391015D+01 EUMP2 =    -0.67162786234826D+03

 The electronic state is 1-A.
 Alpha  occ. eigenvalues --  -20.60956 -20.60946 -15.85972 -11.31272 -11.27833
 Alpha  occ. eigenvalues --  -11.27828 -11.27568 -11.26837 -11.26827 -11.21392
 Alpha  occ. eigenvalues --  -11.21105 -11.21044 -11.20945 -11.20940 -11.20141
 Alpha  occ. eigenvalues --   -1.60003  -1.39562  -1.19436  -1.08846  -1.08058
 Alpha  occ. eigenvalues --   -1.04831  -1.03101  -0.95694  -0.95529  -0.86545
 Alpha  occ. eigenvalues --   -0.86233  -0.82527  -0.79186  -0.77872  -0.77584
 Alpha  occ. eigenvalues --   -0.72197  -0.71312  -0.70549  -0.65095  -0.64836
 Alpha  occ. eigenvalues --   -0.64693  -0.62180  -0.60504  -0.58912  -0.57133
 Alpha  occ. eigenvalues --   -0.55339  -0.54830  -0.53162  -0.52925  -0.52185
 Alpha  occ. eigenvalues --   -0.51961  -0.49491  -0.48962  -0.48947  -0.47502
 Alpha  occ. eigenvalues --   -0.46238  -0.45416  -0.45338  -0.44945  -0.43302
 Alpha  occ. eigenvalues --   -0.37410  -0.36429
 Alpha virt. eigenvalues --    0.04911   0.11214   0.16373   0.21320   0.23203
 Alpha virt. eigenvalues --    0.24699   0.26984   0.27227   0.27722   0.28036
 Alpha virt. eigenvalues --    0.28637   0.30763   0.31797   0.32011   0.32119

 Mulliken charges:
               1
     1  C   -0.297219
     2  C   -0.301947
     3  C   -0.484662
     4  H    0.147629
     5  H    0.150748
     6  H    0.145153
     7  H    0.155763
     8  H    0.156129
     9  H    0.147965
    10  H    0.178929
    11  C   -0.297825
    12  C   -0.299307
    13  C   -0.475388
    14  H    0.146480
    15  H    0.150115
    16  H    0.151084
    17  H    0.152684
    18  H    0.155071
    19  H    0.153384
    20  H    0.159647
    21  C   -0.170566
    22  C   -0.218641
    23  C   -0.170900
    24  C    0.159290
    25  C   -0.170526
    26  C   -0.218507
    27  H    0.225909
    28  H    0.223769
    29  H    0.275853
    30  H    0.275717
    31  H    0.223783
    32  N    0.488553
    33  O   -0.458565
    34  O   -0.459600
 Sum of Mulliken charges =  -0.00000

 Dipole moment (field-independent basis, Debye):
    X=             -1.3918    Y=              4.5778    Z=             -1.9934  Tot=              5.1833
 Quadrupole moment (field-independent basis, Debye-Ang):
   XX=            -89.6106   YY=            -95.2053   ZZ=            -91.2592
   XY=            -13.1469   XZ=              5.9091   YZ=              2.5506

 Normal termination of Gaussian 16 at Thu May  6 05:48:26 2021.
