 Gaussian 16, Revision A.03,
 Gaussian 16:  EM64L-G16RevA.03 25-Dec-2016

 -------------
 #p 6-31g* mp2
 -------------

 ------------------------------------------------------
 Input file generated by CHIRIPA (05-May-2021 14:57:25)
 ------------------------------------------------------
 Symbolic Z-matrix:
 Charge =  0 Multiplicity = 1

                         Standard orientation:
 ---------------------------------------------------------------------
 Center     Atomic      Atomic             Coordinates (Angstroms)
 Number     Number       Type             X           Y           Z
 ---------------------------------------------------------------------
      1          6           0       -3.716956    2.657814    0.318986
      2          6           0       -4.845973    1.841078    0.440582
      3          6           0       -4.753700    0.464188    0.216514
      4          6           0       -3.511160   -0.064895   -0.129112
      5          6           0       -2.368135    0.722604   -0.258057
      6          6           0       -2.483815    2.096959   -0.029331
      7          1           0       -3.797728    3.726430    0.494856
      8          1           0       -5.804935    2.273897    0.710960
      9          1           0       -5.611724   -0.191250    0.303771
     10          1           0       -1.425769    0.262194   -0.528958
     11          1           0       -1.605326    2.728820   -0.124486
     12          7           0       -3.401085   -1.521205   -0.368788
     13          8           0       -2.294945   -1.962883   -0.672123
     14          8           0       -4.423033   -2.193408   -0.248773
     15          6           0        5.588774    1.111370   -0.595545
     16          6           0        5.408211    0.739201    0.740646
     17          6           0        4.270961    0.026225    1.131638
     18          6           0        3.330200   -0.299495    0.155848
     19          6           0        3.481587    0.057017   -1.183283
     20          6           0        4.626582    0.769692   -1.551560
     21          1           0        6.475226    1.665110   -0.890454
     22          1           0        6.153807    1.003194    1.485254
     23          1           0        4.106016   -0.274502    2.159147
     24          1           0        2.720900   -0.220471   -1.902848
     25          1           0        4.764172    1.057400   -2.589990
     26          7           0        2.122145   -1.054132    0.557751
     27          8           0        1.308057   -1.328995   -0.321083
     28          8           0        2.012233   -1.356464    1.743984
 ---------------------------------------------------------------------

 SCF Done:  E(RHF) =  -868.336881555     A.U. after   16 cycles
 E2 =    -0.2599850153D+01 EUMP2 =    -0.87093673170868D+03

 The electronic state is 1-A.
 Alpha  occ. eigenvalues --  -20.60795 -20.60790 -20.59697 -20.59601 -15.85831
 Alpha  occ. eigenvalues --  -15.84706 -11.31304 -11.30300 -11.27883 -11.27875
 Alpha  occ. eigenvalues --  -11.27636 -11.26968 -11.26916 -11.26905 -11.26814
 Alpha  occ. eigenvalues --  -11.26781 -11.26036 -11.26001  -1.59860  -1.58735
 Alpha  occ. eigenvalues --   -1.39409  -1.38271  -1.19486  -1.18522  -1.08858
 Alpha  occ. eigenvalues --   -1.07891  -1.04900  -1.03961  -0.95669  -0.94673
 Alpha  occ. eigenvalues --   -0.86291  -0.85349  -0.82494  -0.81497  -0.77536
 Alpha  occ. eigenvalues --   -0.76484  -0.72017  -0.71204  -0.70907  -0.70584
 Alpha  occ. eigenvalues --   -0.70070  -0.69634  -0.65130  -0.64895  -0.64173
 Alpha  occ. eigenvalues --   -0.63982  -0.62241  -0.61284  -0.55390  -0.54492
 Alpha  occ. eigenvalues --   -0.53231  -0.52986  -0.52288  -0.52059  -0.48803
 Alpha  occ. eigenvalues --   -0.48773  -0.47728  -0.47638  -0.44782  -0.43626
 Alpha  occ. eigenvalues --   -0.37475  -0.36547  -0.36513  -0.35577
 Alpha virt. eigenvalues --    0.04953   0.06043   0.11139   0.12073   0.16400
 Alpha virt. eigenvalues --    0.17464   0.21273   0.22158   0.27194   0.27882
 Alpha virt. eigenvalues --    0.28221   0.29138   0.30807   0.31653   0.32377

 Mulliken charges:
               1
     1  C   -0.171317
     2  C   -0.219403
     3  C   -0.171185
     4  C    0.156830
     5  C   -0.174319
     6  C   -0.220101
     7  H    0.221551
     8  H    0.220160
     9  H    0.273812
    10  H    0.289792
    11  H    0.218772
    12  N    0.486158
    13  O   -0.446980
    14  O   -0.467235
    15  C   -0.171217
    16  C   -0.218609
    17  C   -0.171362
    18  C    0.157302
    19  C   -0.173136
    20  C   -0.218709
    21  H    0.225734
    22  H    0.223718
    23  H    0.276216
    24  H    0.276298
    25  H    0.223661
    26  N    0.486427
    27  O   -0.455194
    28  O   -0.457664
 Sum of Mulliken charges =  -0.00000

 Dipole moment (field-independent basis, Debye):
    X=              4.1690    Y=              7.5528    Z=             -0.5957  Tot=              8.6475
 Quadrupole moment (field-independent basis, Debye-Ang):
   XX=            -70.3639   YY=           -108.7790   ZZ=           -101.6800
   XY=             -9.5298   XZ=             -6.3228   YZ=             -0.0696

 Normal termination of Gaussian 16 at Fri May  7 12:40:06 2021.
