 Gaussian 16, Revision A.03,
 Gaussian 16:  EM64L-G16RevA.03 25-Dec-2016

 -------------
 #p 6-31g* mp2
 -------------

 ------------------------------------------------------
 Input file generated by CHIRIPA (05-May-2021 14:51:12)
 ------------------------------------------------------
 Symbolic Z-matrix:
 Charge =  0 Multiplicity = 1

                         Standard orientation:
 ---------------------------------------------------------------------
 Center     Atomic      Atomic             Coordinates (Angstroms)
 Number     Number       Type             X           Y           Z
 ---------------------------------------------------------------------
      1          6           0       -2.437505   -0.194910   -0.687648
      2          6           0       -3.217391   -1.508682   -0.626284
      3          6           0       -2.576876   -2.616040   -1.463716
      4          1           0       -2.362934    0.131319   -1.734051
      5          1           0       -1.409679   -0.370188   -0.340883
      6          1           0       -4.243833   -1.330683   -0.971753
      7          1           0       -3.290279   -1.831723    0.420114
      8          1           0       -1.559508   -2.822489   -1.115949
      9          1           0       -2.518480   -2.318603   -2.515725
     10          1           0       -3.150620   -3.546249   -1.405504
     11          6           0       -3.065407    0.921778    0.144502
     12          6           0       -2.285522    2.235550    0.083138
     13          6           0       -2.926036    3.342908    0.920570
     14          1           0       -4.093234    1.097055   -0.202263
     15          1           0       -3.139978    0.595548    1.190905
     16          1           0       -2.212633    2.558590   -0.963260
     17          1           0       -1.259080    2.057551    0.428607
     18          1           0       -2.984433    3.045470    1.972579
     19          1           0       -3.943404    3.549356    0.572803
     20          1           0       -2.352292    4.273117    0.862358
     21          6           0        2.916058    0.204563   -0.211871
     22          6           0        4.408625    0.529521   -0.279931
     23          6           0        4.722082    1.667917   -1.251318
     24          1           0        2.558691   -0.059904   -1.216507
     25          1           0        2.364894    1.106415    0.088586
     26          1           0        4.956949   -0.373041   -0.578828
     27          1           0        4.762522    0.793058    0.725018
     28          1           0        4.200809    2.583314   -0.953118
     29          1           0        4.396340    1.410589   -2.264370
     30          1           0        5.794569    1.883648   -1.284330
     31          6           0        2.586854   -0.931430    0.755017
     32          6           0        1.094287   -1.256389    0.823077
     33          6           0        0.780831   -2.394784    1.794464
     34          1           0        3.138018   -1.833283    0.454561
     35          1           0        2.944222   -0.666964    1.759652
     36          1           0        0.740390   -1.519926   -0.181871
     37          1           0        0.545963   -0.353827    1.121974
     38          1           0        1.106572   -2.137458    2.807517
     39          1           0        1.302104   -3.310182    1.496263
     40          1           0       -0.291657   -2.610516    1.827477
 ---------------------------------------------------------------------

 SCF Done:  E(RHF) =  -470.732609796     A.U. after   11 cycles
 E2 =    -0.1584276154D+01 EUMP2 =    -0.47231688594998D+03

 The electronic state is 1-A.
 Alpha  occ. eigenvalues --  -11.21716 -11.21636 -11.21583 -11.21545 -11.21470
 Alpha  occ. eigenvalues --  -11.21405 -11.21322 -11.21186 -11.21179 -11.21092
 Alpha  occ. eigenvalues --  -11.21060 -11.21046  -1.08517  -1.08355  -1.03621
 Alpha  occ. eigenvalues --   -1.03484  -0.96050  -0.95935  -0.87069  -0.86951
 Alpha  occ. eigenvalues --   -0.79753  -0.79526  -0.78441  -0.78041  -0.65138
 Alpha  occ. eigenvalues --   -0.65021  -0.61073  -0.60862  -0.59431  -0.59276
 Alpha  occ. eigenvalues --   -0.57663  -0.57541  -0.55361  -0.55203  -0.52748
 Alpha  occ. eigenvalues --   -0.52640  -0.52489  -0.52351  -0.49989  -0.49895
 Alpha  occ. eigenvalues --   -0.48164  -0.47841  -0.46770  -0.46535  -0.46221
 Alpha  occ. eigenvalues --   -0.45765  -0.45691  -0.45096  -0.43839  -0.43725
 Alpha virt. eigenvalues --    0.20150   0.22380   0.23170   0.24766   0.25644
 Alpha virt. eigenvalues --    0.26308   0.26754   0.27697   0.28277   0.29794
 Alpha virt. eigenvalues --    0.30356   0.30785   0.31742   0.31839   0.32467

 Mulliken charges:
               1
     1  C   -0.310533
     2  C   -0.298864
     3  C   -0.479238
     4  H    0.148342
     5  H    0.165033
     6  H    0.151601
     7  H    0.150960
     8  H    0.157813
     9  H    0.154998
    10  H    0.160170
    11  C   -0.297472
    12  C   -0.300881
    13  C   -0.475639
    14  H    0.149150
    15  H    0.148773
    16  H    0.152211
    17  H    0.151840
    18  H    0.154962
    19  H    0.155360
    20  H    0.159977
    21  C   -0.298812
    22  C   -0.299697
    23  C   -0.475752
    24  H    0.150220
    25  H    0.149505
    26  H    0.152065
    27  H    0.151976
    28  H    0.155335
    29  H    0.155361
    30  H    0.160355
    31  C   -0.296749
    32  C   -0.308276
    33  C   -0.477258
    34  H    0.149893
    35  H    0.149793
    36  H    0.156165
    37  H    0.154232
    38  H    0.155802
    39  H    0.156013
    40  H    0.161266
 Sum of Mulliken charges =  -0.00000

 Dipole moment (field-independent basis, Debye):
    X=              0.0761    Y=             -0.0158    Z=              0.0063  Tot=              0.0780
 Quadrupole moment (field-independent basis, Debye-Ang):
   XX=            -84.8811   YY=            -85.7368   ZZ=            -84.3030
   XY=             -0.2828   XZ=              0.7858   YZ=              0.2708

 Normal termination of Gaussian 16 at Wed May  5 15:16:28 2021.
