 Gaussian 16, Revision A.03,
 Gaussian 16:  EM64L-G16RevA.03 25-Dec-2016

 -------------
 #p 6-31g* mp2
 -------------

 ------------------------------------------------------
 Input file generated by CHIRIPA (05-May-2021 14:55:21)
 ------------------------------------------------------
 Symbolic Z-matrix:
 Charge =  0 Multiplicity = 1

                         Standard orientation:
 ---------------------------------------------------------------------
 Center     Atomic      Atomic             Coordinates (Angstroms)
 Number     Number       Type             X           Y           Z
 ---------------------------------------------------------------------
      1          6           0       -2.635981    1.669962    0.661030
      2          6           0       -3.092927    1.002618   -0.480185
      3          6           0       -2.662328   -0.297096   -0.762810
      4          6           0       -1.770459   -0.902177    0.121348
      5          6           0       -1.297118   -0.263485    1.266472
      6          6           0       -1.741113    1.035899    1.529186
      7          1           0       -2.975684    2.679483    0.872846
      8          1           0       -3.787921    1.492575   -1.156182
      9          1           0       -3.000132   -0.836849   -1.639151
     10          1           0       -0.604597   -0.777872    1.921635
     11          1           0       -1.384571    1.551744    2.416219
     12          7           0       -1.307512   -2.277951   -0.167315
     13          8           0       -0.521536   -2.789100    0.627421
     14          8           0       -1.739397   -2.819084   -1.182839
     15          6           0        2.678796    0.208593   -0.448505
     16          6           0        3.740227   -0.328117    0.512376
     17          6           0        4.361089   -1.640918    0.033965
     18          1           0        1.891141   -0.546945   -0.573830
     19          1           0        3.131458    0.355474   -1.438918
     20          1           0        3.286041   -0.472633    1.501035
     21          1           0        4.525350    0.428863    0.635578
     22          1           0        4.839733   -1.507706   -0.941615
     23          1           0        3.593382   -2.414324   -0.071241
     24          1           0        5.117175   -2.006646    0.735703
     25          6           0        2.048904    1.520516    0.016062
     26          6           0        0.987473    2.057226   -0.944819
     27          6           0        0.366612    3.370027   -0.466407
     28          1           0        1.596243    1.373635    1.006476
     29          1           0        2.836559    2.276054    0.141387
     30          1           0        0.202350    1.300246   -1.068021
     31          1           0        1.441660    2.201742   -1.933477
     32          1           0        1.134319    4.143434   -0.361202
     33          1           0       -0.112033    3.236815    0.509172
     34          1           0       -0.389475    3.735756   -1.168146
 ---------------------------------------------------------------------

 SCF Done:  E(RHF) =  -669.534422828     A.U. after   15 cycles
 E2 =    -0.2096323482D+01 EUMP2 =    -0.67163074630987D+03

 The electronic state is 1-A.
 Alpha  occ. eigenvalues --  -20.60935 -20.60928 -15.85981 -11.31339 -11.27929
 Alpha  occ. eigenvalues --  -11.27917 -11.27634 -11.26916 -11.26897 -11.21643
 Alpha  occ. eigenvalues --  -11.21435 -11.21374 -11.21370 -11.21192 -11.20613
 Alpha  occ. eigenvalues --   -1.60004  -1.39557  -1.19538  -1.08925  -1.08363
 Alpha  occ. eigenvalues --   -1.04933  -1.03446  -0.95952  -0.95720  -0.86942
 Alpha  occ. eigenvalues --   -0.86323  -0.82578  -0.79543  -0.78171  -0.77625
 Alpha  occ. eigenvalues --   -0.72196  -0.71331  -0.70620  -0.65181  -0.65052
 Alpha  occ. eigenvalues --   -0.64925  -0.62271  -0.60929  -0.59320  -0.57523
 Alpha  occ. eigenvalues --   -0.55444  -0.55264  -0.53123  -0.53011  -0.52596
 Alpha  occ. eigenvalues --   -0.52326  -0.49872  -0.48956  -0.48951  -0.47820
 Alpha  occ. eigenvalues --   -0.46578  -0.45707  -0.45634  -0.44925  -0.43717
 Alpha  occ. eigenvalues --   -0.37408  -0.36492
 Alpha virt. eigenvalues --    0.04882   0.10991   0.16296   0.20452   0.22992
 Alpha virt. eigenvalues --    0.24352   0.25748   0.26717   0.27150   0.28651
 Alpha virt. eigenvalues --    0.29091   0.30442   0.31234   0.31634   0.32250

 Mulliken charges:
               1
     1  C   -0.165637
     2  C   -0.218543
     3  C   -0.172098
     4  C    0.158016
     5  C   -0.171361
     6  C   -0.217569
     7  H    0.227487
     8  H    0.224456
     9  H    0.276506
    10  H    0.276143
    11  H    0.224452
    12  N    0.488115
    13  O   -0.460746
    14  O   -0.459222
    15  C   -0.300732
    16  C   -0.297831
    17  C   -0.478205
    18  H    0.153806
    19  H    0.150038
    20  H    0.149360
    21  H    0.149456
    22  H    0.153688
    23  H    0.165948
    24  H    0.158882
    25  C   -0.296729
    26  C   -0.302430
    27  C   -0.472710
    28  H    0.141331
    29  H    0.148766
    30  H    0.158277
    31  H    0.152506
    32  H    0.154400
    33  H    0.147187
    34  H    0.154992
 Sum of Mulliken charges =  -0.00000

 Dipole moment (field-independent basis, Debye):
    X=             -1.7708    Y=              4.6761    Z=              0.9812  Tot=              5.0956
 Quadrupole moment (field-independent basis, Debye-Ang):
   XX=            -87.5826   YY=           -105.1849   ZZ=            -91.1541
   XY=             -6.7065   XZ=              0.2988   YZ=             -0.6512

 Normal termination of Gaussian 16 at Thu May  6 09:20:36 2021.
