 Gaussian 16, Revision A.03,
 Gaussian 16:  EM64L-G16RevA.03 25-Dec-2016

 -------------
 #p 6-31g* mp2
 -------------

 ------------------------------------------------------
 Input file generated by CHIRIPA (05-May-2021 14:55:21)
 ------------------------------------------------------
 Symbolic Z-matrix:
 Charge =  0 Multiplicity = 1

                         Standard orientation:
 ---------------------------------------------------------------------
 Center     Atomic      Atomic             Coordinates (Angstroms)
 Number     Number       Type             X           Y           Z
 ---------------------------------------------------------------------
      1          6           0        1.516366    1.046656   -0.592571
      2          6           0        1.521276   -0.253320   -0.076277
      3          6           0        2.728069   -0.906085    0.192232
      4          6           0        3.916732   -0.226151   -0.068650
      5          6           0        3.944684    1.069256   -0.582877
      6          6           0        2.725954    1.702638   -0.843780
      7          1           0        0.574264    1.546211   -0.798201
      8          1           0        0.583418   -0.765203    0.119796
      9          1           0        2.760849   -1.912298    0.592079
     10          1           0        4.895646    1.553834   -0.768005
     11          1           0        2.725179    2.712236   -1.244725
     12          7           0        5.200629   -0.906945    0.211583
     13          8           0        6.234285   -0.286232   -0.026972
     14          8           0        5.148980   -2.048371    0.664478
     15          6           0       -4.071895    0.461797   -0.036885
     16          6           0       -3.521269    1.389523    1.046684
     17          6           0       -2.179047    2.013962    0.664179
     18          1           0       -3.340006   -0.332698   -0.237041
     19          1           0       -4.182898    1.027429   -0.972371
     20          1           0       -3.412641    0.822655    1.980213
     21          1           0       -4.254635    2.181791    1.244420
     22          1           0       -2.275857    2.603259   -0.253404
     23          1           0       -1.429078    1.236399    0.486570
     24          1           0       -1.803759    2.673448    1.452910
     25          6           0       -5.413240   -0.170089    0.330863
     26          6           0       -5.963866   -1.097814   -0.752706
     27          6           0       -7.306088   -1.722254   -0.370200
     28          1           0       -5.302237   -0.735721    1.266349
     29          1           0       -6.145129    0.624406    0.531019
     30          1           0       -5.230499   -1.890083   -0.950441
     31          1           0       -6.072494   -0.530947   -1.686235
     32          1           0       -8.056057   -0.944691   -0.192592
     33          1           0       -7.209278   -2.311551    0.547382
     34          1           0       -7.681375   -2.381740   -1.158932
 ---------------------------------------------------------------------

 SCF Done:  E(RHF) =  -669.535315420     A.U. after   15 cycles
 E2 =    -0.2091222074D+01 EUMP2 =    -0.67162653749464D+03

 The electronic state is 1-A.
 Alpha  occ. eigenvalues --  -20.60716 -20.60711 -15.85771 -11.31120 -11.27704
 Alpha  occ. eigenvalues --  -11.27694 -11.27370 -11.26705 -11.26681 -11.22567
 Alpha  occ. eigenvalues --  -11.22357 -11.22262 -11.22177 -11.22046 -11.21536
 Alpha  occ. eigenvalues --   -1.59792  -1.39346  -1.19294  -1.09225  -1.08685
 Alpha  occ. eigenvalues --   -1.04701  -1.04341  -0.96820  -0.95521  -0.87843
 Alpha  occ. eigenvalues --   -0.86097  -0.82362  -0.80423  -0.79005  -0.77414
 Alpha  occ. eigenvalues --   -0.71989  -0.71116  -0.70403  -0.65859  -0.64946
 Alpha  occ. eigenvalues --   -0.64718  -0.62069  -0.61721  -0.60184  -0.58415
 Alpha  occ. eigenvalues --   -0.56149  -0.55202  -0.53486  -0.53213  -0.53008
 Alpha  occ. eigenvalues --   -0.52792  -0.50757  -0.48758  -0.48745  -0.48708
 Alpha  occ. eigenvalues --   -0.47439  -0.46556  -0.46452  -0.44755  -0.44576
 Alpha  occ. eigenvalues --   -0.37254  -0.36309
 Alpha virt. eigenvalues --    0.05123   0.11312   0.16607   0.19868   0.22301
 Alpha virt. eigenvalues --    0.23707   0.25230   0.25917   0.26769   0.27551
 Alpha virt. eigenvalues --    0.29180   0.29768   0.30855   0.31293   0.31757

 Mulliken charges:
               1
     1  C   -0.173434
     2  C   -0.220989
     3  C   -0.170866
     4  C    0.158035
     5  C   -0.170723
     6  C   -0.219741
     7  H    0.233310
     8  H    0.222521
     9  H    0.275249
    10  H    0.275332
    11  H    0.223416
    12  N    0.488118
    13  O   -0.460603
    14  O   -0.460729
    15  C   -0.298172
    16  C   -0.300276
    17  C   -0.480803
    18  H    0.145239
    19  H    0.150405
    20  H    0.154932
    21  H    0.156217
    22  H    0.154836
    23  H    0.146653
    24  H    0.166479
    25  C   -0.298902
    26  C   -0.300103
    27  C   -0.476158
    28  H    0.150843
    29  H    0.151572
    30  H    0.151740
    31  H    0.152524
    32  H    0.156108
    33  H    0.156060
    34  H    0.161913
 Sum of Mulliken charges =  -0.00000

 Dipole moment (field-independent basis, Debye):
    X=             -4.7790    Y=              2.4484    Z=             -0.9452  Tot=              5.4522
 Quadrupole moment (field-independent basis, Debye-Ang):
   XX=           -129.2327   YY=            -92.3115   ZZ=            -94.6812
   XY=             11.8545   XZ=             -4.3149   YZ=             -1.6461

 Normal termination of Gaussian 16 at Thu May  6 07:47:49 2021.
