 Gaussian 16, Revision A.03,
 Gaussian 16:  EM64L-G16RevA.03 25-Dec-2016

 -------------
 #p 6-31g* mp2
 -------------

 ------------------------------------------------------
 Input file generated by CHIRIPA (05-May-2021 14:55:25)
 ------------------------------------------------------
 Symbolic Z-matrix:
 Charge =  0 Multiplicity = 1

                         Standard orientation:
 ---------------------------------------------------------------------
 Center     Atomic      Atomic             Coordinates (Angstroms)
 Number     Number       Type             X           Y           Z
 ---------------------------------------------------------------------
      1          6           0       -2.525010   -2.261622   -0.071178
      2          6           0       -3.209080   -1.596488   -1.094000
      3          6           0       -3.400343   -0.212746   -1.037216
      4          6           0       -2.891972    0.477704    0.061933
      5          6           0       -2.206154   -0.156464    1.096715
      6          6           0       -2.026609   -1.540759    1.018993
      7          1           0       -2.380984   -3.336761   -0.123422
      8          1           0       -3.597237   -2.153752   -1.941842
      9          1           0       -3.926167    0.327346   -1.815180
     10          1           0       -1.830722    0.426103    1.929232
     11          1           0       -1.494957   -2.054673    1.814784
     12          7           0       -3.088251    1.942902    0.133130
     13          8           0       -2.630665    2.528345    1.112165
     14          8           0       -3.695963    2.478138   -0.791448
     15          6           0        3.291172   -0.848233    0.321998
     16          6           0        2.121763   -1.455027   -0.454061
     17          6           0        1.393177   -2.545612    0.331803
     18          1           0        3.998942   -1.645093    0.588496
     19          1           0        2.917885   -0.432436    1.268130
     20          1           0        2.496924   -1.868327   -1.399076
     21          1           0        1.416789   -0.656601   -0.718907
     22          1           0        0.991734   -2.143255    1.267513
     23          1           0        2.078007   -3.361865    0.583480
     24          1           0        0.560914   -2.965634   -0.241591
     25          6           0        4.029463    0.243505   -0.450506
     26          6           0        5.198872    0.850300    0.325553
     27          6           0        5.927458    1.940885   -0.460311
     28          1           0        4.402749   -0.172292   -1.396638
     29          1           0        3.321692    1.040365   -0.717004
     30          1           0        5.903845    0.051873    0.590400
     31          1           0        4.823711    1.263599    1.270568
     32          1           0        5.242628    2.757137   -0.711988
     33          1           0        6.328901    1.538526   -1.396021
     34          1           0        6.759720    2.360907    0.113083
 ---------------------------------------------------------------------

 SCF Done:  E(RHF) =  -669.534834618     A.U. after   15 cycles
 E2 =    -0.2092277148D+01 EUMP2 =    -0.67162711176590D+03

 The electronic state is 1-A.
 Alpha  occ. eigenvalues --  -20.60790 -20.60785 -15.85842 -11.31211 -11.27759
 Alpha  occ. eigenvalues --  -11.27754 -11.27493 -11.26795 -11.26761 -11.21997
 Alpha  occ. eigenvalues --  -11.21731 -11.21695 -11.21674 -11.21519 -11.21095
 Alpha  occ. eigenvalues --   -1.59865  -1.39419  -1.19377  -1.08781  -1.08669
 Alpha  occ. eigenvalues --   -1.04782  -1.03806  -0.96284  -0.95606  -0.87321
 Alpha  occ. eigenvalues --   -0.86164  -0.82440  -0.79883  -0.78464  -0.77486
 Alpha  occ. eigenvalues --   -0.72060  -0.71189  -0.70484  -0.65323  -0.65029
 Alpha  occ. eigenvalues --   -0.64782  -0.62155  -0.61184  -0.59677  -0.57880
 Alpha  occ. eigenvalues --   -0.55621  -0.55260  -0.53266  -0.52959  -0.52772
 Alpha  occ. eigenvalues --   -0.52642  -0.50199  -0.48818  -0.48815  -0.48193
 Alpha  occ. eigenvalues --   -0.46892  -0.46014  -0.45916  -0.44824  -0.44066
 Alpha  occ. eigenvalues --   -0.37317  -0.36347
 Alpha virt. eigenvalues --    0.05007   0.11258   0.16402   0.20689   0.22757
 Alpha virt. eigenvalues --    0.24188   0.25762   0.26692   0.26995   0.27721
 Alpha virt. eigenvalues --    0.28820   0.29717   0.31378   0.31807   0.32507

 Mulliken charges:
               1
     1  C   -0.172332
     2  C   -0.218951
     3  C   -0.171310
     4  C    0.158772
     5  C   -0.174056
     6  C   -0.211882
     7  H    0.225881
     8  H    0.223542
     9  H    0.275562
    10  H    0.275111
    11  H    0.225477
    12  N    0.488023
    13  O   -0.460592
    14  O   -0.460291
    15  C   -0.298545
    16  C   -0.300177
    17  C   -0.474321
    18  H    0.149355
    19  H    0.149116
    20  H    0.152719
    21  H    0.156198
    22  H    0.147882
    23  H    0.155190
    24  H    0.155775
    25  C   -0.299060
    26  C   -0.299927
    27  C   -0.476109
    28  H    0.149484
    29  H    0.152559
    30  H    0.151239
    31  H    0.152825
    32  H    0.157197
    33  H    0.154884
    34  H    0.160764
 Sum of Mulliken charges =  -0.00000

 Dipole moment (field-independent basis, Debye):
    X=              0.7330    Y=             -5.1146    Z=             -0.2912  Tot=              5.1751
 Quadrupole moment (field-independent basis, Debye-Ang):
   XX=            -98.0445   YY=           -100.6693   ZZ=            -91.2603
   XY=             14.7634   XZ=              3.2120   YZ=              0.3609

 Normal termination of Gaussian 16 at Thu May  6 01:36:05 2021.
