 Gaussian 16, Revision A.03,
 Gaussian 16:  EM64L-G16RevA.03 25-Dec-2016

 -------------
 #p 6-31g* mp2
 -------------

 ------------------------------------------------------
 Input file generated by CHIRIPA (05-May-2021 14:57:26)
 ------------------------------------------------------
 Symbolic Z-matrix:
 Charge =  0 Multiplicity = 1

                         Standard orientation:
 ---------------------------------------------------------------------
 Center     Atomic      Atomic             Coordinates (Angstroms)
 Number     Number       Type             X           Y           Z
 ---------------------------------------------------------------------
      1          6           0        5.362484    1.341009    0.575706
      2          6           0        5.211512   -0.010430    0.903334
      3          6           0        4.073236   -0.715600    0.501324
      4          6           0        3.101286   -0.035024   -0.230400
      5          6           0        3.222752    1.310941   -0.572326
      6          6           0        4.369372    1.996226   -0.159781
      7          1           0        6.249965    1.881079    0.892089
      8          1           0        5.981156   -0.521849    1.474425
      9          1           0        3.930814   -1.762287    0.741283
     10          1           0        2.438467    1.793688   -1.142651
     11          1           0        4.483941    3.045725   -0.415655
     12          7           0        1.891827   -0.771031   -0.661566
     13          8           0        1.049946   -0.148597   -1.305342
     14          8           0        1.808637   -1.956411   -0.347573
     15          6           0       -1.780491   -2.097541    0.259102
     16          6           0       -2.223557   -1.615596   -0.976997
     17          6           0       -3.066048   -0.501938   -1.044250
     18          6           0       -3.447580    0.108163    0.149693
     19          6           0       -3.022980   -0.348318    1.396542
     20          6           0       -2.180911   -1.463482    1.439845
     21          1           0       -1.126187   -2.963243    0.302042
     22          1           0       -1.914196   -2.106014   -1.895601
     23          1           0       -3.423912   -0.107925   -1.987704
     24          1           0       -3.348340    0.161633    2.295157
     25          1           0       -1.838378   -1.835576    2.401230
     26          7           0       -4.339265    1.287940    0.091173
     27          8           0       -4.661064    1.807645    1.157470
     28          8           0       -4.699484    1.670605   -1.019882
 ---------------------------------------------------------------------

 SCF Done:  E(RHF) =  -868.340012752     A.U. after   16 cycles
 E2 =    -0.2599631232D+01 EUMP2 =    -0.87093964398477D+03

 The electronic state is 1-A.
 Alpha  occ. eigenvalues --  -20.61612 -20.61555 -20.59797 -20.59785 -15.86596
 Alpha  occ. eigenvalues --  -15.84837 -11.31721 -11.29864 -11.28281 -11.28231
 Alpha  occ. eigenvalues --  -11.27952 -11.27230 -11.27193 -11.26471 -11.26350
 Alpha  occ. eigenvalues --  -11.25921 -11.25385 -11.25203  -1.60639  -1.58878
 Alpha  occ. eigenvalues --   -1.40200  -1.38441  -1.19869  -1.17989  -1.09311
 Alpha  occ. eigenvalues --   -1.07412  -1.05234  -1.03359  -0.96188  -0.94312
 Alpha  occ. eigenvalues --   -0.86643  -0.84760  -0.83029  -0.81181  -0.78102
 Alpha  occ. eigenvalues --   -0.76300  -0.72844  -0.71938  -0.71067  -0.70972
 Alpha  occ. eigenvalues --   -0.70197  -0.69025  -0.65525  -0.65233  -0.63637
 Alpha  occ. eigenvalues --   -0.63368  -0.62583  -0.60747  -0.55746  -0.53770
 Alpha  occ. eigenvalues --   -0.53575  -0.53319  -0.51731  -0.51460  -0.49600
 Alpha  occ. eigenvalues --   -0.49520  -0.47837  -0.47788  -0.45653  -0.43925
 Alpha  occ. eigenvalues --   -0.37838  -0.36826  -0.35839  -0.34925
 Alpha virt. eigenvalues --    0.04402   0.06250   0.10833   0.12732   0.15954
 Alpha virt. eigenvalues --    0.17860   0.21006   0.22864   0.26932   0.27879
 Alpha virt. eigenvalues --    0.28631   0.29803   0.30600   0.32057   0.32467

 Mulliken charges:
               1
     1  C   -0.169906
     2  C   -0.218564
     3  C   -0.171151
     4  C    0.158134
     5  C   -0.170166
     6  C   -0.218516
     7  H    0.227650
     8  H    0.224475
     9  H    0.273825
    10  H    0.277810
    11  H    0.226204
    12  N    0.489898
    13  O   -0.456325
    14  O   -0.470744
    15  C   -0.162761
    16  C   -0.202766
    17  C   -0.171838
    18  C    0.156401
    19  C   -0.173756
    20  C   -0.223446
    21  H    0.234109
    22  H    0.225064
    23  H    0.271240
    24  H    0.269306
    25  H    0.217121
    26  N    0.488205
    27  O   -0.465759
    28  O   -0.463741
 Sum of Mulliken charges =  -0.00000

 Dipole moment (field-independent basis, Debye):
    X=              7.8995    Y=             -1.6332    Z=              1.5134  Tot=              8.2073
 Quadrupole moment (field-independent basis, Debye-Ang):
   XX=           -101.7260   YY=           -103.1419   ZZ=           -100.4292
   XY=             22.0105   XZ=              5.1485   YZ=             -2.8686

 Normal termination of Gaussian 16 at Fri May  7 12:42:05 2021.
