 Gaussian 16, Revision A.03,
 Gaussian 16:  EM64L-G16RevA.03 25-Dec-2016

 -------------
 #p 6-31g* mp2
 -------------

 ------------------------------------------------------
 Input file generated by CHIRIPA (05-May-2021 14:55:20)
 ------------------------------------------------------
 Symbolic Z-matrix:
 Charge =  0 Multiplicity = 1

                         Standard orientation:
 ---------------------------------------------------------------------
 Center     Atomic      Atomic             Coordinates (Angstroms)
 Number     Number       Type             X           Y           Z
 ---------------------------------------------------------------------
      1          6           0        1.763882    1.828320    0.169650
      2          6           0        2.021986    1.192333   -1.049130
      3          6           0        2.969004    0.166942   -1.128363
      4          6           0        3.642532   -0.198777    0.036068
      5          6           0        3.407627    0.415720    1.265094
      6          6           0        2.456306    1.438670    1.320842
      7          1           0        1.026544    2.623920    0.222078
      8          1           0        1.485753    1.492859   -1.944777
      9          1           0        3.188453   -0.342318   -2.058909
     10          1           0        3.958106    0.094214    2.140894
     11          1           0        2.257916    1.930814    2.268725
     12          7           0        4.647375   -1.283020   -0.035381
     13          8           0        5.227301   -1.586707    1.004858
     14          8           0        4.836019   -1.808634   -1.130270
     15          6           0       -3.969440    0.574757    0.163685
     16          6           0       -2.785923    0.769910   -0.784571
     17          6           0       -1.832529    1.871741   -0.321104
     18          1           0       -4.518235    1.522112    0.254728
     19          1           0       -3.590807    0.335201    1.167002
     20          1           0       -3.166705    1.007665   -1.786116
     21          1           0       -2.239994   -0.178070   -0.873517
     22          1           0       -1.424913    1.637709    0.667672
     23          1           0       -2.356889    2.830182   -0.250113
     24          1           0       -0.993813    1.994355   -1.013478
     25          6           0       -4.931479   -0.523352   -0.286165
     26          6           0       -6.114996   -0.718504    0.662090
     27          6           0       -7.068390   -1.820336    0.198623
     28          1           0       -5.310113   -0.283796   -1.289482
     29          1           0       -4.382685   -1.470706   -0.377209
     30          1           0       -6.660925    0.229475    0.751035
     31          1           0       -5.734214   -0.956260    1.663636
     32          1           0       -6.544031   -2.778777    0.127632
     33          1           0       -7.476007   -1.586304   -0.790153
     34          1           0       -7.907106   -1.942950    0.890998
 ---------------------------------------------------------------------

 SCF Done:  E(RHF) =  -669.534494299     A.U. after   15 cycles
 E2 =    -0.2091892634D+01 EUMP2 =    -0.67162638693324D+03

 The electronic state is 1-A.
 Alpha  occ. eigenvalues --  -20.60725 -20.60720 -15.85781 -11.31125 -11.27719
 Alpha  occ. eigenvalues --  -11.27716 -11.27380 -11.26704 -11.26691 -11.22383
 Alpha  occ. eigenvalues --  -11.22179 -11.21996 -11.21977 -11.21828 -11.21367
 Alpha  occ. eigenvalues --   -1.59803  -1.39356  -1.19309  -1.09008  -1.08698
 Alpha  occ. eigenvalues --   -1.04716  -1.04152  -0.96646  -0.95528  -0.87672
 Alpha  occ. eigenvalues --   -0.86111  -0.82375  -0.80234  -0.78778  -0.77427
 Alpha  occ. eigenvalues --   -0.71999  -0.71127  -0.70423  -0.65625  -0.64966
 Alpha  occ. eigenvalues --   -0.64746  -0.62084  -0.61538  -0.60032  -0.58213
 Alpha  occ. eigenvalues --   -0.55964  -0.55206  -0.53393  -0.53063  -0.52931
 Alpha  occ. eigenvalues --   -0.52785  -0.50537  -0.48760  -0.48754  -0.48536
 Alpha  occ. eigenvalues --   -0.47225  -0.46331  -0.46224  -0.44767  -0.44401
 Alpha  occ. eigenvalues --   -0.37231  -0.36325
 Alpha virt. eigenvalues --    0.05112   0.11246   0.16573   0.20587   0.22431
 Alpha virt. eigenvalues --    0.23877   0.25927   0.26153   0.26684   0.27494
 Alpha virt. eigenvalues --    0.28694   0.29758   0.30734   0.31422   0.31839

 Mulliken charges:
               1
     1  C   -0.167964
     2  C   -0.220733
     3  C   -0.171190
     4  C    0.157750
     5  C   -0.170559
     6  C   -0.221505
     7  H    0.231500
     8  H    0.222681
     9  H    0.275382
    10  H    0.275329
    11  H    0.223070
    12  N    0.488161
    13  O   -0.460726
    14  O   -0.460720
    15  C   -0.299315
    16  C   -0.300099
    17  C   -0.478622
    18  H    0.150046
    19  H    0.150474
    20  H    0.153361
    21  H    0.155872
    22  H    0.155783
    23  H    0.156833
    24  H    0.151024
    25  C   -0.299028
    26  C   -0.300074
    27  C   -0.476080
    28  H    0.150178
    29  H    0.151433
    30  H    0.152030
    31  H    0.152522
    32  H    0.156269
    33  H    0.155570
    34  H    0.161350
 Sum of Mulliken charges =  -0.00000

 Dipole moment (field-independent basis, Debye):
    X=             -3.7333    Y=              3.7761    Z=              0.2749  Tot=              5.3172
 Quadrupole moment (field-independent basis, Debye-Ang):
   XX=           -121.0571   YY=            -97.1657   ZZ=            -89.7817
   XY=             14.0002   XZ=              1.9437   YZ=              0.2216

 Normal termination of Gaussian 16 at Thu May  6 09:15:45 2021.
