 Gaussian 16, Revision A.03,
 Gaussian 16:  EM64L-G16RevA.03 25-Dec-2016

 -------------
 #p 6-31g* mp2
 -------------

 ------------------------------------------------------
 Input file generated by CHIRIPA (05-May-2021 14:57:21)
 ------------------------------------------------------
 Symbolic Z-matrix:
 Charge =  0 Multiplicity = 1

                         Standard orientation:
 ---------------------------------------------------------------------
 Center     Atomic      Atomic             Coordinates (Angstroms)
 Number     Number       Type             X           Y           Z
 ---------------------------------------------------------------------
      1          6           0       -2.034077    1.116391   -0.346829
      2          6           0       -3.155611    1.638103   -0.999898
      3          6           0       -4.424242    1.095062   -0.775773
      4          6           0       -4.535436    0.025931    0.111854
      5          6           0       -3.437083   -0.515902    0.777683
      6          6           0       -2.178139    0.042945    0.538316
      7          1           0       -1.052337    1.544378   -0.526854
      8          1           0       -3.046722    2.471721   -1.687843
      9          1           0       -5.309313    1.479510   -1.267980
     10          1           0       -3.577144   -1.347253    1.457872
     11          1           0       -1.308903   -0.364262    1.046900
     12          7           0       -5.873351   -0.557330    0.357193
     13          8           0       -5.944707   -1.498933    1.143913
     14          8           0       -6.825320   -0.061841   -0.241877
     15          6           0        6.627264    0.267271    0.859958
     16          6           0        6.444794   -0.603689   -0.219234
     17          6           0        5.168115   -0.826971   -0.743430
     18          6           0        4.091383   -0.159698   -0.161462
     19          6           0        4.240894    0.714039    0.914420
     20          6           0        5.526672    0.922200    1.422349
     21          1           0        7.622554    0.434848    1.260846
     22          1           0        7.297697   -1.113681   -0.657997
     23          1           0        4.998363   -1.495965   -1.578325
     24          1           0        3.371366    1.208047    1.330707
     25          1           0        5.665393    1.599152    2.260524
     26          7           0        2.735004   -0.388073   -0.707793
     27          8           0        1.802708    0.211933   -0.177271
     28          8           0        2.629853   -1.162754   -1.656186
 ---------------------------------------------------------------------

 SCF Done:  E(RHF) =  -868.340518420     A.U. after   16 cycles
 E2 =    -0.2598206044D+01 EUMP2 =    -0.87093872446391D+03

 The electronic state is 1-A.
 Alpha  occ. eigenvalues --  -20.61936 -20.61862 -20.59939 -20.59933 -15.86931
 Alpha  occ. eigenvalues --  -15.84985 -11.31999 -11.30116 -11.28551 -11.28507
 Alpha  occ. eigenvalues --  -11.28204 -11.27479 -11.27455 -11.26702 -11.26637
 Alpha  occ. eigenvalues --  -11.26164 -11.25619 -11.25456  -1.60955  -1.59020
 Alpha  occ. eigenvalues --   -1.40521  -1.38580  -1.20139  -1.18247  -1.09586
 Alpha  occ. eigenvalues --   -1.07641  -1.05497  -1.03624  -0.96473  -0.94525
 Alpha  occ. eigenvalues --   -0.86909  -0.85001  -0.83321  -0.81382  -0.78400
 Alpha  occ. eigenvalues --   -0.76496  -0.73177  -0.72254  -0.71241  -0.71207
 Alpha  occ. eigenvalues --   -0.70342  -0.69245  -0.65796  -0.65493  -0.63876
 Alpha  occ. eigenvalues --   -0.63586  -0.62849  -0.60983  -0.56000  -0.53982
 Alpha  occ. eigenvalues --   -0.53839  -0.53583  -0.51961  -0.51690  -0.49928
 Alpha  occ. eigenvalues --   -0.49871  -0.47977  -0.47940  -0.45989  -0.44040
 Alpha  occ. eigenvalues --   -0.38096  -0.37087  -0.36150  -0.35246
 Alpha virt. eigenvalues --    0.04101   0.06038   0.10572   0.12430   0.15652
 Alpha virt. eigenvalues --    0.17618   0.20728   0.22680   0.26678   0.27539
 Alpha virt. eigenvalues --    0.28478   0.29538   0.30404   0.31820   0.32394

 Mulliken charges:
               1
     1  C   -0.171443
     2  C   -0.220101
     3  C   -0.172348
     4  C    0.157216
     5  C   -0.172999
     6  C   -0.219401
     7  H    0.240253
     8  H    0.219667
     9  H    0.271618
    10  H    0.271853
    11  H    0.231390
    12  N    0.488326
    13  O   -0.463238
    14  O   -0.463660
    15  C   -0.169672
    16  C   -0.218454
    17  C   -0.170135
    18  C    0.157542
    19  C   -0.170791
    20  C   -0.218362
    21  H    0.228401
    22  H    0.226171
    23  H    0.277174
    24  H    0.273123
    25  H    0.225485
    26  N    0.491704
    27  O   -0.475539
    28  O   -0.453781
 Sum of Mulliken charges =  -0.00000

 Dipole moment (field-independent basis, Debye):
    X=             10.2265    Y=              2.8173    Z=              1.0194  Tot=             10.6563
 Quadrupole moment (field-independent basis, Debye-Ang):
   XX=           -108.2714   YY=           -101.8260   ZZ=           -102.1873
   XY=             -9.6846   XZ=             11.7198   YZ=              0.0410

 Normal termination of Gaussian 16 at Thu May  6 03:15:46 2021.
