 Gaussian 16, Revision A.03,
 Gaussian 16:  EM64L-G16RevA.03 25-Dec-2016

 -------------
 #p 6-31g* mp2
 -------------

 ------------------------------------------------------
 Input file generated by CHIRIPA (05-May-2021 14:57:26)
 ------------------------------------------------------
 Symbolic Z-matrix:
 Charge =  0 Multiplicity = 1

                         Standard orientation:
 ---------------------------------------------------------------------
 Center     Atomic      Atomic             Coordinates (Angstroms)
 Number     Number       Type             X           Y           Z
 ---------------------------------------------------------------------
      1          6           0       -4.351069   -1.081813    0.246273
      2          6           0       -4.188805    0.098946    0.978393
      3          6           0       -3.146692    0.981845    0.680002
      4          6           0       -2.281374    0.651111   -0.361694
      5          6           0       -2.416871   -0.517589   -1.109404
      6          6           0       -3.466145   -1.385776   -0.793456
      7          1           0       -5.163389   -1.761956    0.484889
      8          1           0       -4.874536    0.337586    1.786395
      9          1           0       -2.997978    1.902760    1.230654
     10          1           0       -1.717360   -0.728299   -1.909220
     11          1           0       -3.589741   -2.302055   -1.363721
     12          7           0       -1.174345    1.578010   -0.686880
     13          8           0       -0.425456    1.263687   -1.609379
     14          8           0       -1.076507    2.601285   -0.013106
     15          6           0        0.279025   -1.655980    0.810547
     16          6           0        0.626902   -0.488513    1.497950
     17          6           0        1.834907    0.161301    1.227744
     18          6           0        2.675044   -0.386431    0.259525
     19          6           0        2.356571   -1.548062   -0.442244
     20          6           0        1.143446   -2.181103   -0.155653
     21          1           0       -0.661372   -2.154256    1.026814
     22          1           0       -0.042468   -0.078426    2.248829
     23          1           0        2.129038    1.066479    1.745003
     24          1           0        3.044402   -1.932941   -1.185330
     25          1           0        0.875882   -3.087630   -0.691061
     26          7           0        3.956616    0.292619   -0.035204
     27          8           0        4.679411   -0.210124   -0.892790
     28          8           0        4.214050    1.314744    0.596955
 ---------------------------------------------------------------------

 SCF Done:  E(RHF) =  -868.336328424     A.U. after   16 cycles
 E2 =    -0.2605178581D+01 EUMP2 =    -0.87094150700506D+03

 The electronic state is 1-A.
 Alpha  occ. eigenvalues --  -20.61280 -20.61241 -20.60109 -20.60088 -15.86307
 Alpha  occ. eigenvalues --  -15.85163 -11.31888 -11.30598 -11.28519 -11.28482
 Alpha  occ. eigenvalues --  -11.28299 -11.27583 -11.27561 -11.27317 -11.27235
 Alpha  occ. eigenvalues --  -11.27114 -11.26359 -11.26264  -1.60320  -1.59168
 Alpha  occ. eigenvalues --   -1.39873  -1.38723  -1.20133  -1.18848  -1.09464
 Alpha  occ. eigenvalues --   -1.08253  -1.05564  -1.04297  -0.96257  -0.95056
 Alpha  occ. eigenvalues --   -0.86928  -0.85708  -0.83087  -0.81899  -0.78097
 Alpha  occ. eigenvalues --   -0.76900  -0.72537  -0.71684  -0.71397  -0.71200
 Alpha  occ. eigenvalues --   -0.70467  -0.70021  -0.65759  -0.65538  -0.64533
 Alpha  occ. eigenvalues --   -0.64347  -0.62885  -0.61645  -0.56025  -0.54959
 Alpha  occ. eigenvalues --   -0.53876  -0.53628  -0.52512  -0.52410  -0.49309
 Alpha  occ. eigenvalues --   -0.49277  -0.48162  -0.48132  -0.45221  -0.44116
 Alpha  occ. eigenvalues --   -0.38396  -0.37433  -0.36323  -0.35865
 Alpha virt. eigenvalues --    0.04365   0.05648   0.10370   0.11778   0.15862
 Alpha virt. eigenvalues --    0.17132   0.20622   0.21795   0.26433   0.27575
 Alpha virt. eigenvalues --    0.27663   0.28620   0.30181   0.31105   0.31800

 Mulliken charges:
               1
     1  C   -0.172883
     2  C   -0.219931
     3  C   -0.177054
     4  C    0.160056
     5  C   -0.170961
     6  C   -0.224883
     7  H    0.227611
     8  H    0.225660
     9  H    0.276914
    10  H    0.278060
    11  H    0.224043
    12  N    0.491734
    13  O   -0.454790
    14  O   -0.461884
    15  C   -0.170678
    16  C   -0.232690
    17  C   -0.159722
    18  C    0.164258
    19  C   -0.164705
    20  C   -0.221947
    21  H    0.223037
    22  H    0.221851
    23  H    0.279722
    24  H    0.274672
    25  H    0.216896
    26  N    0.488867
    27  O   -0.462729
    28  O   -0.458523
 Sum of Mulliken charges =  -0.00000

 Dipole moment (field-independent basis, Debye):
    X=             -8.3049    Y=             -5.4130    Z=              2.0705  Tot=             10.1272
 Quadrupole moment (field-independent basis, Debye-Ang):
   XX=           -111.5579   YY=           -104.0845   ZZ=           -100.8938
   XY=             -1.3812   XZ=             -1.6619   YZ=              6.3565

 Normal termination of Gaussian 16 at Fri May  7 11:13:39 2021.
