 Gaussian 16, Revision A.03,
 Gaussian 16:  EM64L-G16RevA.03 25-Dec-2016

 -------------
 #p 6-31g* mp2
 -------------

 ------------------------------------------------------
 Input file generated by CHIRIPA (05-May-2021 14:53:18)
 ------------------------------------------------------
 Symbolic Z-matrix:
 Charge =  0 Multiplicity = 1

                         Standard orientation:
 ---------------------------------------------------------------------
 Center     Atomic      Atomic             Coordinates (Angstroms)
 Number     Number       Type             X           Y           Z
 ---------------------------------------------------------------------
      1          6           0       -3.726336   -0.708439    0.016895
      2          6           0       -4.610443   -1.730202   -0.698885
      3          6           0       -4.303059   -3.169972   -0.286126
      4          1           0       -2.671935   -0.934436   -0.193125
      5          1           0       -3.858831   -0.815901    1.102387
      6          1           0       -4.477364   -1.619915   -1.782740
      7          1           0       -5.662869   -1.501631   -0.487292
      8          1           0       -4.454239   -3.302842    0.790020
      9          1           0       -3.261997   -3.421798   -0.512788
     10          1           0       -4.946524   -3.883820   -0.809802
     11          6           0       -4.021705    0.735434   -0.385243
     12          6           0       -3.137598    1.757197    0.330537
     13          6           0       -3.444983    3.196967   -0.082221
     14          1           0       -3.889211    0.842896   -1.470734
     15          1           0       -5.076107    0.961431   -0.175223
     16          1           0       -2.085173    1.528626    0.118944
     17          1           0       -3.270678    1.646910    1.414393
     18          1           0       -4.486044    3.448793    0.144441
     19          1           0       -3.293803    3.329837   -1.158368
     20          1           0       -2.801518    3.910815    0.441454
     21          6           0        0.870395    0.333978    1.408043
     22          6           0        1.063342    0.956479    0.170391
     23          6           0        2.254036    0.772700   -0.538849
     24          6           0        3.235031   -0.043852    0.021671
     25          6           0        3.072591   -0.677702    1.252581
     26          6           0        1.873865   -0.479691    1.944244
     27          1           0       -0.057685    0.482270    1.952171
     28          1           0        0.285771    1.588928   -0.248461
     29          1           0        2.429704    1.242587   -1.498935
     30          1           0        3.866022   -1.302434    1.644491
     31          1           0        1.726775   -0.964394    2.905218
     32          7           0        4.499816   -0.245945   -0.719864
     33          8           0        5.348614   -0.970160   -0.204412
     34          8           0        4.618408    0.323698   -1.802491
 ---------------------------------------------------------------------

 SCF Done:  E(RHF) =  -669.535589291     A.U. after   15 cycles
 E2 =    -0.2091530346D+01 EUMP2 =    -0.67162711963711D+03

 The electronic state is 1-A.
 Alpha  occ. eigenvalues --  -20.60744 -20.60739 -15.85798 -11.31158 -11.27730
 Alpha  occ. eigenvalues --  -11.27727 -11.27445 -11.26733 -11.26717 -11.22803
 Alpha  occ. eigenvalues --  -11.22274 -11.22219 -11.22152 -11.22039 -11.21580
 Alpha  occ. eigenvalues --   -1.59820  -1.39374  -1.19330  -1.09293  -1.08721
 Alpha  occ. eigenvalues --   -1.04736  -1.04360  -0.96770  -0.95557  -0.87789
 Alpha  occ. eigenvalues --   -0.86136  -0.82390  -0.80467  -0.79095  -0.77443
 Alpha  occ. eigenvalues --   -0.72016  -0.71143  -0.70423  -0.65957  -0.64979
 Alpha  occ. eigenvalues --   -0.64742  -0.62150  -0.61691  -0.60159  -0.58389
 Alpha  occ. eigenvalues --   -0.56042  -0.55214  -0.53475  -0.53190  -0.53061
 Alpha  occ. eigenvalues --   -0.52838  -0.50710  -0.48810  -0.48772  -0.48720
 Alpha  occ. eigenvalues --   -0.47494  -0.46623  -0.46528  -0.44781  -0.44605
 Alpha  occ. eigenvalues --   -0.37300  -0.36339
 Alpha virt. eigenvalues --    0.05091   0.11257   0.16581   0.19486   0.22576
 Alpha virt. eigenvalues --    0.23651   0.25215   0.25684   0.26975   0.27895
 Alpha virt. eigenvalues --    0.29294   0.30067   0.31066   0.31282   0.31547

 Mulliken charges:
               1
     1  C   -0.300270
     2  C   -0.300132
     3  C   -0.476464
     4  H    0.149344
     5  H    0.147967
     6  H    0.153976
     7  H    0.153373
     8  H    0.154709
     9  H    0.156478
    10  H    0.162788
    11  C   -0.297700
    12  C   -0.306799
    13  C   -0.476504
    14  H    0.152142
    15  H    0.153399
    16  H    0.144336
    17  H    0.151862
    18  H    0.160149
    19  H    0.157415
    20  H    0.160329
    21  C   -0.172594
    22  C   -0.223766
    23  C   -0.171118
    24  C    0.158592
    25  C   -0.171039
    26  C   -0.218780
    27  H    0.228323
    28  H    0.228482
    29  H    0.275599
    30  H    0.275508
    31  H    0.223433
    32  N    0.487980
    33  O   -0.460471
    34  O   -0.460546
 Sum of Mulliken charges =  -0.00000

 Dipole moment (field-independent basis, Debye):
    X=             -4.6724    Y=              0.6923    Z=              2.5736  Tot=              5.3790
 Quadrupole moment (field-independent basis, Debye-Ang):
   XX=           -122.3865   YY=            -94.4998   ZZ=            -91.7218
   XY=              1.3358   XZ=              9.4772   YZ=             -2.3786

 Normal termination of Gaussian 16 at Thu May  6 19:01:06 2021.
