 Gaussian 16, Revision A.03,
 Gaussian 16:  EM64L-G16RevA.03 25-Dec-2016

 -------------
 #p 6-31g* mp2
 -------------

 ------------------------------------------------------
 Input file generated by CHIRIPA (05-May-2021 14:57:27)
 ------------------------------------------------------
 Symbolic Z-matrix:
 Charge =  0 Multiplicity = 1

                         Standard orientation:
 ---------------------------------------------------------------------
 Center     Atomic      Atomic             Coordinates (Angstroms)
 Number     Number       Type             X           Y           Z
 ---------------------------------------------------------------------
      1          6           0        0.867501   -0.502110   -0.507701
      2          6           0        1.295881    0.803878   -0.248070
      3          6           0        2.651548    1.079525   -0.046244
      4          6           0        3.555650    0.020445   -0.111362
      5          6           0        3.159880   -1.291320   -0.368132
      6          6           0        1.799225   -1.543704   -0.566799
      7          1           0       -0.187551   -0.707203   -0.663257
      8          1           0        0.574530    1.614765   -0.201597
      9          1           0        3.010571    2.081244    0.156436
     10          1           0        3.902542   -2.078880   -0.408380
     11          1           0        1.469410   -2.558929   -0.768255
     12          7           0        4.993474    0.299946    0.100630
     13          8           0        5.770078   -0.650641    0.038130
     14          8           0        5.316611    1.464315    0.325275
     15          6           0       -3.546412    2.520750   -0.151007
     16          6           0       -4.139363    1.649232   -1.070456
     17          6           0       -4.019681    0.264941   -0.915651
     18          6           0       -3.296663   -0.215599    0.175043
     19          6           0       -2.694411    0.627038    1.108074
     20          6           0       -2.827097    2.007775    0.933412
     21          1           0       -3.644435    3.594719   -0.278977
     22          1           0       -4.698580    2.044789   -1.913579
     23          1           0       -4.468596   -0.432415   -1.612493
     24          1           0       -2.143142    0.202956    1.938541
     25          1           0       -2.365541    2.682233    1.649036
     26          7           0       -3.163077   -1.679205    0.349439
     27          8           0       -2.520874   -2.077428    1.318785
     28          8           0       -3.703106   -2.400443   -0.486516
 ---------------------------------------------------------------------

 SCF Done:  E(RHF) =  -868.338428408     A.U. after   16 cycles
 E2 =    -0.2600617378D+01 EUMP2 =    -0.87093904578615D+03

 The electronic state is 1-A.
 Alpha  occ. eigenvalues --  -20.61911 -20.61906 -20.60651 -20.60638 -15.86957
 Alpha  occ. eigenvalues --  -15.85699 -11.32338 -11.31014 -11.28905 -11.28871
 Alpha  occ. eigenvalues --  -11.28590 -11.27886 -11.27828 -11.27623 -11.27532
 Alpha  occ. eigenvalues --  -11.27265 -11.26620 -11.26477  -1.61002  -1.59724
 Alpha  occ. eigenvalues --   -1.40543  -1.39279  -1.20514  -1.19175  -1.09892
 Alpha  occ. eigenvalues --   -1.08569  -1.05883  -1.04572  -0.96716  -0.95417
 Alpha  occ. eigenvalues --   -0.87270  -0.85962  -0.83524  -0.82255  -0.78584
 Alpha  occ. eigenvalues --   -0.77316  -0.73150  -0.72396  -0.71917  -0.71549
 Alpha  occ. eigenvalues --   -0.71046  -0.70247  -0.66129  -0.65837  -0.64822
 Alpha  occ. eigenvalues --   -0.64567  -0.63197  -0.61923  -0.56340  -0.55102
 Alpha  occ. eigenvalues --   -0.54198  -0.53933  -0.52901  -0.52651  -0.49924
 Alpha  occ. eigenvalues --   -0.49916  -0.48677  -0.48670  -0.45927  -0.44696
 Alpha  occ. eigenvalues --   -0.38488  -0.37544  -0.37086  -0.36178
 Alpha virt. eigenvalues --    0.03889   0.05216   0.10103   0.11479   0.15371
 Alpha virt. eigenvalues --    0.16732   0.20408   0.21426   0.26258   0.27344
 Alpha virt. eigenvalues --    0.27557   0.27696   0.29930   0.31081   0.31685

 Mulliken charges:
               1
     1  C   -0.168753
     2  C   -0.223160
     3  C   -0.171726
     4  C    0.158327
     5  C   -0.171102
     6  C   -0.218052
     7  H    0.225899
     8  H    0.218398
     9  H    0.272729
    10  H    0.276078
    11  H    0.230061
    12  N    0.488125
    13  O   -0.459880
    14  O   -0.462383
    15  C   -0.170914
    16  C   -0.218283
    17  C   -0.171651
    18  C    0.149851
    19  C   -0.175997
    20  C   -0.223223
    21  H    0.230101
    22  H    0.227912
    23  H    0.278739
    24  H    0.280117
    25  H    0.227556
    26  N    0.486787
    27  O   -0.458336
    28  O   -0.457220
 Sum of Mulliken charges =  -0.00000

 Dipole moment (field-independent basis, Debye):
    X=             -5.8509    Y=              4.1060    Z=             -1.3734  Tot=              7.2786
 Quadrupole moment (field-independent basis, Debye-Ang):
   XX=           -136.5724   YY=           -102.4238   ZZ=           -102.2788
   XY=            -22.0435   XZ=              2.3923   YZ=              2.6029

 Normal termination of Gaussian 16 at Thu May  6 05:14:27 2021.
