 Gaussian 16, Revision A.03,
 Gaussian 16:  EM64L-G16RevA.03 25-Dec-2016

 -------------
 #p 6-31g* mp2
 -------------

 ------------------------------------------------------
 Input file generated by CHIRIPA (05-May-2021 14:51:12)
 ------------------------------------------------------
 Symbolic Z-matrix:
 Charge =  0 Multiplicity = 1

                         Standard orientation:
 ---------------------------------------------------------------------
 Center     Atomic      Atomic             Coordinates (Angstroms)
 Number     Number       Type             X           Y           Z
 ---------------------------------------------------------------------
      1          6           0       -2.962039    0.081074   -0.096928
      2          6           0       -4.338900    0.239257    0.548996
      3          6           0       -4.793854    1.697182    0.621561
      4          1           0       -2.227718    0.667953    0.471659
      5          1           0       -2.988081    0.508814   -1.108735
      6          1           0       -4.310652   -0.189897    1.558771
      7          1           0       -5.069994   -0.348220   -0.021082
      8          1           0       -4.850267    2.133489   -0.380963
      9          1           0       -4.086611    2.292712    1.207866
     10          1           0       -5.780448    1.787190    1.086739
     11          6           0       -2.493463   -1.370756   -0.176651
     12          6           0       -1.116602   -1.528939   -0.822575
     13          6           0       -0.661648   -2.986864   -0.895140
     14          1           0       -2.467421   -1.798496    0.835156
     15          1           0       -3.227784   -1.957634   -0.745238
     16          1           0       -0.385508   -0.941462   -0.252497
     17          1           0       -1.144850   -1.099785   -1.832350
     18          1           0       -1.368891   -3.582394   -1.481445
     19          1           0       -0.605235   -3.423171    0.107384
     20          1           0        0.324946   -3.076871   -1.360318
     21          6           0        2.703603    0.036985    0.598699
     22          6           0        3.504421   -1.155326    0.074231
     23          6           0        3.446443   -2.363679    1.009281
     24          1           0        3.085153    0.319557    1.589416
     25          1           0        1.657482   -0.267252    0.741753
     26          1           0        4.548431   -0.848546   -0.069102
     27          1           0        3.121046   -1.434970   -0.915435
     28          1           0        2.412446   -2.697320    1.143941
     29          1           0        3.847941   -2.107564    1.995083
     30          1           0        4.025628   -3.204512    0.615068
     31          6           0        2.751899    1.252696   -0.325121
     32          6           0        1.951081    2.445009    0.199349
     33          6           0        2.009059    3.653360   -0.735702
     34          1           0        3.798021    1.556934   -0.468173
     35          1           0        2.370349    0.970125   -1.315837
     36          1           0        2.334456    2.724653    1.189015
     37          1           0        0.907071    2.138229    0.342682
     38          1           0        1.607561    3.397246   -1.721504
     39          1           0        3.043057    3.987002   -0.870363
     40          1           0        1.429874    4.494194   -0.341489
 ---------------------------------------------------------------------

 SCF Done:  E(RHF) =  -470.733387141     A.U. after   11 cycles
 E2 =    -0.1583649853D+01 EUMP2 =    -0.47231703699394D+03

 The electronic state is 1-A.
 Alpha  occ. eigenvalues --  -11.21672 -11.21640 -11.21604 -11.21598 -11.21465
 Alpha  occ. eigenvalues --  -11.21406 -11.21396 -11.21337 -11.21150 -11.21096
 Alpha  occ. eigenvalues --  -11.21062 -11.21050  -1.08499  -1.08419  -1.03594
 Alpha  occ. eigenvalues --   -1.03515  -0.96035  -0.95969  -0.87055  -0.86981
 Alpha  occ. eigenvalues --   -0.79663  -0.79579  -0.78349  -0.78203  -0.65277
 Alpha  occ. eigenvalues --   -0.64932  -0.61082  -0.60833  -0.59390  -0.59337
 Alpha  occ. eigenvalues --   -0.57649  -0.57573  -0.55323  -0.55267  -0.52726
 Alpha  occ. eigenvalues --   -0.52663  -0.52464  -0.52393  -0.50070  -0.49825
 Alpha  occ. eigenvalues --   -0.47999  -0.47895  -0.46791  -0.46581  -0.46099
 Alpha  occ. eigenvalues --   -0.45802  -0.45755  -0.45313  -0.43838  -0.43777
 Alpha virt. eigenvalues --    0.19429   0.22590   0.23423   0.24880   0.25507
 Alpha virt. eigenvalues --    0.26494   0.26853   0.27704   0.28388   0.29539
 Alpha virt. eigenvalues --    0.30520   0.31291   0.31778   0.31917   0.32369

 Mulliken charges:
               1
     1  C   -0.299048
     2  C   -0.299708
     3  C   -0.475801
     4  H    0.149653
     5  H    0.149697
     6  H    0.152132
     7  H    0.152130
     8  H    0.155254
     9  H    0.155350
    10  H    0.160418
    11  C   -0.297656
    12  C   -0.308526
    13  C   -0.476839
    14  H    0.149680
    15  H    0.150046
    16  H    0.158999
    17  H    0.152032
    18  H    0.155767
    19  H    0.155385
    20  H    0.161435
    21  C   -0.304768
    22  C   -0.299783
    23  C   -0.477322
    24  H    0.149751
    25  H    0.155156
    26  H    0.152004
    27  H    0.152213
    28  H    0.157046
    29  H    0.154887
    30  H    0.160235
    31  C   -0.298259
    32  C   -0.300530
    33  C   -0.475641
    34  H    0.149585
    35  H    0.150339
    36  H    0.151806
    37  H    0.152033
    38  H    0.155469
    39  H    0.155131
    40  H    0.160250
 Sum of Mulliken charges =  -0.00000

 Dipole moment (field-independent basis, Debye):
    X=             -0.0219    Y=             -0.0089    Z=             -0.0086  Tot=              0.0252
 Quadrupole moment (field-independent basis, Debye-Ang):
   XX=            -84.0852   YY=            -86.5582   ZZ=            -84.0222
   XY=              0.8686   XZ=              0.8355   YZ=              0.6825

 Normal termination of Gaussian 16 at Thu May  6 02:20:04 2021.
