 Gaussian 16, Revision A.03,
 Gaussian 16:  EM64L-G16RevA.03 25-Dec-2016

 -------------
 #p 6-31g* mp2
 -------------

 ------------------------------------------------------
 Input file generated by CHIRIPA (05-May-2021 14:57:22)
 ------------------------------------------------------
 Symbolic Z-matrix:
 Charge =  0 Multiplicity = 1

                         Standard orientation:
 ---------------------------------------------------------------------
 Center     Atomic      Atomic             Coordinates (Angstroms)
 Number     Number       Type             X           Y           Z
 ---------------------------------------------------------------------
      1          6           0       -1.076949   -0.269637    0.806174
      2          6           0       -1.804225   -1.452641    0.638572
      3          6           0       -3.137397   -1.413171    0.219476
      4          6           0       -3.714461   -0.167807   -0.024157
      5          6           0       -3.016139    1.028316    0.133722
      6          6           0       -1.684157    0.964890    0.553659
      7          1           0       -0.041770   -0.309603    1.132065
      8          1           0       -1.335241   -2.412813    0.833943
      9          1           0       -3.723620   -2.313602    0.081688
     10          1           0       -3.510848    1.970479   -0.068785
     11          1           0       -1.121775    1.885242    0.682979
     12          7           0       -5.125201   -0.113341   -0.468280
     13          8           0       -5.610629    0.996475   -0.676377
     14          8           0       -5.718799   -1.181499   -0.599878
     15          6           0        2.320412    2.383978    0.331794
     16          6           0        3.092247    2.188405   -0.818224
     17          6           0        3.740296    0.969561   -1.039588
     18          6           0        3.594247   -0.036599   -0.085858
     19          6           0        2.832229    0.127725    1.069830
     20          6           0        2.193090    1.354829    1.270496
     21          1           0        1.820454    3.334014    0.495715
     22          1           0        3.192902    2.985880   -1.548941
     23          1           0        4.343983    0.791216   -1.921161
     24          1           0        2.750596   -0.685955    1.780237
     25          1           0        1.594318    1.503890    2.164531
     26          7           0        4.275590   -1.331307   -0.309249
     27          8           0        4.131129   -2.201933    0.546191
     28          8           0        4.941187   -1.450957   -1.335554
 ---------------------------------------------------------------------

 SCF Done:  E(RHF) =  -868.336178617     A.U. after   16 cycles
 E2 =    -0.2602218824D+01 EUMP2 =    -0.87093839744115D+03

 The electronic state is 1-A.
 Alpha  occ. eigenvalues --  -20.61728 -20.61708 -20.60956 -20.60946 -15.86783
 Alpha  occ. eigenvalues --  -15.86011 -11.32368 -11.31406 -11.29017 -11.28877
 Alpha  occ. eigenvalues --  -11.28728 -11.28091 -11.28036 -11.27954 -11.27919
 Alpha  occ. eigenvalues --  -11.27649 -11.27081 -11.26935  -1.60792  -1.60029
 Alpha  occ. eigenvalues --   -1.40340  -1.39582  -1.20568  -1.19587  -1.09914
 Alpha  occ. eigenvalues --   -1.08974  -1.06015  -1.05004  -0.96710  -0.95805
 Alpha  occ. eigenvalues --   -0.87384  -0.86397  -0.83560  -0.82636  -0.78561
 Alpha  occ. eigenvalues --   -0.77686  -0.72994  -0.72227  -0.72122  -0.71656
 Alpha  occ. eigenvalues --   -0.71354  -0.70729  -0.66213  -0.66010  -0.65234
 Alpha  occ. eigenvalues --   -0.65027  -0.63320  -0.62358  -0.56473  -0.55707
 Alpha  occ. eigenvalues --   -0.54128  -0.54046  -0.53315  -0.53098  -0.49770
 Alpha  occ. eigenvalues --   -0.49737  -0.48991  -0.48980  -0.45698  -0.44981
 Alpha  occ. eigenvalues --   -0.38540  -0.37689  -0.37438  -0.36613
 Alpha virt. eigenvalues --    0.03924   0.04862   0.09908   0.11026   0.15257
 Alpha virt. eigenvalues --    0.16326   0.19038   0.22193   0.25294   0.25709
 Alpha virt. eigenvalues --    0.28175   0.29579   0.29741   0.30728   0.32484

 Mulliken charges:
               1
     1  C   -0.171082
     2  C   -0.221073
     3  C   -0.169869
     4  C    0.158171
     5  C   -0.170582
     6  C   -0.221549
     7  H    0.227774
     8  H    0.227375
     9  H    0.277108
    10  H    0.274436
    11  H    0.212986
    12  N    0.488044
    13  O   -0.461107
    14  O   -0.459079
    15  C   -0.172213
    16  C   -0.216637
    17  C   -0.168711
    18  C    0.161288
    19  C   -0.177823
    20  C   -0.227773
    21  H    0.227517
    22  H    0.228895
    23  H    0.280274
    24  H    0.276294
    25  H    0.225002
    26  N    0.487965
    27  O   -0.459964
    28  O   -0.455668
 Sum of Mulliken charges =  -0.00000

 Dipole moment (field-independent basis, Debye):
    X=              2.9074    Y=              4.3281    Z=              2.1401  Tot=              5.6361
 Quadrupole moment (field-independent basis, Debye-Ang):
   XX=           -158.4023   YY=            -99.7058   ZZ=           -102.3211
   XY=             17.9359   XZ=             -5.2212   YZ=             -2.8051

 Normal termination of Gaussian 16 at Thu May  6 08:08:27 2021.
