 Gaussian 16, Revision A.03,
 Gaussian 16:  EM64L-G16RevA.03 25-Dec-2016

 -------------
 #p 6-31g* mp2
 -------------

 ------------------------------------------------------
 Input file generated by CHIRIPA (05-May-2021 14:57:26)
 ------------------------------------------------------
 Symbolic Z-matrix:
 Charge =  0 Multiplicity = 1

                         Standard orientation:
 ---------------------------------------------------------------------
 Center     Atomic      Atomic             Coordinates (Angstroms)
 Number     Number       Type             X           Y           Z
 ---------------------------------------------------------------------
      1          6           0        4.691762    2.183963   -0.247019
      2          6           0        3.978605    1.900194    0.922342
      3          6           0        3.362619    0.656994    1.094278
      4          6           0        3.480545   -0.283325    0.071936
      5          6           0        4.184162   -0.030572   -1.104639
      6          6           0        4.792088    1.219375   -1.255000
      7          1           0        5.167145    3.152331   -0.372203
      8          1           0        3.899029    2.647389    1.706824
      9          1           0        2.804412    0.410863    1.989399
     10          1           0        4.245976   -0.795610   -1.869043
     11          1           0        5.345295    1.436981   -2.164205
     12          7           0        2.832694   -1.603017    0.242536
     13          8           0        2.951372   -2.414387   -0.673013
     14          8           0        2.218498   -1.801031    1.288572
     15          6           0       -2.722230   -2.304277   -0.030931
     16          6           0       -1.843612   -1.237234    0.183477
     17          6           0       -2.311860    0.080061    0.178496
     18          6           0       -3.670952    0.294957   -0.045065
     19          6           0       -4.571283   -0.747024   -0.261790
     20          6           0       -4.080866   -2.056204   -0.252490
     21          1           0       -2.349873   -3.324432   -0.025383
     22          1           0       -0.787973   -1.426907    0.355803
     23          1           0       -1.653672    0.924785    0.341742
     24          1           0       -5.618286   -0.526503   -0.430829
     25          1           0       -4.765519   -2.882928   -0.419288
     26          7           0       -4.178400    1.685223   -0.052624
     27          8           0       -5.380245    1.847997   -0.251899
     28          8           0       -3.364684    2.585814    0.140868
 ---------------------------------------------------------------------

 SCF Done:  E(RHF) =  -868.340251577     A.U. after   15 cycles
 E2 =    -0.2598298947D+01 EUMP2 =    -0.87093855052432D+03

 The electronic state is 1-A.
 Alpha  occ. eigenvalues --  -20.61726 -20.61699 -20.60417 -20.60408 -15.86725
 Alpha  occ. eigenvalues --  -15.85460 -11.31783 -11.30645 -11.28314 -11.28302
 Alpha  occ. eigenvalues --  -11.27972 -11.27242 -11.27231 -11.27193 -11.27152
 Alpha  occ. eigenvalues --  -11.26788 -11.26169 -11.25978  -1.60782  -1.59493
 Alpha  occ. eigenvalues --   -1.40339  -1.39053  -1.19923  -1.18773  -1.09372
 Alpha  occ. eigenvalues --   -1.08183  -1.05273  -1.04140  -0.96256  -0.95061
 Alpha  occ. eigenvalues --   -0.86684  -0.85530  -0.83094  -0.81898  -0.78184
 Alpha  occ. eigenvalues --   -0.76985  -0.72941  -0.72092  -0.71683  -0.71014
 Alpha  occ. eigenvalues --   -0.70813  -0.69853  -0.65571  -0.65263  -0.64411
 Alpha  occ. eigenvalues --   -0.64094  -0.62622  -0.61484  -0.55771  -0.54594
 Alpha  occ. eigenvalues --   -0.53624  -0.53354  -0.52490  -0.52200  -0.49725
 Alpha  occ. eigenvalues --   -0.49680  -0.48451  -0.48419  -0.45792  -0.44500
 Alpha  occ. eigenvalues --   -0.37878  -0.36863  -0.36721  -0.35748
 Alpha virt. eigenvalues --    0.04288   0.05525   0.10794   0.11915   0.15840
 Alpha virt. eigenvalues --    0.17088   0.20979   0.22179   0.26918   0.27594
 Alpha virt. eigenvalues --    0.28213   0.28995   0.30565   0.31661   0.32190

 Mulliken charges:
               1
     1  C   -0.169277
     2  C   -0.217825
     3  C   -0.172603
     4  C    0.156432
     5  C   -0.170496
     6  C   -0.218232
     7  H    0.228892
     8  H    0.226873
     9  H    0.275244
    10  H    0.276144
    11  H    0.225864
    12  N    0.486696
    13  O   -0.457498
    14  O   -0.466121
    15  C   -0.171762
    16  C   -0.224205
    17  C   -0.173378
    18  C    0.158300
    19  C   -0.172629
    20  C   -0.218740
    21  H    0.230504
    22  H    0.239034
    23  H    0.271001
    24  H    0.273258
    25  H    0.221856
    26  N    0.488290
    27  O   -0.461833
    28  O   -0.463791
 Sum of Mulliken charges =  -0.00000

 Dipole moment (field-independent basis, Debye):
    X=              4.4811    Y=             -0.2766    Z=             -0.6129  Tot=              4.5313
 Quadrupole moment (field-independent basis, Debye-Ang):
   XX=            -97.8068   YY=           -110.1514   ZZ=           -101.6425
   XY=             36.4809   XZ=             -3.1810   YZ=              2.6159

 Normal termination of Gaussian 16 at Wed May  5 21:12:08 2021.
