 Gaussian 16, Revision A.03,
 Gaussian 16:  EM64L-G16RevA.03 25-Dec-2016

 -------------
 #p 6-31g* mp2
 -------------

 ------------------------------------------------------
 Input file generated by CHIRIPA (05-May-2021 14:53:15)
 ------------------------------------------------------
 Symbolic Z-matrix:
 Charge =  0 Multiplicity = 1

                         Standard orientation:
 ---------------------------------------------------------------------
 Center     Atomic      Atomic             Coordinates (Angstroms)
 Number     Number       Type             X           Y           Z
 ---------------------------------------------------------------------
      1          6           0       -2.973728   -0.282710    0.534931
      2          6           0       -2.301304   -1.654667    0.594644
      3          6           0       -0.989937   -1.636569    1.380635
      4          1           0       -2.281387    0.438374    0.079251
      5          1           0       -3.163344    0.069804    1.558247
      6          1           0       -2.114267   -2.005104   -0.428502
      7          1           0       -2.995398   -2.372612    1.050060
      8          1           0       -1.163200   -1.311544    2.411625
      9          1           0       -0.277062   -0.941948    0.924662
     10          1           0       -0.526194   -2.627477    1.410699
     11          6           0       -4.285812   -0.284664   -0.247475
     12          6           0       -4.958236    1.087293   -0.307187
     13          6           0       -6.269604    1.069195   -1.093178
     14          1           0       -4.096196   -0.637179   -1.270790
     15          1           0       -4.978154   -1.005749    0.208206
     16          1           0       -4.264142    1.805238   -0.762603
     17          1           0       -5.145273    1.437730    0.715959
     18          1           0       -6.982478    0.374573   -0.637205
     19          1           0       -6.096341    0.744169   -2.124168
     20          1           0       -6.733346    2.060103   -1.123242
     21          6           0        2.755481    2.615265    0.681432
     22          6           0        2.282999    1.588371    1.505306
     23          6           0        2.322576    0.258499    1.075864
     24          6           0        2.843519   -0.009777   -0.189021
     25          6           0        3.321890    0.991303   -1.032994
     26          6           0        3.272507    2.313985   -0.582861
     27          1           0        2.720928    3.645550    1.023070
     28          1           0        1.880931    1.819400    2.487657
     29          1           0        1.963525   -0.555936    1.693275
     30          1           0        3.717023    0.729916   -2.007143
     31          1           0        3.640149    3.109446   -1.224831
     32          7           0        2.890608   -1.413848   -0.654606
     33          8           0        3.354345   -1.623954   -1.773284
     34          8           0        2.462888   -2.277665    0.107963
 ---------------------------------------------------------------------

 SCF Done:  E(RHF) =  -669.535010469     A.U. after   15 cycles
 E2 =    -0.2092323362D+01 EUMP2 =    -0.67162733383165D+03

 The electronic state is 1-A.
 Alpha  occ. eigenvalues --  -20.60804 -20.60786 -15.85841 -11.31205 -11.27782
 Alpha  occ. eigenvalues --  -11.27729 -11.27523 -11.26793 -11.26775 -11.21609
 Alpha  occ. eigenvalues --  -11.21375 -11.21327 -11.21270 -11.21072 -11.20757
 Alpha  occ. eigenvalues --   -1.59867  -1.39420  -1.19386  -1.08778  -1.08339
 Alpha  occ. eigenvalues --   -1.04788  -1.03412  -0.95883  -0.95600  -0.86908
 Alpha  occ. eigenvalues --   -0.86172  -0.82440  -0.79504  -0.78169  -0.77474
 Alpha  occ. eigenvalues --   -0.72062  -0.71192  -0.70495  -0.65038  -0.64982
 Alpha  occ. eigenvalues --   -0.64776  -0.62158  -0.60800  -0.59212  -0.57472
 Alpha  occ. eigenvalues --   -0.55349  -0.55129  -0.53155  -0.52924  -0.52499
 Alpha  occ. eigenvalues --   -0.52225  -0.49827  -0.48821  -0.48808  -0.47798
 Alpha  occ. eigenvalues --   -0.46533  -0.45706  -0.45630  -0.44787  -0.43642
 Alpha  occ. eigenvalues --   -0.37363  -0.36354
 Alpha virt. eigenvalues --    0.05020   0.11172   0.16519   0.21317   0.22962
 Alpha virt. eigenvalues --    0.24501   0.26611   0.26757   0.27631   0.27838
 Alpha virt. eigenvalues --    0.28863   0.30710   0.31456   0.31718   0.32107

 Mulliken charges:
               1
     1  C   -0.298184
     2  C   -0.300393
     3  C   -0.480855
     4  H    0.147952
     5  H    0.146509
     6  H    0.156405
     7  H    0.151723
     8  H    0.146038
     9  H    0.152217
    10  H    0.175420
    11  C   -0.298270
    12  C   -0.299284
    13  C   -0.475636
    14  H    0.150942
    15  H    0.150061
    16  H    0.150587
    17  H    0.150625
    18  H    0.155557
    19  H    0.155833
    20  H    0.159343
    21  C   -0.170646
    22  C   -0.220380
    23  C   -0.173569
    24  C    0.157749
    25  C   -0.170979
    26  C   -0.218559
    27  H    0.225748
    28  H    0.224263
    29  H    0.282697
    30  H    0.275566
    31  H    0.223478
    32  N    0.488385
    33  O   -0.460471
    34  O   -0.459874
 Sum of Mulliken charges =  -0.00000

 Dipole moment (field-independent basis, Debye):
    X=             -0.0913    Y=              4.8519    Z=              1.6042  Tot=              5.1110
 Quadrupole moment (field-independent basis, Debye-Ang):
   XX=            -96.4589   YY=            -94.6443   ZZ=            -91.5390
   XY=             15.3566   XZ=              1.9183   YZ=             -2.5293

 Normal termination of Gaussian 16 at Thu May  6 04:14:59 2021.
