 Gaussian 16, Revision A.03,
 Gaussian 16:  EM64L-G16RevA.03 25-Dec-2016

 -------------
 #p 6-31g* mp2
 -------------

 ------------------------------------------------------
 Input file generated by CHIRIPA (05-May-2021 14:57:25)
 ------------------------------------------------------
 Symbolic Z-matrix:
 Charge =  0 Multiplicity = 1

                         Standard orientation:
 ---------------------------------------------------------------------
 Center     Atomic      Atomic             Coordinates (Angstroms)
 Number     Number       Type             X           Y           Z
 ---------------------------------------------------------------------
      1          6           0        5.466346   -0.742783   -1.317162
      2          6           0        5.409224    0.547701   -0.780591
      3          6           0        4.351462    0.924072    0.052495
      4          6           0        3.363450   -0.019570    0.329374
      5          6           0        3.392306   -1.312926   -0.189939
      6          6           0        4.459480   -1.667348   -1.020646
      7          1           0        6.291696   -1.026632   -1.963399
      8          1           0        6.189768    1.267809   -1.009154
      9          1           0        4.282485    1.916403    0.481377
     10          1           0        2.599453   -2.008862    0.055978
     11          1           0        4.501247   -2.670260   -1.435940
     12          7           0        2.238663    0.367259    1.210066
     13          8           0        1.380692   -0.482583    1.438737
     14          8           0        2.236324    1.512973    1.655004
     15          6           0       -2.558304    2.370594   -0.575603
     16          6           0       -1.758834    1.337932   -0.074626
     17          6           0       -2.297024    0.066645    0.146120
     18          6           0       -3.644589   -0.137801   -0.146388
     19          6           0       -4.466874    0.870703   -0.646446
     20          6           0       -3.907393    2.134101   -0.859414
     21          1           0       -2.131956    3.355097   -0.744063
     22          1           0       -0.710796    1.518713    0.146686
     23          1           0       -1.700826   -0.750775    0.533147
     24          1           0       -5.508265    0.660107   -0.857568
     25          1           0       -4.530654    2.934196   -1.248565
     26          7           0       -4.225615   -1.479480    0.083188
     27          8           0       -5.415647   -1.633944   -0.182526
     28          8           0       -3.479992   -2.351219    0.524496
 ---------------------------------------------------------------------

 SCF Done:  E(RHF) =  -868.340528466     A.U. after   16 cycles
 E2 =    -0.2598986756D+01 EUMP2 =    -0.87093951522253D+03

 The electronic state is 1-A.
 Alpha  occ. eigenvalues --  -20.61840 -20.61825 -20.59986 -20.59973 -15.86842
 Alpha  occ. eigenvalues --  -15.85026 -11.31866 -11.30211 -11.28409 -11.28368
 Alpha  occ. eigenvalues --  -11.28072 -11.27337 -11.27301 -11.26842 -11.26601
 Alpha  occ. eigenvalues --  -11.26513 -11.25855 -11.25589  -1.60902  -1.59062
 Alpha  occ. eigenvalues --   -1.40455  -1.38618  -1.20009  -1.18375  -1.09468
 Alpha  occ. eigenvalues --   -1.07819  -1.05353  -1.03720  -0.96353  -0.94675
 Alpha  occ. eigenvalues --   -0.86767  -0.85144  -0.83193  -0.81491  -0.78280
 Alpha  occ. eigenvalues --   -0.76552  -0.73048  -0.72216  -0.71251  -0.71104
 Alpha  occ. eigenvalues --   -0.70383  -0.69491  -0.65658  -0.65346  -0.64017
 Alpha  occ. eigenvalues --   -0.63707  -0.62698  -0.61038  -0.55864  -0.54283
 Alpha  occ. eigenvalues --   -0.53706  -0.53434  -0.52110  -0.51790  -0.49825
 Alpha  occ. eigenvalues --   -0.49782  -0.48012  -0.47992  -0.45925  -0.44062
 Alpha  occ. eigenvalues --   -0.37972  -0.36940  -0.36395  -0.35327
 Alpha virt. eigenvalues --    0.04162   0.05936   0.10719   0.12309   0.15718
 Alpha virt. eigenvalues --    0.17458   0.20883   0.22497   0.26856   0.27565
 Alpha virt. eigenvalues --    0.28476   0.29290   0.30622   0.31757   0.32066

 Mulliken charges:
               1
     1  C   -0.169451
     2  C   -0.218685
     3  C   -0.171037
     4  C    0.156627
     5  C   -0.170519
     6  C   -0.218608
     7  H    0.228339
     8  H    0.225248
     9  H    0.275306
    10  H    0.278495
    11  H    0.227124
    12  N    0.486947
    13  O   -0.463645
    14  O   -0.461013
    15  C   -0.172198
    16  C   -0.222772
    17  C   -0.174450
    18  C    0.157746
    19  C   -0.172710
    20  C   -0.219344
    21  H    0.222981
    22  H    0.234732
    23  H    0.286694
    24  H    0.271930
    25  H    0.219216
    26  N    0.487949
    27  O   -0.464438
    28  O   -0.460463
 Sum of Mulliken charges =  -0.00000

 Dipole moment (field-independent basis, Debye):
    X=              6.5923    Y=              3.2487    Z=             -3.8674  Tot=              8.3048
 Quadrupole moment (field-independent basis, Debye-Ang):
   XX=            -89.2836   YY=           -102.1227   ZZ=           -107.5926
   XY=            -22.0689   XZ=             -5.4197   YZ=             -0.8681

 Normal termination of Gaussian 16 at Thu May  6 09:51:45 2021.
