 Gaussian 16, Revision A.03,
 Gaussian 16:  EM64L-G16RevA.03 25-Dec-2016

 -------------
 #p 6-31g* mp2
 -------------

 ------------------------------------------------------
 Input file generated by CHIRIPA (05-May-2021 14:51:07)
 ------------------------------------------------------
 Symbolic Z-matrix:
 Charge =  0 Multiplicity = 1

                         Standard orientation:
 ---------------------------------------------------------------------
 Center     Atomic      Atomic             Coordinates (Angstroms)
 Number     Number       Type             X           Y           Z
 ---------------------------------------------------------------------
      1          6           0        3.913295   -0.462212   -0.371842
      2          6           0        5.022094    0.361880    0.283461
      3          6           0        6.246468    0.527566   -0.617233
      4          1           0        4.309730   -1.451164   -0.639718
      5          1           0        3.614799    0.020252   -1.312864
      6          1           0        5.317449   -0.121250    1.223656
      7          1           0        4.622921    1.348917    0.549981
      8          1           0        5.972902    1.030090   -1.550631
      9          1           0        6.671376   -0.448431   -0.873129
     10          1           0        7.026736    1.119843   -0.129123
     11          6           0        2.682626   -0.636634    0.516279
     12          6           0        1.573827   -1.460726   -0.139024
     13          6           0        0.349452   -1.626412    0.761670
     14          1           0        2.981122   -1.119097    1.457302
     15          1           0        2.286191    0.352319    0.784155
     16          1           0        1.973000   -2.447763   -0.405544
     17          1           0        1.278472   -0.977595   -1.079219
     18          1           0       -0.075455   -0.650414    1.017566
     19          1           0        0.623019   -2.128935    1.695069
     20          1           0       -0.430815   -2.218688    0.273560
     21          6           0       -2.750246    1.002047    0.208089
     22          6           0       -2.854259    2.449502   -0.273615
     23          6           0       -1.751605    3.342690    0.295737
     24          1           0       -2.791775    0.983721    1.305762
     25          1           0       -1.767946    0.598651   -0.074317
     26          1           0       -3.836603    2.849605    0.008401
     27          1           0       -2.812670    2.464368   -1.370276
     28          1           0       -0.764584    2.970196    0.003097
     29          1           0       -1.794334    3.357623    1.389608
     30          1           0       -1.845015    4.372980   -0.061526
     31          6           0       -3.845675    0.096798   -0.352526
     32          6           0       -3.741662   -1.350656    0.129178
     33          6           0       -4.844316   -2.243845   -0.440175
     34          1           0       -4.827975    0.500195   -0.070120
     35          1           0       -3.804146    0.115124   -1.450200
     36          1           0       -3.783250   -1.365522    1.225839
     37          1           0       -2.759318   -1.750759   -0.152839
     38          1           0       -4.801587   -2.258777   -1.534046
     39          1           0       -5.831337   -1.871350   -0.147534
     40          1           0       -4.750905   -3.274134   -0.082912
 ---------------------------------------------------------------------

 SCF Done:  E(RHF) =  -470.732442577     A.U. after   11 cycles
 E2 =    -0.1583619692D+01 EUMP2 =    -0.47231606226814D+03

 The electronic state is 1-A.
 Alpha  occ. eigenvalues --  -11.21618 -11.21606 -11.21604 -11.21525 -11.21417
 Alpha  occ. eigenvalues --  -11.21371 -11.21357 -11.21311 -11.21108 -11.21075
 Alpha  occ. eigenvalues --  -11.21036 -11.21008  -1.08452  -1.08401  -1.03540
 Alpha  occ. eigenvalues --   -1.03513  -0.96004  -0.95952  -0.87007  -0.86987
 Alpha  occ. eigenvalues --   -0.79633  -0.79566  -0.78298  -0.78172  -0.65156
 Alpha  occ. eigenvalues --   -0.64978  -0.60967  -0.60913  -0.59456  -0.59241
 Alpha  occ. eigenvalues --   -0.57673  -0.57513  -0.55397  -0.55153  -0.52778
 Alpha  occ. eigenvalues --   -0.52608  -0.52491  -0.52303  -0.50024  -0.49844
 Alpha  occ. eigenvalues --   -0.48041  -0.47774  -0.46733  -0.46589  -0.45875
 Alpha  occ. eigenvalues --   -0.45749  -0.45717  -0.45437  -0.43788  -0.43705
 Alpha virt. eigenvalues --    0.21217   0.23184   0.23913   0.24024   0.26337
 Alpha virt. eigenvalues --    0.26798   0.26939   0.27417   0.27818   0.29105
 Alpha virt. eigenvalues --    0.30152   0.31546   0.31712   0.31822   0.32237

 Mulliken charges:
               1
     1  C   -0.298225
     2  C   -0.299685
     3  C   -0.475706
     4  H    0.149688
     5  H    0.149311
     6  H    0.151987
     7  H    0.152077
     8  H    0.155156
     9  H    0.155163
    10  H    0.160321
    11  C   -0.298510
    12  C   -0.300330
    13  C   -0.483529
    14  H    0.149801
    15  H    0.149650
    16  H    0.152077
    17  H    0.150943
    18  H    0.160943
    19  H    0.155224
    20  H    0.163386
    21  C   -0.304091
    22  C   -0.299080
    23  C   -0.475784
    24  H    0.149290
    25  H    0.156503
    26  H    0.151994
    27  H    0.151692
    28  H    0.153918
    29  H    0.155322
    30  H    0.160533
    31  C   -0.297660
    32  C   -0.305291
    33  C   -0.475406
    34  H    0.149292
    35  H    0.149031
    36  H    0.151969
    37  H    0.158260
    38  H    0.154750
    39  H    0.155011
    40  H    0.160006
 Sum of Mulliken charges =  -0.00000

 Dipole moment (field-independent basis, Debye):
    X=              0.0078    Y=             -0.0057    Z=              0.0178  Tot=              0.0202
 Quadrupole moment (field-independent basis, Debye-Ang):
   XX=            -85.8548   YY=            -84.6874   ZZ=            -84.3806
   XY=             -1.2559   XZ=             -0.0699   YZ=             -0.3122

 Normal termination of Gaussian 16 at Wed May  5 15:01:17 2021.
