 Gaussian 16, Revision A.03,
 Gaussian 16:  EM64L-G16RevA.03 25-Dec-2016

 -------------
 #p 6-31g* mp2
 -------------

 ------------------------------------------------------
 Input file generated by CHIRIPA (05-May-2021 14:53:13)
 ------------------------------------------------------
 Symbolic Z-matrix:
 Charge =  0 Multiplicity = 1

                         Standard orientation:
 ---------------------------------------------------------------------
 Center     Atomic      Atomic             Coordinates (Angstroms)
 Number     Number       Type             X           Y           Z
 ---------------------------------------------------------------------
      1          6           0       -4.076713   -0.047056   -0.378064
      2          6           0       -4.791866   -1.132598    0.427008
      3          6           0       -5.371747   -2.238039   -0.455903
      4          1           0       -4.780979    0.389441   -1.099468
      5          1           0       -3.271398   -0.507618   -0.966915
      6          1           0       -5.594704   -0.669924    1.015226
      7          1           0       -4.085867   -1.566430    1.146710
      8          1           0       -4.579258   -2.726216   -1.032311
      9          1           0       -6.096668   -1.824617   -1.164543
     10          1           0       -5.878487   -3.003489    0.140051
     11          6           0       -3.491629    1.065056    0.490619
     12          6           0       -2.776476    2.150597   -0.314453
     13          6           0       -2.196595    3.256039    0.568458
     14          1           0       -4.296944    1.525617    1.079471
     15          1           0       -2.787362    0.628558    1.212023
     16          1           0       -3.482474    2.584429   -1.034155
     17          1           0       -1.973637    1.687923   -0.902670
     18          1           0       -1.471673    2.842616    1.277099
     19          1           0       -2.989083    3.744216    1.144867
     20          1           0       -1.689854    4.021488   -0.027496
     21          6           0        0.762372   -1.642395    0.009507
     22          6           0        0.802788   -0.313399   -0.424840
     23          6           0        2.012826    0.386040   -0.458626
     24          6           0        3.168492   -0.277320   -0.049136
     25          6           0        3.160664   -1.600768    0.388710
     26          6           0        1.939363   -2.280713    0.414183
     27          1           0       -0.181990   -2.178165    0.032523
     28          1           0       -0.109706    0.184860   -0.739699
     29          1           0        2.072740    1.415488   -0.790386
     30          1           0        4.086852   -2.070767    0.696436
     31          1           0        1.910975   -3.312768    0.751974
     32          7           0        4.455467    0.452826   -0.080504
     33          8           0        5.459622   -0.154127    0.285442
     34          8           0        4.435673    1.618242   -0.470441
 ---------------------------------------------------------------------

 SCF Done:  E(RHF) =  -669.535480477     A.U. after   15 cycles
 E2 =    -0.2091521260D+01 EUMP2 =    -0.67162700173682D+03

 The electronic state is 1-A.
 Alpha  occ. eigenvalues --  -20.60757 -20.60752 -15.85810 -11.31182 -11.27755
 Alpha  occ. eigenvalues --  -11.27746 -11.27503 -11.26773 -11.26746 -11.22600
 Alpha  occ. eigenvalues --  -11.22467 -11.22363 -11.22288 -11.21847 -11.21798
 Alpha  occ. eigenvalues --   -1.59832  -1.39385  -1.19357  -1.09365  -1.08751
 Alpha  occ. eigenvalues --   -1.04762  -1.04399  -0.96819  -0.95585  -0.87830
 Alpha  occ. eigenvalues --   -0.86161  -0.82418  -0.80464  -0.79176  -0.77463
 Alpha  occ. eigenvalues --   -0.72029  -0.71155  -0.70468  -0.66085  -0.65009
 Alpha  occ. eigenvalues --   -0.64735  -0.62200  -0.61708  -0.60183  -0.58430
 Alpha  occ. eigenvalues --   -0.56112  -0.55265  -0.53491  -0.53231  -0.53090
 Alpha  occ. eigenvalues --   -0.52865  -0.50758  -0.48816  -0.48783  -0.48736
 Alpha  occ. eigenvalues --   -0.47516  -0.46696  -0.46650  -0.44789  -0.44660
 Alpha  occ. eigenvalues --   -0.37341  -0.36363
 Alpha virt. eigenvalues --    0.05071   0.11261   0.16544   0.18173   0.22776
 Alpha virt. eigenvalues --    0.23349   0.25025   0.26178   0.26929   0.28001
 Alpha virt. eigenvalues --    0.29608   0.30187   0.30954   0.31174   0.32225

 Mulliken charges:
               1
     1  C   -0.297951
     2  C   -0.300138
     3  C   -0.475722
     4  H    0.153985
     5  H    0.140844
     6  H    0.155746
     7  H    0.149237
     8  H    0.152460
     9  H    0.157985
    10  H    0.162724
    11  C   -0.300433
    12  C   -0.303338
    13  C   -0.477606
    14  H    0.154643
    15  H    0.148632
    16  H    0.157315
    17  H    0.142873
    18  H    0.156778
    19  H    0.159268
    20  H    0.163430
    21  C   -0.173430
    22  C   -0.226642
    23  C   -0.173465
    24  C    0.158824
    25  C   -0.171104
    26  C   -0.218436
    27  H    0.225884
    28  H    0.235292
    29  H    0.276070
    30  H    0.275618
    31  H    0.223388
    32  N    0.488096
    33  O   -0.460544
    34  O   -0.460283
 Sum of Mulliken charges =  -0.00000

 Dipole moment (field-independent basis, Debye):
    X=             -4.7508    Y=             -2.4745    Z=              0.1719  Tot=              5.3593
 Quadrupole moment (field-independent basis, Debye-Ang):
   XX=           -121.2721   YY=            -90.2931   ZZ=            -95.2212
   XY=            -10.2875   XZ=              1.2238   YZ=             -1.9678

 Normal termination of Gaussian 16 at Thu May  6 15:24:47 2021.
