 Gaussian 16, Revision A.03,
 Gaussian 16:  EM64L-G16RevA.03 25-Dec-2016

 -------------
 #p 6-31g* mp2
 -------------

 ------------------------------------------------------
 Input file generated by CHIRIPA (05-May-2021 14:51:11)
 ------------------------------------------------------
 Symbolic Z-matrix:
 Charge =  0 Multiplicity = 1

                         Standard orientation:
 ---------------------------------------------------------------------
 Center     Atomic      Atomic             Coordinates (Angstroms)
 Number     Number       Type             X           Y           Z
 ---------------------------------------------------------------------
      1          6           0        2.200978   -0.453069    0.461041
      2          6           0        1.855516   -0.652452    1.937147
      3          6           0        0.372027   -0.946054    2.162653
      4          1           0        1.597135    0.371394    0.057831
      5          1           0        1.915010   -1.353461   -0.100129
      6          1           0        2.143319    0.247508    2.495589
      7          1           0        2.460390   -1.476411    2.336940
      8          1           0        0.074103   -1.855425    1.630782
      9          1           0       -0.244769   -0.121711    1.790333
     10          1           0        0.147222   -1.085141    3.224716
     11          6           0        3.680421   -0.158735    0.219501
     12          6           0        4.025884    0.040647   -1.256605
     13          6           0        5.509372    0.334250   -1.482111
     14          1           0        3.966389    0.741657    0.780671
     15          1           0        4.284264   -0.983198    0.622712
     16          1           0        3.421009    0.864607   -1.656397
     17          1           0        3.738080   -0.859312   -1.815047
     18          1           0        6.126168   -0.490093   -1.109790
     19          1           0        5.807296    1.243621   -0.950240
     20          1           0        5.734178    0.473337   -2.544173
     21          6           0       -3.327740   -0.228701   -0.724759
     22          6           0       -2.999735   -1.653786   -0.278071
     23          6           0       -3.781915   -2.712095   -1.056514
     24          1           0       -4.405430   -0.052441   -0.604509
     25          1           0       -3.112610   -0.129542   -1.797737
     26          1           0       -3.214113   -1.749833    0.794045
     27          1           0       -1.922669   -1.826611   -0.399218
     28          1           0       -3.560595   -2.645114   -2.126622
     29          1           0       -4.859377   -2.567899   -0.926579
     30          1           0       -3.532095   -3.723490   -0.721062
     31          6           0       -2.553659    0.840506    0.044217
     32          6           0       -2.881665    2.265591   -0.402471
     33          6           0       -2.099484    3.323898    0.375971
     34          1           0       -2.768790    0.741347    1.117195
     35          1           0       -1.475968    0.664245   -0.076033
     36          1           0       -3.958731    2.438415   -0.281324
     37          1           0       -2.667287    2.361637   -1.474587
     38          1           0       -1.022021    3.179703    0.246037
     39          1           0       -2.320805    3.256917    1.446079
     40          1           0       -2.349305    4.335295    0.040519
 ---------------------------------------------------------------------

 SCF Done:  E(RHF) =  -470.732769930     A.U. after   11 cycles
 E2 =    -0.1583761816D+01 EUMP2 =    -0.47231653174651D+03

 The electronic state is 1-A.
 Alpha  occ. eigenvalues --  -11.21622 -11.21616 -11.21557 -11.21545 -11.21427
 Alpha  occ. eigenvalues --  -11.21391 -11.21367 -11.21332 -11.21119 -11.21085
 Alpha  occ. eigenvalues --  -11.21043 -11.20901  -1.08455  -1.08406  -1.03527
 Alpha  occ. eigenvalues --   -1.03508  -0.96002  -0.95937  -0.87008  -0.86966
 Alpha  occ. eigenvalues --   -0.79603  -0.79588  -0.78374  -0.78109  -0.65105
 Alpha  occ. eigenvalues --   -0.65020  -0.60973  -0.60866  -0.59350  -0.59330
 Alpha  occ. eigenvalues --   -0.57680  -0.57503  -0.55307  -0.55211  -0.52712
 Alpha  occ. eigenvalues --   -0.52639  -0.52464  -0.52316  -0.49974  -0.49861
 Alpha  occ. eigenvalues --   -0.47982  -0.47918  -0.46725  -0.46531  -0.46079
 Alpha  occ. eigenvalues --   -0.45712  -0.45709  -0.45235  -0.43778  -0.43771
 Alpha virt. eigenvalues --    0.20974   0.23195   0.23680   0.24024   0.26025
 Alpha virt. eigenvalues --    0.26165   0.26679   0.27745   0.28061   0.29788
 Alpha virt. eigenvalues --    0.30335   0.31466   0.31533   0.31959   0.32109

 Mulliken charges:
               1
     1  C   -0.299547
     2  C   -0.299660
     3  C   -0.483705
     4  H    0.149270
     5  H    0.149046
     6  H    0.151657
     7  H    0.151517
     8  H    0.156268
     9  H    0.164642
    10  H    0.158959
    11  C   -0.298203
    12  C   -0.299640
    13  C   -0.475714
    14  H    0.149731
    15  H    0.149981
    16  H    0.151631
    17  H    0.151841
    18  H    0.155270
    19  H    0.155282
    20  H    0.160258
    21  C   -0.297886
    22  C   -0.301595
    23  C   -0.475757
    24  H    0.149461
    25  H    0.149255
    26  H    0.152810
    27  H    0.154549
    28  H    0.154928
    29  H    0.155020
    30  H    0.160013
    31  C   -0.304223
    32  C   -0.298873
    33  C   -0.476220
    34  H    0.150687
    35  H    0.154833
    36  H    0.152059
    37  H    0.151863
    38  H    0.154044
    39  H    0.155417
    40  H    0.160733
 Sum of Mulliken charges =  -0.00000

 Dipole moment (field-independent basis, Debye):
    X=             -0.0268    Y=              0.0079    Z=             -0.0002  Tot=              0.0279
 Quadrupole moment (field-independent basis, Debye-Ang):
   XX=            -85.5025   YY=            -84.6441   ZZ=            -84.6928
   XY=             -0.9007   XZ=             -0.5043   YZ=             -0.1964

 Normal termination of Gaussian 16 at Wed May  5 18:15:53 2021.
