 Gaussian 16, Revision A.03,
 Gaussian 16:  EM64L-G16RevA.03 25-Dec-2016

 -------------
 #p 6-31g* mp2
 -------------

 ------------------------------------------------------
 Input file generated by CHIRIPA (05-May-2021 14:57:26)
 ------------------------------------------------------
 Symbolic Z-matrix:
 Charge =  0 Multiplicity = 1

                         Standard orientation:
 ---------------------------------------------------------------------
 Center     Atomic      Atomic             Coordinates (Angstroms)
 Number     Number       Type             X           Y           Z
 ---------------------------------------------------------------------
      1          6           0       -3.214824   -2.078367    1.275307
      2          6           0       -2.470868   -1.091775    1.930811
      3          6           0       -2.316650    0.176188    1.362451
      4          6           0       -2.922729    0.424325    0.131847
      5          6           0       -3.670052   -0.537731   -0.545830
      6          6           0       -3.810991   -1.798690    0.041254
      7          1           0       -3.329466   -3.060631    1.724096
      8          1           0       -2.006757   -1.306154    2.889294
      9          1           0       -1.746088    0.958426    1.848230
     10          1           0       -4.120905   -0.294290   -1.500233
     11          1           0       -4.389321   -2.562957   -0.470092
     12          7           0       -2.766495    1.762953   -0.479762
     13          8           0       -3.310410    1.956455   -1.564819
     14          8           0       -2.103082    2.593321    0.137498
     15          6           0        1.230245   -1.637282   -1.398172
     16          6           0        0.925834   -0.314241   -1.061397
     17          6           0        1.870141    0.489253   -0.415464
     18          6           0        3.114591   -0.065110   -0.119969
     19          6           0        3.447853   -1.379705   -0.442557
     20          6           0        2.488065   -2.164862   -1.088223
     21          1           0        0.490671   -2.254333   -1.899845
     22          1           0       -0.050197    0.098141   -1.300875
     23          1           0        1.660921    1.516668   -0.143317
     24          1           0        4.429335   -1.762797   -0.190857
     25          1           0        2.727247   -3.192022   -1.348570
     26          7           0        4.122481    0.775807    0.563711
     27          8           0        5.211644    0.263781    0.813087
     28          8           0        3.804217    1.931020    0.837255
 ---------------------------------------------------------------------

 SCF Done:  E(RHF) =  -868.337940409     A.U. after   16 cycles
 E2 =    -0.2600602287D+01 EUMP2 =    -0.87093854269602D+03

 The electronic state is 1-A.
 Alpha  occ. eigenvalues --  -20.61632 -20.61626 -20.60650 -20.60633 -15.86678
 Alpha  occ. eigenvalues --  -15.85697 -11.32006 -11.31077 -11.28580 -11.28523
 Alpha  occ. eigenvalues --  -11.28256 -11.27683 -11.27574 -11.27556 -11.27488
 Alpha  occ. eigenvalues --  -11.27427 -11.26719 -11.26632  -1.60724  -1.59722
 Alpha  occ. eigenvalues --   -1.40268  -1.39273  -1.20177  -1.19260  -1.09573
 Alpha  occ. eigenvalues --   -1.08660  -1.05542  -1.04655  -0.96405  -0.95485
 Alpha  occ. eigenvalues --   -0.86942  -0.86058  -0.83216  -0.82310  -0.78281
 Alpha  occ. eigenvalues --   -0.77350  -0.72869  -0.72093  -0.71912  -0.71238
 Alpha  occ. eigenvalues --   -0.71050  -0.70366  -0.65801  -0.65514  -0.64907
 Alpha  occ. eigenvalues --   -0.64662  -0.62872  -0.61989  -0.56022  -0.55182
 Alpha  occ. eigenvalues --   -0.53949  -0.53608  -0.52986  -0.52709  -0.49641
 Alpha  occ. eigenvalues --   -0.49634  -0.48679  -0.48664  -0.45665  -0.44674
 Alpha  occ. eigenvalues --   -0.38166  -0.37318  -0.37128  -0.36214
 Alpha virt. eigenvalues --    0.04190   0.05170   0.10467   0.11397   0.15710
 Alpha virt. eigenvalues --    0.16653   0.20731   0.21354   0.26612   0.26825
 Alpha virt. eigenvalues --    0.27631   0.28441   0.30373   0.30792   0.31767

 Mulliken charges:
               1
     1  C   -0.171096
     2  C   -0.216895
     3  C   -0.171097
     4  C    0.149873
     5  C   -0.175570
     6  C   -0.219973
     7  H    0.228224
     8  H    0.228153
     9  H    0.279080
    10  H    0.276737
    11  H    0.225045
    12  N    0.486794
    13  O   -0.458389
    14  O   -0.458561
    15  C   -0.171938
    16  C   -0.218407
    17  C   -0.174985
    18  C    0.158023
    19  C   -0.171833
    20  C   -0.219427
    21  H    0.223537
    22  H    0.225105
    23  H    0.283654
    24  H    0.274716
    25  H    0.221517
    26  N    0.487690
    27  O   -0.461962
    28  O   -0.458016
 Sum of Mulliken charges =  -0.00000

 Dipole moment (field-independent basis, Debye):
    X=             -4.2519    Y=             -7.6342    Z=             -0.1151  Tot=              8.7392
 Quadrupole moment (field-independent basis, Debye-Ang):
   XX=           -121.1016   YY=           -105.7851   ZZ=           -101.4720
   XY=              3.1143   XZ=            -11.3361   YZ=              2.0060

 Normal termination of Gaussian 16 at Fri May  7 09:43:54 2021.
