 Gaussian 16, Revision A.03,
 Gaussian 16:  EM64L-G16RevA.03 25-Dec-2016

 -------------
 #p 6-31g* mp2
 -------------

 ------------------------------------------------------
 Input file generated by CHIRIPA (05-May-2021 14:57:23)
 ------------------------------------------------------
 Symbolic Z-matrix:
 Charge =  0 Multiplicity = 1

                         Standard orientation:
 ---------------------------------------------------------------------
 Center     Atomic      Atomic             Coordinates (Angstroms)
 Number     Number       Type             X           Y           Z
 ---------------------------------------------------------------------
      1          6           0       -2.405471   -2.202240   -0.130278
      2          6           0       -1.738044   -1.107741   -0.689861
      3          6           0       -2.332530    0.157587   -0.698810
      4          6           0       -3.601133    0.293082   -0.137048
      5          6           0       -4.291567   -0.778052    0.427988
      6          6           0       -3.677859   -2.034199    0.425880
      7          1           0       -1.936193   -3.181612   -0.127621
      8          1           0       -0.749808   -1.235291   -1.122488
      9          1           0       -1.838295    1.021980   -1.125394
     10          1           0       -5.275820   -0.619786    0.851798
     11          1           0       -4.198546   -2.882413    0.861154
     12          7           0       -4.240664    1.627768   -0.140669
     13          8           0       -5.359039    1.720869    0.360537
     14          8           0       -3.611444    2.555522   -0.644644
     15          6           0        5.310095    1.664869   -0.094708
     16          6           0        5.224666    0.615378   -1.015463
     17          6           0        4.223495   -0.353232   -0.897141
     18          6           0        3.320325   -0.241131    0.158799
     19          6           0        3.379321    0.792628    1.092153
     20          6           0        4.388776    1.749994    0.954313
     21          1           0        6.091047    2.412941   -0.194204
     22          1           0        5.938810    0.546744   -1.831142
     23          1           0        4.134309   -1.176191   -1.595856
     24          1           0        2.653038    0.834451    1.894763
     25          1           0        4.452706    2.563945    1.670863
     26          7           0        2.256046   -1.260603    0.294393
     27          8           0        1.472500   -1.139389    1.233542
     28          8           0        2.225561   -2.161575   -0.541046
 ---------------------------------------------------------------------

 SCF Done:  E(RHF) =  -868.340214889     A.U. after   16 cycles
 E2 =    -0.2598864160D+01 EUMP2 =    -0.87093907904865D+03

 The electronic state is 1-A.
 Alpha  occ. eigenvalues --  -20.61780 -20.61740 -20.60072 -20.60066 -15.86759
 Alpha  occ. eigenvalues --  -15.85114 -11.31814 -11.30215 -11.28357 -11.28322
 Alpha  occ. eigenvalues --  -11.28018 -11.27286 -11.27257 -11.26767 -11.26710
 Alpha  occ. eigenvalues --  -11.26304 -11.25718 -11.25540  -1.60835  -1.59152
 Alpha  occ. eigenvalues --   -1.40385  -1.38714  -1.19957  -1.18331  -1.09412
 Alpha  occ. eigenvalues --   -1.07747  -1.05305  -1.03698  -0.96295  -0.94642
 Alpha  occ. eigenvalues --   -0.86718  -0.85087  -0.83132  -0.81498  -0.78220
 Alpha  occ. eigenvalues --   -0.76603  -0.72979  -0.72152  -0.71340  -0.71052
 Alpha  occ. eigenvalues --   -0.70472  -0.69396  -0.65605  -0.65299  -0.63972
 Alpha  occ. eigenvalues --   -0.63666  -0.62652  -0.61062  -0.55813  -0.54127
 Alpha  occ. eigenvalues --   -0.53658  -0.53387  -0.52032  -0.51782  -0.49768
 Alpha  occ. eigenvalues --   -0.49716  -0.48111  -0.48066  -0.45849  -0.44181
 Alpha  occ. eigenvalues --   -0.37920  -0.36893  -0.36235  -0.35282
 Alpha virt. eigenvalues --    0.04250   0.05922   0.10766   0.12382   0.15824
 Alpha virt. eigenvalues --    0.17520   0.20958   0.22569   0.26898   0.27774
 Alpha virt. eigenvalues --    0.28378   0.29441   0.30566   0.32002   0.32177

 Mulliken charges:
               1
     1  C   -0.168177
     2  C   -0.212067
     3  C   -0.174179
     4  C    0.157782
     5  C   -0.173036
     6  C   -0.219382
     7  H    0.231456
     8  H    0.232073
     9  H    0.269660
    10  H    0.271656
    11  H    0.220246
    12  N    0.488266
    13  O   -0.463248
    14  O   -0.464531
    15  C   -0.169422
    16  C   -0.218488
    17  C   -0.171232
    18  C    0.156715
    19  C   -0.170459
    20  C   -0.218323
    21  H    0.228439
    22  H    0.225389
    23  H    0.275092
    24  H    0.277690
    25  H    0.226784
    26  N    0.485665
    27  O   -0.457068
    28  O   -0.467298
 Sum of Mulliken charges =  -0.00000

 Dipole moment (field-independent basis, Debye):
    X=              6.5076    Y=             -1.1863    Z=             -0.3832  Tot=              6.6259
 Quadrupole moment (field-independent basis, Debye-Ang):
   XX=            -93.5251   YY=           -108.4456   ZZ=           -101.5222
   XY=             30.7066   XZ=             -5.0918   YZ=              2.6270

 Normal termination of Gaussian 16 at Thu May  6 21:10:34 2021.
