 Gaussian 16, Revision A.03,
 Gaussian 16:  EM64L-G16RevA.03 25-Dec-2016

 -------------
 #p 6-31g* mp2
 -------------

 ------------------------------------------------------
 Input file generated by CHIRIPA (05-May-2021 14:53:11)
 ------------------------------------------------------
 Symbolic Z-matrix:
 Charge =  0 Multiplicity = 1

                         Standard orientation:
 ---------------------------------------------------------------------
 Center     Atomic      Atomic             Coordinates (Angstroms)
 Number     Number       Type             X           Y           Z
 ---------------------------------------------------------------------
      1          6           0       -5.411688   -0.171842   -0.535873
      2          6           0       -6.634307    0.456036    0.134171
      3          6           0       -7.819055    0.607384   -0.820428
      4          1           0       -5.115385    0.444887   -1.395404
      5          1           0       -5.687837   -1.156431   -0.938019
      6          1           0       -6.355574    1.438553    0.536146
      7          1           0       -6.927618   -0.162156    0.992322
      8          1           0       -8.125070   -0.368005   -1.212311
      9          1           0       -7.549776    1.241799   -1.671079
     10          1           0       -8.682162    1.058223   -0.320779
     11          6           0       -4.219098   -0.329707    0.405687
     12          6           0       -2.996480   -0.957585   -0.264357
     13          6           0       -1.811732   -1.108932    0.690242
     14          1           0       -3.942950    0.654882    0.807834
     15          1           0       -4.515402   -0.946436    1.265219
     16          1           0       -2.703169   -0.339393   -1.122508
     17          1           0       -3.275213   -1.940102   -0.666332
     18          1           0       -2.081011   -1.743348    1.540893
     19          1           0       -1.505717   -0.133544    1.082126
     20          1           0       -0.948624   -1.559772    0.190594
     21          6           0        1.521352    0.949084    0.932922
     22          6           0        2.436860    1.890948    0.452029
     23          6           0        3.681296    1.485033   -0.039053
     24          6           0        3.978646    0.123104   -0.034422
     25          6           0        3.087757   -0.839418    0.437975
     26          6           0        1.849145   -0.410695    0.924375
     27          1           0        0.556907    1.273267    1.312588
     28          1           0        2.184996    2.947631    0.457449
     29          1           0        4.408805    2.192911   -0.417283
     30          1           0        3.367321   -1.885806    0.419759
     31          1           0        1.140115   -1.144391    1.297221
     32          7           0        5.292993   -0.318692   -0.551829
     33          8           0        5.530902   -1.524434   -0.536932
     34          8           0        6.060379    0.549136   -0.962473
 ---------------------------------------------------------------------

 SCF Done:  E(RHF) =  -669.534650223     A.U. after   15 cycles
 E2 =    -0.2091800296D+01 EUMP2 =    -0.67162645051856D+03

 The electronic state is 1-A.
 Alpha  occ. eigenvalues --  -20.60710 -20.60704 -15.85762 -11.31111 -11.27682
 Alpha  occ. eigenvalues --  -11.27661 -11.27394 -11.26697 -11.26611 -11.22511
 Alpha  occ. eigenvalues --  -11.22338 -11.22155 -11.22119 -11.21973 -11.21496
 Alpha  occ. eigenvalues --   -1.59785  -1.39339  -1.19279  -1.09154  -1.08675
 Alpha  occ. eigenvalues --   -1.04684  -1.04289  -0.96782  -0.95513  -0.87826
 Alpha  occ. eigenvalues --   -0.86064  -0.82350  -0.80378  -0.78925  -0.77397
 Alpha  occ. eigenvalues --   -0.71981  -0.71108  -0.70407  -0.65785  -0.64929
 Alpha  occ. eigenvalues --   -0.64715  -0.62081  -0.61677  -0.60126  -0.58358
 Alpha  occ. eigenvalues --   -0.56114  -0.55156  -0.53614  -0.53190  -0.52983
 Alpha  occ. eigenvalues --   -0.52622  -0.50702  -0.48744  -0.48736  -0.48666
 Alpha  occ. eigenvalues --   -0.47375  -0.46478  -0.46375  -0.44749  -0.44522
 Alpha  occ. eigenvalues --   -0.37244  -0.36275
 Alpha virt. eigenvalues --    0.05125   0.11301   0.16580   0.20279   0.22353
 Alpha virt. eigenvalues --    0.23830   0.25330   0.26139   0.26512   0.27283
 Alpha virt. eigenvalues --    0.28841   0.29612   0.30907   0.31620   0.32216

 Mulliken charges:
               1
     1  C   -0.298967
     2  C   -0.300021
     3  C   -0.476086
     4  H    0.150609
     5  H    0.151333
     6  H    0.151612
     7  H    0.152654
     8  H    0.156209
     9  H    0.155786
    10  H    0.161553
    11  C   -0.298912
    12  C   -0.300010
    13  C   -0.482371
    14  H    0.147466
    15  H    0.151018
    16  H    0.154892
    17  H    0.156248
    18  H    0.158570
    19  H    0.147085
    20  H    0.161587
    21  C   -0.173052
    22  C   -0.218831
    23  C   -0.171121
    24  C    0.158587
    25  C   -0.172499
    26  C   -0.221011
    27  H    0.227087
    28  H    0.222941
    29  H    0.275210
    30  H    0.275247
    31  H    0.230475
    32  N    0.488063
    33  O   -0.460646
    34  O   -0.460705
 Sum of Mulliken charges =  -0.00000

 Dipole moment (field-independent basis, Debye):
    X=             -4.8762    Y=              1.5066    Z=              1.7725  Tot=              5.4026
 Quadrupole moment (field-independent basis, Debye-Ang):
   XX=           -132.1129   YY=            -88.9990   ZZ=            -95.8108
   XY=              7.5845   XZ=              6.7204   YZ=             -1.0553

 Normal termination of Gaussian 16 at Thu May  6 05:39:09 2021.
