 Gaussian 16, Revision A.03,
 Gaussian 16:  EM64L-G16RevA.03 25-Dec-2016

 -------------
 #p 6-31g* mp2
 -------------

 ------------------------------------------------------
 Input file generated by CHIRIPA (05-May-2021 14:53:17)
 ------------------------------------------------------
 Symbolic Z-matrix:
 Charge =  0 Multiplicity = 1

                         Standard orientation:
 ---------------------------------------------------------------------
 Center     Atomic      Atomic             Coordinates (Angstroms)
 Number     Number       Type             X           Y           Z
 ---------------------------------------------------------------------
      1          6           0        2.923133    0.940701    0.060844
      2          6           0        2.055360    2.052500   -0.529797
      3          6           0        2.080327    3.330610    0.309016
      4          1           0        2.579527    0.718608    1.080429
      5          1           0        3.957256    1.301043    0.151046
      6          1           0        1.023455    1.689697   -0.620146
      7          1           0        2.400949    2.271840   -1.548165
      8          1           0        3.100777    3.719058    0.388966
      9          1           0        1.715456    3.133608    1.322258
     10          1           0        1.453346    4.112152   -0.131378
     11          6           0        2.908450   -0.343446   -0.766490
     12          6           0        3.776223   -1.455246   -0.175849
     13          6           0        3.751255   -2.733355   -1.014662
     14          1           0        1.874326   -0.703788   -0.856693
     15          1           0        3.252056   -0.121353   -1.786075
     16          1           0        3.430633   -1.674585    0.842519
     17          1           0        4.808127   -1.092443   -0.085500
     18          1           0        4.116127   -2.536353   -2.027904
     19          1           0        2.730806   -3.121803   -1.094612
     20          1           0        4.378236   -3.514897   -0.574268
     21          6           0       -4.199589    0.178039   -1.306782
     22          6           0       -3.996754   -1.096926   -0.768408
     23          6           0       -2.935282   -1.336347    0.109374
     24          6           0       -2.092186   -0.273070    0.428626
     25          6           0       -2.268139    1.008343   -0.091289
     26          6           0       -3.336157    1.224758   -0.967102
     27          1           0       -5.026709    0.355090   -1.987900
     28          1           0       -4.665719   -1.911710   -1.030434
     29          1           0       -2.755190   -2.313556    0.540706
     30          1           0       -1.584553    1.800675    0.188602
     31          1           0       -3.491264    2.215942   -1.383686
     32          7           0       -0.964987   -0.514356    1.356853
     33          8           0       -0.236342    0.439180    1.622334
     34          8           0       -0.831480   -1.652443    1.801339
 ---------------------------------------------------------------------

 SCF Done:  E(RHF) =  -669.536272223     A.U. after   15 cycles
 E2 =    -0.2093276185D+01 EUMP2 =    -0.67162954840781D+03

 The electronic state is 1-A.
 Alpha  occ. eigenvalues --  -20.61106 -20.61093 -15.86113 -11.31370 -11.27919
 Alpha  occ. eigenvalues --  -11.27910 -11.27643 -11.26914 -11.26902 -11.20720
 Alpha  occ. eigenvalues --  -11.20671 -11.20465 -11.20335 -11.20311 -11.20150
 Alpha  occ. eigenvalues --   -1.60154  -1.39713  -1.19528  -1.08947  -1.07440
 Alpha  occ. eigenvalues --   -1.04912  -1.02655  -0.95800  -0.95113  -0.86318
 Alpha  occ. eigenvalues --   -0.86137  -0.82637  -0.78735  -0.77703  -0.77261
 Alpha  occ. eigenvalues --   -0.72361  -0.71476  -0.70635  -0.65199  -0.64917
 Alpha  occ. eigenvalues --   -0.63993  -0.62266  -0.60011  -0.58503  -0.56748
 Alpha  occ. eigenvalues --   -0.55419  -0.54383  -0.53244  -0.53001  -0.51867
 Alpha  occ. eigenvalues --   -0.51563  -0.49135  -0.49108  -0.49021  -0.47069
 Alpha  occ. eigenvalues --   -0.45736  -0.45199  -0.44691  -0.44622  -0.42884
 Alpha  occ. eigenvalues --   -0.37501  -0.36503
 Alpha virt. eigenvalues --    0.04782   0.11066   0.16277   0.20914   0.23641
 Alpha virt. eigenvalues --    0.24626   0.26892   0.27455   0.28319   0.28502
 Alpha virt. eigenvalues --    0.29079   0.30932   0.31586   0.32437   0.32524

 Mulliken charges:
               1
     1  C   -0.302919
     2  C   -0.295914
     3  C   -0.479174
     4  H    0.173805
     5  H    0.142875
     6  H    0.148697
     7  H    0.143981
     8  H    0.153077
     9  H    0.166662
    10  H    0.149520
    11  C   -0.295330
    12  C   -0.300770
    13  C   -0.475081
    14  H    0.145221
    15  H    0.143443
    16  H    0.161257
    17  H    0.148708
    18  H    0.151168
    19  H    0.154922
    20  H    0.158499
    21  C   -0.170261
    22  C   -0.218419
    23  C   -0.170621
    24  C    0.157273
    25  C   -0.171952
    26  C   -0.218876
    27  H    0.226395
    28  H    0.224152
    29  H    0.275891
    30  H    0.278837
    31  H    0.224582
    32  N    0.490019
    33  O   -0.461305
    34  O   -0.458362
 Sum of Mulliken charges =  -0.00000

 Dipole moment (field-independent basis, Debye):
    X=             -4.2090    Y=              0.7282    Z=             -2.9921  Tot=              5.2152
 Quadrupole moment (field-independent basis, Debye-Ang):
   XX=            -78.0695   YY=            -92.2508   ZZ=            -98.3469
   XY=              1.0166   XZ=              5.6506   YZ=              0.2286

 Normal termination of Gaussian 16 at Wed May  5 18:45:18 2021.
