 Gaussian 16, Revision A.03,
 Gaussian 16:  EM64L-G16RevA.03 25-Dec-2016

 -------------
 #p 6-31g* mp2
 -------------

 ------------------------------------------------------
 Input file generated by CHIRIPA (05-May-2021 14:53:15)
 ------------------------------------------------------
 Symbolic Z-matrix:
 Charge =  0 Multiplicity = 1

                         Standard orientation:
 ---------------------------------------------------------------------
 Center     Atomic      Atomic             Coordinates (Angstroms)
 Number     Number       Type             X           Y           Z
 ---------------------------------------------------------------------
      1          6           0        4.188153   -0.152091    0.195204
      2          6           0        5.371108   -0.512964   -0.703893
      3          6           0        5.974497   -1.877067   -0.367832
      4          1           0        4.516441   -0.161181    1.243578
      5          1           0        3.416052   -0.928427    0.102702
      6          1           0        6.140163    0.264532   -0.610775
      7          1           0        5.040012   -0.502826   -1.750262
      8          1           0        5.225359   -2.667646   -0.479092
      9          1           0        6.331760   -1.895928    0.666870
     10          1           0        6.818618   -2.114982   -1.022596
     11          6           0        3.574218    1.208799   -0.128510
     12          6           0        2.391263    1.569672    0.770586
     13          6           0        1.787874    2.933775    0.434526
     14          1           0        4.346319    1.985136   -0.036008
     15          1           0        3.245930    1.217889   -1.176885
     16          1           0        2.722359    1.559534    1.816956
     17          1           0        1.622208    0.792176    0.677469
     18          1           0        1.430611    2.952637   -0.600176
     19          1           0        2.537012    3.724354    0.545785
     20          1           0        0.943752    3.171690    1.089289
     21          6           0       -1.566825   -2.419290    0.412779
     22          6           0       -2.951308   -2.576859    0.290719
     23          6           0       -3.772928   -1.472158    0.047566
     24          6           0       -3.173841   -0.218795   -0.068476
     25          6           0       -1.797671   -0.029495    0.048194
     26          6           0       -0.995432   -1.148351    0.291340
     27          1           0       -0.936098   -3.282947    0.601663
     28          1           0       -3.397814   -3.562692    0.384572
     29          1           0       -4.847595   -1.565632   -0.051286
     30          1           0       -1.381608    0.965810   -0.050186
     31          1           0        0.079477   -1.022993    0.385676
     32          7           0       -4.033394    0.958196   -0.325888
     33          8           0       -3.481083    2.051793   -0.424051
     34          8           0       -5.243148    0.764839   -0.424610
 ---------------------------------------------------------------------

 SCF Done:  E(RHF) =  -669.535447376     A.U. after   15 cycles
 E2 =    -0.2091516995D+01 EUMP2 =    -0.67162696437030D+03

 The electronic state is 1-A.
 Alpha  occ. eigenvalues --  -20.60737 -20.60732 -15.85791 -11.31155 -11.27728
 Alpha  occ. eigenvalues --  -11.27711 -11.27470 -11.26744 -11.26716 -11.22432
 Alpha  occ. eigenvalues --  -11.22180 -11.22108 -11.22033 -11.21604 -11.21589
 Alpha  occ. eigenvalues --   -1.59813  -1.39366  -1.19328  -1.09116  -1.08724
 Alpha  occ. eigenvalues --   -1.04734  -1.04165  -0.96583  -0.95559  -0.87594
 Alpha  occ. eigenvalues --   -0.86132  -0.82397  -0.80238  -0.78941  -0.77437
 Alpha  occ. eigenvalues --   -0.72009  -0.71136  -0.70439  -0.65784  -0.64980
 Alpha  occ. eigenvalues --   -0.64734  -0.62173  -0.61485  -0.59944  -0.58199
 Alpha  occ. eigenvalues --   -0.55868  -0.55232  -0.53259  -0.53061  -0.53016
 Alpha  occ. eigenvalues --   -0.52830  -0.50518  -0.48775  -0.48763  -0.48531
 Alpha  occ. eigenvalues --   -0.47281  -0.46464  -0.46392  -0.44772  -0.44418
 Alpha  occ. eigenvalues --   -0.37312  -0.36334
 Alpha virt. eigenvalues --    0.05095   0.11316   0.16579   0.18715   0.22727
 Alpha virt. eigenvalues --    0.23347   0.24398   0.26247   0.26671   0.28582
 Alpha virt. eigenvalues --    0.29348   0.30691   0.31168   0.31478   0.32217

 Mulliken charges:
               1
     1  C   -0.297639
     2  C   -0.300226
     3  C   -0.475819
     4  H    0.151507
     5  H    0.141460
     6  H    0.154533
     7  H    0.153196
     8  H    0.153183
     9  H    0.156011
    10  H    0.162539
    11  C   -0.298685
    12  C   -0.304862
    13  C   -0.478883
    14  H    0.153775
    15  H    0.151224
    16  H    0.155867
    17  H    0.141832
    18  H    0.157840
    19  H    0.159675
    20  H    0.164874
    21  C   -0.171166
    22  C   -0.218605
    23  C   -0.170904
    24  C    0.158654
    25  C   -0.174571
    26  C   -0.224896
    27  H    0.225895
    28  H    0.223278
    29  H    0.275489
    30  H    0.277684
    31  H    0.230677
    32  N    0.488033
    33  O   -0.460315
    34  O   -0.460655
 Sum of Mulliken charges =  -0.00000

 Dipole moment (field-independent basis, Debye):
    X=              3.2126    Y=             -4.0166    Z=              0.9035  Tot=              5.2221
 Quadrupole moment (field-independent basis, Debye-Ang):
   XX=           -110.0247   YY=            -91.8633   ZZ=            -95.3192
   XY=             16.4952   XZ=             -2.7735   YZ=              0.5396

 Normal termination of Gaussian 16 at Thu May  6 04:18:32 2021.
