 Gaussian 16, Revision A.03,
 Gaussian 16:  EM64L-G16RevA.03 25-Dec-2016

 -------------
 #p 6-31g* mp2
 -------------

 ------------------------------------------------------
 Input file generated by CHIRIPA (05-May-2021 14:53:13)
 ------------------------------------------------------
 Symbolic Z-matrix:
 Charge =  0 Multiplicity = 1

                         Standard orientation:
 ---------------------------------------------------------------------
 Center     Atomic      Atomic             Coordinates (Angstroms)
 Number     Number       Type             X           Y           Z
 ---------------------------------------------------------------------
      1          6           0       -3.576931   -0.664707    0.221960
      2          6           0       -2.466836   -1.491353    0.871830
      3          6           0       -2.878281   -2.943054    1.118957
      4          1           0       -4.468202   -0.690530    0.863766
      5          1           0       -3.863597   -1.132674   -0.729998
      6          1           0       -2.181389   -1.021198    1.821614
      7          1           0       -1.578041   -1.463402    0.228495
      8          1           0       -3.143600   -3.433948    0.177028
      9          1           0       -3.750376   -2.989232    1.779199
     10          1           0       -2.069916   -3.515820    1.584085
     11          6           0       -3.180711    0.788749   -0.031421
     12          6           0       -4.290807    1.615395   -0.681290
     13          6           0       -3.879361    3.067095   -0.928418
     14          1           0       -2.894045    1.256716    0.920538
     15          1           0       -2.289440    0.814571   -0.673226
     16          1           0       -5.179601    1.587444   -0.037956
     17          1           0       -4.576253    1.145240   -1.631075
     18          1           0       -3.007267    3.113274   -1.588660
     19          1           0       -3.614042    3.557990    0.013511
     20          1           0       -4.687726    3.639862   -1.393546
     21          6           0        3.531487    1.817700    1.370603
     22          6           0        2.477433    1.020360    1.828579
     23          6           0        1.975318   -0.016419    1.036419
     24          6           0        2.553490   -0.228867   -0.214130
     25          6           0        3.604579    0.548315   -0.698372
     26          6           0        4.090709    1.579553    0.110810
     27          1           0        3.915333    2.620942    1.992583
     28          1           0        2.041191    1.203013    2.806524
     29          1           0        1.160108   -0.648894    1.366307
     30          1           0        4.018976    0.342046   -1.677732
     31          1           0        4.909385    2.197185   -0.247445
     32          7           0        2.030384   -1.323525   -1.061764
     33          8           0        2.557037   -1.490267   -2.159703
     34          8           0        1.103624   -1.994048   -0.612151
 ---------------------------------------------------------------------

 SCF Done:  E(RHF) =  -669.536298022     A.U. after   15 cycles
 E2 =    -0.2091363740D+01 EUMP2 =    -0.67162766176264D+03

 The electronic state is 1-A.
 Alpha  occ. eigenvalues --  -20.60933 -20.60917 -15.85958 -11.31248 -11.27818
 Alpha  occ. eigenvalues --  -11.27795 -11.27552 -11.26819 -11.26805 -11.21389
 Alpha  occ. eigenvalues --  -11.21117 -11.20969 -11.20952 -11.20908 -11.20428
 Alpha  occ. eigenvalues --   -1.59989  -1.39546  -1.19419  -1.08830  -1.08055
 Alpha  occ. eigenvalues --   -1.04810  -1.03126  -0.95678  -0.95591  -0.86613
 Alpha  occ. eigenvalues --   -0.86213  -0.82511  -0.79217  -0.77895  -0.77535
 Alpha  occ. eigenvalues --   -0.72183  -0.71301  -0.70528  -0.65080  -0.64816
 Alpha  occ. eigenvalues --   -0.64671  -0.62158  -0.60508  -0.58974  -0.57198
 Alpha  occ. eigenvalues --   -0.55320  -0.54882  -0.53145  -0.52903  -0.52282
 Alpha  occ. eigenvalues --   -0.52024  -0.49544  -0.48954  -0.48933  -0.47527
 Alpha  occ. eigenvalues --   -0.46246  -0.45452  -0.45375  -0.44792  -0.43392
 Alpha  occ. eigenvalues --   -0.37400  -0.36409
 Alpha virt. eigenvalues --    0.04926   0.11233   0.16406   0.21109   0.23230
 Alpha virt. eigenvalues --    0.24432   0.26447   0.27012   0.27640   0.28358
 Alpha virt. eigenvalues --    0.28929   0.30653   0.31643   0.31796   0.32428

 Mulliken charges:
               1
     1  C   -0.297365
     2  C   -0.312669
     3  C   -0.473488
     4  H    0.146766
     5  H    0.152181
     6  H    0.139517
     7  H    0.176770
     8  H    0.158491
     9  H    0.149922
    10  H    0.161537
    11  C   -0.298045
    12  C   -0.299313
    13  C   -0.475449
    14  H    0.144133
    15  H    0.151281
    16  H    0.151097
    17  H    0.153599
    18  H    0.155260
    19  H    0.152615
    20  H    0.159804
    21  C   -0.170410
    22  C   -0.218941
    23  C   -0.171640
    24  C    0.157401
    25  C   -0.170836
    26  C   -0.218708
    27  H    0.225866
    28  H    0.223934
    29  H    0.279014
    30  H    0.275556
    31  H    0.223628
    32  N    0.490136
    33  O   -0.459077
    34  O   -0.462568
 Sum of Mulliken charges =  -0.00000

 Dipole moment (field-independent basis, Debye):
    X=              1.9987    Y=              3.7753    Z=              2.8582  Tot=              5.1398
 Quadrupole moment (field-independent basis, Debye-Ang):
   XX=            -83.8347   YY=            -98.0515   ZZ=            -93.2348
   XY=             10.4662   XZ=              4.7038   YZ=             -1.6821

 Normal termination of Gaussian 16 at Thu May  6 18:43:18 2021.
