 Gaussian 16, Revision A.03,
 Gaussian 16:  EM64L-G16RevA.03 25-Dec-2016

 -------------
 #p 6-31g* mp2
 -------------

 ------------------------------------------------------
 Input file generated by CHIRIPA (05-May-2021 14:57:23)
 ------------------------------------------------------
 Symbolic Z-matrix:
 Charge =  0 Multiplicity = 1

                         Standard orientation:
 ---------------------------------------------------------------------
 Center     Atomic      Atomic             Coordinates (Angstroms)
 Number     Number       Type             X           Y           Z
 ---------------------------------------------------------------------
      1          6           0        5.142452   -0.562292    0.545476
      2          6           0        4.168416   -1.563271    0.469213
      3          6           0        2.874023   -1.262774    0.034705
      4          6           0        2.586941    0.055164   -0.317311
      5          6           0        3.535593    1.074527   -0.252120
      6          6           0        4.823494    0.751096    0.185202
      7          1           0        6.145446   -0.804633    0.884106
      8          1           0        4.413283   -2.584132    0.748365
      9          1           0        2.100716   -2.018230   -0.033859
     10          1           0        3.261574    2.083035   -0.537152
     11          1           0        5.577927    1.530510    0.243431
     12          7           0        1.220062    0.385426   -0.778794
     13          8           0        0.992405    1.554245   -1.083214
     14          8           0        0.402240   -0.530787   -0.827346
     15          6           0       -2.443064    2.450737    0.710234
     16          6           0       -2.966486    2.044794   -0.521739
     17          6           0       -3.175202    0.689189   -0.792514
     18          6           0       -2.847908   -0.237732    0.195913
     19          6           0       -2.324849    0.135374    1.433043
     20          6           0       -2.124477    1.496414    1.681981
     21          1           0       -2.284170    3.505915    0.912097
     22          1           0       -3.214819    2.783724   -1.278283
     23          1           0       -3.579042    0.347263   -1.737723
     24          1           0       -2.086927   -0.624516    2.167467
     25          1           0       -1.717836    1.808775    2.639644
     26          7           0       -3.064449   -1.675727   -0.079185
     27          8           0       -2.767975   -2.472684    0.808284
     28          8           0       -3.526548   -1.978643   -1.177066
 ---------------------------------------------------------------------

 SCF Done:  E(RHF) =  -868.338430459     A.U. after   16 cycles
 E2 =    -0.2601171844D+01 EUMP2 =    -0.87093960230305D+03

 The electronic state is 1-A.
 Alpha  occ. eigenvalues --  -20.61030 -20.60991 -20.59475 -20.59451 -15.86046
 Alpha  occ. eigenvalues --  -15.84512 -11.31340 -11.29644 -11.27932 -11.27850
 Alpha  occ. eigenvalues --  -11.27634 -11.26922 -11.26865 -11.26316 -11.26217
 Alpha  occ. eigenvalues --  -11.26060 -11.25368 -11.25252  -1.60071  -1.58525
 Alpha  occ. eigenvalues --   -1.39631  -1.38097  -1.19507  -1.17830  -1.08917
 Alpha  occ. eigenvalues --   -1.07288  -1.04895  -1.03276  -0.95765  -0.94170
 Alpha  occ. eigenvalues --   -0.86296  -0.84700  -0.82600  -0.81050  -0.77649
 Alpha  occ. eigenvalues --   -0.76099  -0.72304  -0.71395  -0.70776  -0.70610
 Alpha  occ. eigenvalues --   -0.69770  -0.69063  -0.65160  -0.64894  -0.63559
 Alpha  occ. eigenvalues --   -0.63364  -0.62235  -0.60682  -0.55406  -0.53853
 Alpha  occ. eigenvalues --   -0.53242  -0.52981  -0.51621  -0.51441  -0.49028
 Alpha  occ. eigenvalues --   -0.48893  -0.47522  -0.47501  -0.45067  -0.43566
 Alpha  occ. eigenvalues --   -0.37491  -0.36499  -0.35703  -0.34829
 Alpha virt. eigenvalues --    0.04857   0.06505   0.11156   0.12816   0.16369
 Alpha virt. eigenvalues --    0.18038   0.21324   0.22652   0.27243   0.28221
 Alpha virt. eigenvalues --    0.28510   0.29550   0.30882   0.32099   0.32486

 Mulliken charges:
               1
     1  C   -0.170678
     2  C   -0.218891
     3  C   -0.171582
     4  C    0.157273
     5  C   -0.171735
     6  C   -0.218824
     7  H    0.226167
     8  H    0.225637
     9  H    0.280881
    10  H    0.273486
    11  H    0.223007
    12  N    0.489617
    13  O   -0.463440
    14  O   -0.459089
    15  C   -0.163880
    16  C   -0.210888
    17  C   -0.163473
    18  C    0.178029
    19  C   -0.170637
    20  C   -0.221450
    21  H    0.219520
    22  H    0.218806
    23  H    0.271708
    24  H    0.267918
    25  H    0.214813
    26  N    0.489715
    27  O   -0.468490
    28  O   -0.463521
 Sum of Mulliken charges =  -0.00000

 Dipole moment (field-independent basis, Debye):
    X=              5.7844    Y=              3.8336    Z=              2.3787  Tot=              7.3358
 Quadrupole moment (field-independent basis, Debye-Ang):
   XX=            -85.0558   YY=           -103.5509   ZZ=           -102.6725
   XY=            -16.8093   XZ=              2.3875   YZ=             -0.7615

 Normal termination of Gaussian 16 at Fri May  7 07:58:45 2021.
