 Gaussian 16, Revision A.03,
 Gaussian 16:  EM64L-G16RevA.03 25-Dec-2016

 -------------
 #p 6-31g* mp2
 -------------

 ------------------------------------------------------
 Input file generated by CHIRIPA (05-May-2021 14:53:15)
 ------------------------------------------------------
 Symbolic Z-matrix:
 Charge =  0 Multiplicity = 1

                         Standard orientation:
 ---------------------------------------------------------------------
 Center     Atomic      Atomic             Coordinates (Angstroms)
 Number     Number       Type             X           Y           Z
 ---------------------------------------------------------------------
      1          6           0       -4.444962   -0.391353    0.306829
      2          6           0       -5.520171   -0.701736   -0.735079
      3          6           0       -6.294436   -1.982491   -0.422074
      4          1           0       -3.747195   -1.237735    0.367696
      5          1           0       -4.916676   -0.303436    1.295339
      6          1           0       -5.046756   -0.787673   -1.721542
      7          1           0       -6.215349    0.145564   -0.793610
      8          1           0       -6.792856   -1.903634    0.549502
      9          1           0       -5.617623   -2.842173   -0.383703
     10          1           0       -7.057924   -2.185334   -1.179571
     11          6           0       -3.662341    0.886052    0.007715
     12          6           0       -2.587132    1.196435    1.049624
     13          6           0       -1.812867    2.477191    0.736619
     14          1           0       -3.190627    0.798135   -0.980794
     15          1           0       -4.360108    1.732434   -0.053151
     16          1           0       -1.891954    0.349135    1.108154
     17          1           0       -3.060547    1.282372    2.036087
     18          1           0       -2.489680    3.336873    0.698247
     19          1           0       -1.314447    2.398333   -0.234957
     20          1           0       -1.049379    2.680034    1.494115
     21          6           0        5.619955   -0.712285    0.158399
     22          6           0        4.659699   -1.497563    0.804750
     23          6           0        3.297735   -1.219177    0.656081
     24          6           0        2.929765   -0.143063   -0.150061
     25          6           0        3.862652    0.657800   -0.807046
     26          6           0        5.219073    0.360998   -0.644021
     27          1           0        6.675808   -0.935695    0.279464
     28          1           0        4.968122   -2.331715    1.428536
     29          1           0        2.533302   -1.810814    1.144985
     30          1           0        3.524564    1.482722   -1.422366
     31          1           0        5.962616    0.972563   -1.147189
     32          7           0        1.490847    0.161400   -0.315048
     33          8           0        1.192532    1.115033   -1.030750
     34          8           0        0.688587   -0.559359    0.274460
 ---------------------------------------------------------------------

 SCF Done:  E(RHF) =  -669.536719382     A.U. after   15 cycles
 E2 =    -0.2092108900D+01 EUMP2 =    -0.67162882828236D+03

 The electronic state is 1-A.
 Alpha  occ. eigenvalues --  -20.61137 -20.61128 -15.86134 -11.31397 -11.27946
 Alpha  occ. eigenvalues --  -11.27943 -11.27673 -11.26938 -11.26928 -11.20618
 Alpha  occ. eigenvalues --  -11.20280 -11.20147 -11.19852 -11.19651 -11.19124
 Alpha  occ. eigenvalues --   -1.60168  -1.39728  -1.19553  -1.08971  -1.07045
 Alpha  occ. eigenvalues --   -1.04939  -1.02104  -0.95824  -0.94592  -0.86343
 Alpha  occ. eigenvalues --   -0.85622  -0.82659  -0.78244  -0.77720  -0.76792
 Alpha  occ. eigenvalues --   -0.72351  -0.71472  -0.70662  -0.65210  -0.64945
 Alpha  occ. eigenvalues --   -0.63667  -0.62286  -0.59484  -0.58045  -0.56194
 Alpha  occ. eigenvalues --   -0.55449  -0.53885  -0.53270  -0.53030  -0.51333
 Alpha  occ. eigenvalues --   -0.51028  -0.49192  -0.49109  -0.48435  -0.46526
 Alpha  occ. eigenvalues --   -0.45373  -0.45055  -0.44333  -0.44104  -0.42387
 Alpha  occ. eigenvalues --   -0.37528  -0.36536
 Alpha virt. eigenvalues --    0.04792   0.11120   0.16297   0.21251   0.24187
 Alpha virt. eigenvalues --    0.25814   0.27185   0.27953   0.28264   0.28860
 Alpha virt. eigenvalues --    0.29360   0.30850   0.32339   0.32833   0.33003

 Mulliken charges:
               1
     1  C   -0.297995
     2  C   -0.298675
     3  C   -0.474884
     4  H    0.152296
     5  H    0.145256
     6  H    0.151697
     7  H    0.149436
     8  H    0.153218
     9  H    0.154270
    10  H    0.156961
    11  C   -0.297470
    12  C   -0.306576
    13  C   -0.478900
    14  H    0.153814
    15  H    0.142800
    16  H    0.175787
    17  H    0.140081
    18  H    0.142879
    19  H    0.176430
    20  H    0.150859
    21  C   -0.170331
    22  C   -0.218594
    23  C   -0.170555
    24  C    0.157842
    25  C   -0.170377
    26  C   -0.218614
    27  H    0.226385
    28  H    0.224192
    29  H    0.275949
    30  H    0.276151
    31  H    0.224214
    32  N    0.490361
    33  O   -0.458062
    34  O   -0.459845
 Sum of Mulliken charges =  -0.00000

 Dipole moment (field-independent basis, Debye):
    X=              5.5929    Y=             -1.1972    Z=              0.4495  Tot=              5.7372
 Quadrupole moment (field-independent basis, Debye-Ang):
   XX=            -66.8767   YY=            -93.0027   ZZ=            -93.7061
   XY=             -3.6042   XZ=              0.1538   YZ=             -2.7230

 Normal termination of Gaussian 16 at Thu May  6 01:05:55 2021.
