 Gaussian 16, Revision A.03,
 Gaussian 16:  EM64L-G16RevA.03 25-Dec-2016

 -------------
 #p 6-31g* mp2
 -------------

 ------------------------------------------------------
 Input file generated by CHIRIPA (05-May-2021 14:57:25)
 ------------------------------------------------------
 Symbolic Z-matrix:
 Charge =  0 Multiplicity = 1

                         Standard orientation:
 ---------------------------------------------------------------------
 Center     Atomic      Atomic             Coordinates (Angstroms)
 Number     Number       Type             X           Y           Z
 ---------------------------------------------------------------------
      1          6           0        1.036834    0.640206    1.278505
      2          6           0        1.388474   -0.711932    1.210719
      3          6           0        2.609932   -1.100792    0.652710
      4          6           0        3.459537   -0.106636    0.169892
      5          6           0        3.137629    1.248661    0.223150
      6          6           0        1.910993    1.614469    0.785374
      7          1           0        0.085964    0.933328    1.713617
      8          1           0        0.711564   -1.470728    1.592905
      9          1           0        2.907254   -2.140400    0.587634
     10          1           0        3.833204    1.982189   -0.166117
     11          1           0        1.640535    2.665308    0.836697
     12          7           0        4.755382   -0.506103   -0.423079
     13          8           0        5.486325    0.389065   -0.841448
     14          8           0        5.015584   -1.706809   -0.458251
     15          6           0       -2.258530    2.345041   -0.552858
     16          6           0       -1.555234    1.221790   -1.000298
     17          6           0       -2.092674   -0.059751   -0.847470
     18          6           0       -3.341428   -0.181967   -0.240044
     19          6           0       -4.066541    0.917769    0.216118
     20          6           0       -3.509734    2.189720    0.052854
     21          1           0       -1.833511    3.336849   -0.675632
     22          1           0       -0.583335    1.339406   -1.471066
     23          1           0       -1.569736   -0.946441   -1.184716
     24          1           0       -5.033283    0.768815    0.681564
     25          1           0       -4.058179    3.060257    0.401301
     26          7           0       -3.920643   -1.533601   -0.072728
     27          8           0       -5.022567   -1.614502    0.465656
     28          8           0       -3.261742   -2.486518   -0.483138
 ---------------------------------------------------------------------

 SCF Done:  E(RHF) =  -868.337369476     A.U. after   16 cycles
 E2 =    -0.2601844045D+01 EUMP2 =    -0.87093921352076D+03

 The electronic state is 1-A.
 Alpha  occ. eigenvalues --  -20.61492 -20.61480 -20.61130 -20.61118 -15.86541
 Alpha  occ. eigenvalues --  -15.86188 -11.32005 -11.31635 -11.28522 -11.28503
 Alpha  occ. eigenvalues --  -11.28305 -11.28296 -11.28216 -11.27954 -11.27602
 Alpha  occ. eigenvalues --  -11.27524 -11.27305 -11.27154  -1.60564  -1.60204
 Alpha  occ. eigenvalues --   -1.40113  -1.39754  -1.20178  -1.19849  -1.09563
 Alpha  occ. eigenvalues --   -1.09209  -1.05557  -1.05263  -0.96370  -0.96023
 Alpha  occ. eigenvalues --   -0.86959  -0.86633  -0.83180  -0.82845  -0.78213
 Alpha  occ. eigenvalues --   -0.77888  -0.72749  -0.72399  -0.71899  -0.71535
 Alpha  occ. eigenvalues --   -0.71259  -0.70912  -0.65801  -0.65560  -0.65449
 Alpha  occ. eigenvalues --   -0.65243  -0.62877  -0.62590  -0.56067  -0.55769
 Alpha  occ. eigenvalues --   -0.54078  -0.53674  -0.53343  -0.53326  -0.49517
 Alpha  occ. eigenvalues --   -0.49504  -0.49166  -0.49150  -0.45496  -0.45141
 Alpha  occ. eigenvalues --   -0.38434  -0.38025  -0.36905  -0.36687
 Alpha virt. eigenvalues --    0.04178   0.04728   0.10046   0.11095   0.15545
 Alpha virt. eigenvalues --    0.16337   0.20341   0.21278   0.26335   0.26607
 Alpha virt. eigenvalues --    0.27770   0.28069   0.30093   0.30867   0.31675

 Mulliken charges:
               1
     1  C   -0.168755
     2  C   -0.225163
     3  C   -0.170430
     4  C    0.157144
     5  C   -0.171527
     6  C   -0.226946
     7  H    0.231065
     8  H    0.230519
     9  H    0.279199
    10  H    0.275959
    11  H    0.219408
    12  N    0.488129
    13  O   -0.460552
    14  O   -0.458092
    15  C   -0.178889
    16  C   -0.219525
    17  C   -0.175770
    18  C    0.157552
    19  C   -0.172521
    20  C   -0.218479
    21  H    0.225365
    22  H    0.230911
    23  H    0.278012
    24  H    0.277601
    25  H    0.225703
    26  N    0.487640
    27  O   -0.457905
    28  O   -0.459654
 Sum of Mulliken charges =  -0.00000

 Dipole moment (field-independent basis, Debye):
    X=             -2.5828    Y=              6.0333    Z=              1.5057  Tot=              6.7333
 Quadrupole moment (field-independent basis, Debye-Ang):
   XX=           -147.1174   YY=           -101.9977   ZZ=           -104.0267
   XY=            -11.9001   XZ=              5.8038   YZ=             -1.1020

 Normal termination of Gaussian 16 at Thu May  6 00:20:24 2021.
