 Gaussian 16, Revision A.03,
 Gaussian 16:  EM64L-G16RevA.03 25-Dec-2016

 -------------
 #p 6-31g* mp2
 -------------

 ------------------------------------------------------
 Input file generated by CHIRIPA (05-May-2021 14:57:26)
 ------------------------------------------------------
 Symbolic Z-matrix:
 Charge =  0 Multiplicity = 1

                         Standard orientation:
 ---------------------------------------------------------------------
 Center     Atomic      Atomic             Coordinates (Angstroms)
 Number     Number       Type             X           Y           Z
 ---------------------------------------------------------------------
      1          6           0        4.711143    2.070702    0.102007
      2          6           0        3.495842    2.176147   -0.582423
      3          6           0        2.693035    1.049038   -0.781609
      4          6           0        3.138215   -0.173338   -0.280708
      5          6           0        4.343994   -0.310595    0.405256
      6          6           0        5.130601    0.829855    0.592797
      7          1           0        5.328490    2.951449    0.252216
      8          1           0        3.167563    3.138519   -0.964679
      9          1           0        1.747728    1.102259   -1.307897
     10          1           0        4.644668   -1.283491    0.774697
     11          1           0        6.073953    0.744987    1.124709
     12          7           0        2.296895   -1.373620   -0.485413
     13          8           0        2.711531   -2.439089   -0.034317
     14          8           0        1.238763   -1.226203   -1.093082
     15          6           0       -5.219000    1.335217   -0.616332
     16          6           0       -4.496851    1.775196    0.497867
     17          6           0       -3.418932    1.029905    0.984878
     18          6           0       -3.089118   -0.155933    0.330431
     19          6           0       -3.789221   -0.620717   -0.781829
     20          6           0       -4.863507    0.140770   -1.251504
     21          1           0       -6.054943    1.920468   -0.987920
     22          1           0       -4.770678    2.702429    0.993149
     23          1           0       -2.842759    1.347209    1.845552
     24          1           0       -3.492505   -1.549139   -1.254490
     25          1           0       -5.422543   -0.203367   -2.117005
     26          7           0       -1.949896   -0.953513    0.836833
     27          8           0       -1.679383   -1.994767    0.242485
     28          8           0       -1.349059   -0.522299    1.818507
 ---------------------------------------------------------------------

 SCF Done:  E(RHF) =  -868.335794998     A.U. after   16 cycles
 E2 =    -0.2600575754D+01 EUMP2 =    -0.87093637075137D+03

 The electronic state is 1-A.
 Alpha  occ. eigenvalues --  -20.59914 -20.59746 -20.59703 -20.59681 -15.84885
 Alpha  occ. eigenvalues --  -15.84765 -11.30603 -11.30442 -11.27247 -11.27172
 Alpha  occ. eigenvalues --  -11.27079 -11.27039 -11.27035 -11.26877 -11.26337
 Alpha  occ. eigenvalues --  -11.26288 -11.26173 -11.26140  -1.58889  -1.58740
 Alpha  occ. eigenvalues --   -1.38439  -1.38299  -1.18812  -1.18647  -1.08143
 Alpha  occ. eigenvalues --   -1.07983  -1.04267  -1.04109  -0.94921  -0.94765
 Alpha  occ. eigenvalues --   -0.85647  -0.85494  -0.81754  -0.81611  -0.76737
 Alpha  occ. eigenvalues --   -0.76605  -0.71161  -0.70972  -0.70286  -0.69951
 Alpha  occ. eigenvalues --   -0.69920  -0.69774  -0.64457  -0.64306  -0.64275
 Alpha  occ. eigenvalues --   -0.64130  -0.61607  -0.61464  -0.54765  -0.54613
 Alpha  occ. eigenvalues --   -0.52582  -0.52405  -0.52363  -0.52219  -0.47968
 Alpha  occ. eigenvalues --   -0.47864  -0.47726  -0.47641  -0.43902  -0.43463
 Alpha  occ. eigenvalues --   -0.36817  -0.36639  -0.35890  -0.35723
 Alpha virt. eigenvalues --    0.05783   0.06001   0.11760   0.11928   0.17222
 Alpha virt. eigenvalues --    0.17408   0.21849   0.21967   0.27735   0.27841
 Alpha virt. eigenvalues --    0.28780   0.28889   0.31354   0.31486   0.33064

 Mulliken charges:
               1
     1  C   -0.171893
     2  C   -0.218487
     3  C   -0.169711
     4  C    0.162550
     5  C   -0.170358
     6  C   -0.218391
     7  H    0.222496
     8  H    0.219522
     9  H    0.272171
    10  H    0.275673
    11  H    0.221313
    12  N    0.490736
    13  O   -0.458958
    14  O   -0.456649
    15  C   -0.172281
    16  C   -0.219004
    17  C   -0.173097
    18  C    0.159627
    19  C   -0.170194
    20  C   -0.218977
    21  H    0.223008
    22  H    0.220315
    23  H    0.273185
    24  H    0.279065
    25  H    0.222183
    26  N    0.488471
    27  O   -0.442939
    28  O   -0.469377
 Sum of Mulliken charges =  -0.00000

 Dipole moment (field-independent basis, Debye):
    X=             -1.0401    Y=              6.6614    Z=             -1.1283  Tot=              6.8359
 Quadrupole moment (field-independent basis, Debye-Ang):
   XX=            -61.6480   YY=           -104.1712   ZZ=           -103.9770
   XY=              3.2601   XZ=              8.6493   YZ=              1.2331

 Normal termination of Gaussian 16 at Thu May  6 13:07:03 2021.
