 Gaussian 16, Revision A.03,
 Gaussian 16:  EM64L-G16RevA.03 25-Dec-2016

 -------------
 #p 6-31g* mp2
 -------------

 ------------------------------------------------------
 Input file generated by CHIRIPA (05-May-2021 14:51:11)
 ------------------------------------------------------
 Symbolic Z-matrix:
 Charge =  0 Multiplicity = 1

                         Standard orientation:
 ---------------------------------------------------------------------
 Center     Atomic      Atomic             Coordinates (Angstroms)
 Number     Number       Type             X           Y           Z
 ---------------------------------------------------------------------
      1          6           0       -5.104316   -0.583142   -0.216115
      2          6           0       -6.546985   -0.606172    0.290006
      3          6           0       -7.243002   -1.942719    0.031170
      4          1           0       -5.096815   -0.799551   -1.293174
      5          1           0       -4.539940   -1.391521    0.269063
      6          1           0       -7.108122    0.202880   -0.194945
      7          1           0       -6.551069   -0.389493    1.365948
      8          1           0       -6.708254   -2.758251    0.528717
      9          1           0       -7.268472   -2.162512   -1.041045
     10          1           0       -8.273110   -1.937155    0.400907
     11          6           0       -4.395220    0.746390    0.035392
     12          6           0       -2.952550    0.769420   -0.470729
     13          6           0       -2.256534    2.105967   -0.211892
     14          1           0       -4.959596    1.554769   -0.449786
     15          1           0       -4.402721    0.962799    1.112451
     16          1           0       -2.948467    0.552741   -1.546670
     17          1           0       -2.391414   -0.039632    0.014223
     18          1           0       -2.231064    2.325760    0.860322
     19          1           0       -2.791282    2.921499   -0.709440
     20          1           0       -1.226426    2.100403   -0.581630
     21          6           0        5.357178   -0.220698   -0.351390
     22          6           0        6.543880   -0.804815    0.415766
     23          6           0        7.751402   -1.077617   -0.481600
     24          1           0        5.070307   -0.914104   -1.153785
     25          1           0        5.669407    0.712072   -0.841132
     26          1           0        6.229125   -1.735485    0.905051
     27          1           0        6.827837   -0.110026    1.216548
     28          1           0        8.092950   -0.153626   -0.959287
     29          1           0        7.490838   -1.788320   -1.272554
     30          1           0        8.588198   -1.494844    0.087217
     31          6           0        4.142358    0.057449    0.532112
     32          6           0        2.955655    0.641567   -0.235044
     33          6           0        1.748134    0.914369    0.662322
     34          1           0        3.830129   -0.875320    1.021855
     35          1           0        4.429228    0.750856    1.334508
     36          1           0        2.671700   -0.053221   -1.035826
     37          1           0        3.270410    1.572236   -0.724329
     38          1           0        2.008698    1.625072    1.453277
     39          1           0        1.406586   -0.009622    1.140009
     40          1           0        0.911337    1.331597    0.093505
 ---------------------------------------------------------------------

 SCF Done:  E(RHF) =  -470.733244667     A.U. after   11 cycles
 E2 =    -0.1582173028D+01 EUMP2 =    -0.47231541769552D+03

 The electronic state is 1-A.
 Alpha  occ. eigenvalues --  -11.21597 -11.21594 -11.21589 -11.21584 -11.21397
 Alpha  occ. eigenvalues --  -11.21394 -11.21338 -11.21335 -11.21067 -11.21066
 Alpha  occ. eigenvalues --  -11.21051 -11.21032  -1.08424  -1.08416  -1.03537
 Alpha  occ. eigenvalues --   -1.03502  -0.96010  -0.95931  -0.87045  -0.86930
 Alpha  occ. eigenvalues --   -0.79608  -0.79554  -0.78234  -0.78230  -0.65053
 Alpha  occ. eigenvalues --   -0.65045  -0.60925  -0.60905  -0.59622  -0.59135
 Alpha  occ. eigenvalues --   -0.57723  -0.57430  -0.55262  -0.55245  -0.52973
 Alpha  occ. eigenvalues --   -0.52504  -0.52437  -0.52186  -0.49912  -0.49901
 Alpha  occ. eigenvalues --   -0.47970  -0.47824  -0.46626  -0.46601  -0.45780
 Alpha  occ. eigenvalues --   -0.45769  -0.45705  -0.45693  -0.43932  -0.43593
 Alpha virt. eigenvalues --    0.21912   0.23001   0.23421   0.24955   0.26594
 Alpha virt. eigenvalues --    0.26687   0.26862   0.27466   0.27612   0.28773
 Alpha virt. eigenvalues --    0.30045   0.31313   0.31490   0.31905   0.32011

 Mulliken charges:
               1
     1  C   -0.298259
     2  C   -0.299654
     3  C   -0.475698
     4  H    0.149585
     5  H    0.149519
     6  H    0.151917
     7  H    0.151972
     8  H    0.155159
     9  H    0.155148
    10  H    0.160236
    11  C   -0.298418
    12  C   -0.299935
    13  C   -0.479817
    14  H    0.149502
    15  H    0.149783
    16  H    0.151627
    17  H    0.152768
    18  H    0.155908
    19  H    0.155066
    20  H    0.163806
    21  C   -0.298223
    22  C   -0.299630
    23  C   -0.475698
    24  H    0.149621
    25  H    0.149519
    26  H    0.151895
    27  H    0.151937
    28  H    0.155184
    29  H    0.155167
    30  H    0.160230
    31  C   -0.298507
    32  C   -0.299101
    33  C   -0.482287
    34  H    0.149440
    35  H    0.149651
    36  H    0.151805
    37  H    0.151798
    38  H    0.155258
    39  H    0.154775
    40  H    0.166949
 Sum of Mulliken charges =  -0.00000

 Dipole moment (field-independent basis, Debye):
    X=             -0.0089    Y=              0.0061    Z=              0.0042  Tot=              0.0116
 Quadrupole moment (field-independent basis, Debye-Ang):
   XX=            -85.9627   YY=            -84.6484   ZZ=            -84.2071
   XY=             -0.1088   XZ=              0.7655   YZ=             -0.3693

 Normal termination of Gaussian 16 at Thu May  6 00:39:44 2021.
