 Gaussian 16, Revision A.03,
 Gaussian 16:  EM64L-G16RevA.03 25-Dec-2016

 -------------
 #p 6-31g* mp2
 -------------

 ------------------------------------------------------
 Input file generated by CHIRIPA (05-May-2021 14:55:23)
 ------------------------------------------------------
 Symbolic Z-matrix:
 Charge =  0 Multiplicity = 1

                         Standard orientation:
 ---------------------------------------------------------------------
 Center     Atomic      Atomic             Coordinates (Angstroms)
 Number     Number       Type             X           Y           Z
 ---------------------------------------------------------------------
      1          6           0       -1.474385   -2.304129    1.029696
      2          6           0       -0.751243   -1.441210    0.199662
      3          6           0       -1.389908   -0.382045   -0.452123
      4          6           0       -2.759024   -0.214325   -0.250426
      5          6           0       -3.506945   -1.057144    0.570283
      6          6           0       -2.847507   -2.109685    1.212036
      7          1           0       -0.970186   -3.124341    1.532122
      8          1           0        0.315238   -1.589812    0.056203
      9          1           0       -0.854284    0.300937   -1.100245
     10          1           0       -4.569052   -0.883660    0.693772
     11          1           0       -3.411646   -2.778273    1.856071
     12          7           0       -3.446145    0.903459   -0.935131
     13          8           0       -4.653194    1.029819   -0.740957
     14          8           0       -2.764652    1.632053   -1.653013
     15          6           0        2.734459    0.907231    0.197794
     16          6           0        2.532012    1.669578    1.507690
     17          6           0        1.222971    2.459141    1.535911
     18          1           0        2.715286    1.618176   -0.639545
     19          1           0        1.888742    0.222363    0.045767
     20          1           0        3.378549    2.351803    1.657889
     21          1           0        2.551861    0.956758    2.342023
     22          1           0        0.366184    1.789117    1.411071
     23          1           0        1.197570    3.192088    0.723049
     24          1           0        1.098533    2.996475    2.481241
     25          6           0        4.038733    0.113056    0.154406
     26          6           0        4.241179   -0.649290   -1.155491
     27          6           0        5.550220   -1.438854   -1.183713
     28          1           0        4.884450    0.797924    0.306433
     29          1           0        4.057906   -0.597889    0.991745
     30          1           0        4.221331    0.063528   -1.989824
     31          1           0        3.394643   -1.331516   -1.305690
     32          1           0        5.575622   -2.171801   -0.370850
     33          1           0        6.407007   -0.768831   -1.058872
     34          1           0        5.674660   -1.976188   -2.129041
 ---------------------------------------------------------------------

 SCF Done:  E(RHF) =  -669.535395467     A.U. after   15 cycles
 E2 =    -0.2092480777D+01 EUMP2 =    -0.67162787624406D+03

 The electronic state is 1-A.
 Alpha  occ. eigenvalues --  -20.60763 -20.60757 -15.85818 -11.31213 -11.27789
 Alpha  occ. eigenvalues --  -11.27779 -11.27534 -11.26809 -11.26797 -11.22245
 Alpha  occ. eigenvalues --  -11.22089 -11.22013 -11.21982 -11.21592 -11.21252
 Alpha  occ. eigenvalues --   -1.59838  -1.39390  -1.19394  -1.09022  -1.08779
 Alpha  occ. eigenvalues --   -1.04804  -1.04011  -0.96451  -0.95609  -0.87462
 Alpha  occ. eigenvalues --   -0.86193  -0.82449  -0.80081  -0.78870  -0.77473
 Alpha  occ. eigenvalues --   -0.72035  -0.71161  -0.70493  -0.65726  -0.65040
 Alpha  occ. eigenvalues --   -0.64773  -0.62162  -0.61393  -0.59824  -0.58067
 Alpha  occ. eigenvalues --   -0.55750  -0.55295  -0.53142  -0.53101  -0.52971
 Alpha  occ. eigenvalues --   -0.52780  -0.50387  -0.48799  -0.48788  -0.48384
 Alpha  occ. eigenvalues --   -0.47127  -0.46371  -0.46308  -0.44789  -0.44299
 Alpha  occ. eigenvalues --   -0.37371  -0.36375
 Alpha virt. eigenvalues --    0.05016   0.11218   0.16386   0.19351   0.22770
 Alpha virt. eigenvalues --    0.23752   0.24780   0.26506   0.27179   0.28284
 Alpha virt. eigenvalues --    0.29374   0.30864   0.31435   0.31519   0.31836

 Mulliken charges:
               1
     1  C   -0.171087
     2  C   -0.222246
     3  C   -0.171389
     4  C    0.157924
     5  C   -0.170713
     6  C   -0.218435
     7  H    0.225862
     8  H    0.227222
     9  H    0.277810
    10  H    0.275858
    11  H    0.223642
    12  N    0.488333
    13  O   -0.460495
    14  O   -0.459892
    15  C   -0.303005
    16  C   -0.299227
    17  C   -0.479585
    18  H    0.154772
    19  H    0.140035
    20  H    0.154557
    21  H    0.150169
    22  H    0.156208
    23  H    0.159752
    24  H    0.162279
    25  C   -0.298630
    26  C   -0.299396
    27  C   -0.475881
    28  H    0.153626
    29  H    0.147759
    30  H    0.155667
    31  H    0.144382
    32  H    0.154373
    33  H    0.157716
    34  H    0.162034
 Sum of Mulliken charges =  -0.00000

 Dipole moment (field-independent basis, Debye):
    X=              2.4927    Y=             -3.8430    Z=              2.4105  Tot=              5.1762
 Quadrupole moment (field-independent basis, Debye-Ang):
   XX=           -104.4610   YY=            -92.7840   ZZ=            -95.5807
   XY=             13.0280   XZ=             -9.5753   YZ=             -0.6933

 Normal termination of Gaussian 16 at Thu May  6 19:17:34 2021.
