 Gaussian 16, Revision A.03,
 Gaussian 16:  EM64L-G16RevA.03 25-Dec-2016

 -------------
 #p 6-31g* mp2
 -------------

 ------------------------------------------------------
 Input file generated by CHIRIPA (05-May-2021 14:53:18)
 ------------------------------------------------------
 Symbolic Z-matrix:
 Charge =  0 Multiplicity = 1

                         Standard orientation:
 ---------------------------------------------------------------------
 Center     Atomic      Atomic             Coordinates (Angstroms)
 Number     Number       Type             X           Y           Z
 ---------------------------------------------------------------------
      1          6           0       -5.190105   -0.002878   -0.312431
      2          6           0       -6.422356    0.079883    0.589064
      3          6           0       -7.646193    0.644420   -0.132956
      4          1           0       -4.959245    0.998842   -0.699995
      5          1           0       -5.423789   -0.629221   -1.184487
      6          1           0       -6.185981    0.704752    1.459857
      7          1           0       -6.650194   -0.922118    0.974680
      8          1           0       -7.909844    0.018256   -0.991447
      9          1           0       -7.442993    1.654370   -0.503513
     10          1           0       -8.515607    0.694803    0.529948
     11          6           0       -3.958526   -0.565307    0.395111
     12          6           0       -2.726275   -0.648068   -0.506385
     13          6           0       -1.502437   -1.212606    0.215636
     14          1           0       -3.724841    0.061036    1.267167
     15          1           0       -4.189385   -1.567027    0.782674
     16          1           0       -2.498436    0.353933   -0.892000
     17          1           0       -2.962650   -1.272938   -1.377178
     18          1           0       -1.705637   -2.222555    0.586192
     19          1           0       -1.238787   -0.586441    1.074127
     20          1           0       -0.633024   -1.262989   -0.447269
     21          6           0        4.532605   -2.111093    0.025308
     22          6           0        5.340881   -1.014061    0.341112
     23          6           0        4.820202    0.283099    0.312483
     24          6           0        3.480979    0.447497   -0.037866
     25          6           0        2.650276   -0.625327   -0.357665
     26          6           0        3.192246   -1.913572   -0.322460
     27          1           0        4.945351   -3.115295    0.050102
     28          1           0        6.382172   -1.164461    0.611551
     29          1           0        5.423531    1.150187    0.552418
     30          1           0        1.615958   -0.443828   -0.623492
     31          1           0        2.562178   -2.763676   -0.568195
     32          7           0        2.918490    1.816023   -0.071656
     33          8           0        1.735514    1.934204   -0.383488
     34          8           0        3.671238    2.744581    0.214331
 ---------------------------------------------------------------------

 SCF Done:  E(RHF) =  -669.535530105     A.U. after   15 cycles
 E2 =    -0.2090880954D+01 EUMP2 =    -0.67162641105898D+03

 The electronic state is 1-A.
 Alpha  occ. eigenvalues --  -20.60743 -20.60738 -15.85794 -11.31138 -11.27718
 Alpha  occ. eigenvalues --  -11.27683 -11.27463 -11.26733 -11.26714 -11.21594
 Alpha  occ. eigenvalues --  -11.21492 -11.21363 -11.21333 -11.21254 -11.20953
 Alpha  occ. eigenvalues --   -1.59818  -1.39372  -1.19316  -1.08717  -1.08370
 Alpha  occ. eigenvalues --   -1.04719  -1.03516  -0.95996  -0.95552  -0.87021
 Alpha  occ. eigenvalues --   -0.86116  -0.82386  -0.79578  -0.78167  -0.77434
 Alpha  occ. eigenvalues --   -0.72016  -0.71140  -0.70438  -0.64989  -0.64970
 Alpha  occ. eigenvalues --   -0.64731  -0.62112  -0.60893  -0.59371  -0.57598
 Alpha  occ. eigenvalues --   -0.55276  -0.55213  -0.53059  -0.52969  -0.52570
 Alpha  occ. eigenvalues --   -0.52391  -0.49908  -0.48772  -0.48769  -0.47898
 Alpha  occ. eigenvalues --   -0.46576  -0.45718  -0.45620  -0.44781  -0.43781
 Alpha  occ. eigenvalues --   -0.37302  -0.36317
 Alpha virt. eigenvalues --    0.05095   0.11328   0.16589   0.20400   0.22978
 Alpha virt. eigenvalues --    0.23957   0.26124   0.26756   0.27610   0.27924
 Alpha virt. eigenvalues --    0.28976   0.30947   0.31448   0.31650   0.32032

 Mulliken charges:
               1
     1  C   -0.298774
     2  C   -0.299766
     3  C   -0.475805
     4  H    0.152449
     5  H    0.148642
     6  H    0.152918
     7  H    0.150907
     8  H    0.154624
     9  H    0.156298
    10  H    0.160033
    11  C   -0.299250
    12  C   -0.300067
    13  C   -0.476938
    14  H    0.152148
    15  H    0.147831
    16  H    0.160959
    17  H    0.150034
    18  H    0.153203
    19  H    0.163068
    20  H    0.148404
    21  C   -0.170735
    22  C   -0.219002
    23  C   -0.170351
    24  C    0.158839
    25  C   -0.178155
    26  C   -0.221004
    27  H    0.225436
    28  H    0.223266
    29  H    0.275403
    30  H    0.285838
    31  H    0.223465
    32  N    0.487254
    33  O   -0.460565
    34  O   -0.460607
 Sum of Mulliken charges =  -0.00000

 Dipole moment (field-independent basis, Debye):
    X=              1.8910    Y=             -4.7466    Z=              0.1502  Tot=              5.1116
 Quadrupole moment (field-independent basis, Debye-Ang):
   XX=            -77.8675   YY=            -98.3447   ZZ=            -95.3228
   XY=            -13.8431   XZ=              1.4859   YZ=              1.2180

 Normal termination of Gaussian 16 at Thu May  6 09:10:22 2021.
