 Gaussian 16, Revision A.03,
 Gaussian 16:  EM64L-G16RevA.03 25-Dec-2016

 -------------
 #p 6-31g* mp2
 -------------

 ------------------------------------------------------
 Input file generated by CHIRIPA (05-May-2021 14:55:19)
 ------------------------------------------------------
 Symbolic Z-matrix:
 Charge =  0 Multiplicity = 1

                         Standard orientation:
 ---------------------------------------------------------------------
 Center     Atomic      Atomic             Coordinates (Angstroms)
 Number     Number       Type             X           Y           Z
 ---------------------------------------------------------------------
      1          6           0       -2.147656    2.203904   -0.059556
      2          6           0       -1.801304    1.577992    1.142440
      3          6           0       -1.687251    0.186294    1.211117
      4          6           0       -1.927617   -0.552021    0.053358
      5          6           0       -2.274385    0.042308   -1.159001
      6          6           0       -2.382677    1.435419   -1.204422
      7          1           0       -2.234018    3.285557   -0.103874
      8          1           0       -1.618210    2.172278    2.033139
      9          1           0       -1.420607   -0.324104    2.128620
     10          1           0       -2.450851   -0.576755   -2.030229
     11          1           0       -2.651815    1.918802   -2.139276
     12          7           0       -1.809924   -2.026097    0.113753
     13          8           0       -2.026796   -2.654054   -0.920303
     14          8           0       -1.503033   -2.525609    1.194004
     15          6           0        3.033513   -0.123555   -0.199950
     16          6           0        2.583990   -1.559711    0.070916
     17          6           0        3.677880   -2.586857   -0.222637
     18          1           0        3.348448   -0.036320   -1.248831
     19          1           0        3.919129    0.097602    0.411744
     20          1           0        1.698659   -1.777639   -0.540076
     21          1           0        2.269909   -1.643490    1.119224
     22          1           0        4.560421   -2.397490    0.396928
     23          1           0        3.985926   -2.532401   -1.271800
     24          1           0        3.335143   -3.606763   -0.022186
     25          6           0        1.950844    0.914789    0.088835
     26          6           0        2.400367    2.350945   -0.182031
     27          6           0        1.306478    3.378090    0.111522
     28          1           0        1.065229    0.693631   -0.522860
     29          1           0        1.635909    0.827554    1.137716
     30          1           0        2.714449    2.434724   -1.230339
     31          1           0        3.285699    2.568873    0.428962
     32          1           0        0.998432    3.323635    1.160685
     33          1           0        0.423936    3.188724   -0.508044
     34          1           0        1.649215    4.397997   -0.088929
 ---------------------------------------------------------------------

 SCF Done:  E(RHF) =  -669.533970567     A.U. after   15 cycles
 E2 =    -0.2095688098D+01 EUMP2 =    -0.67162965866491D+03

 The electronic state is 1-A.
 Alpha  occ. eigenvalues --  -20.60805 -20.60794 -15.85856 -11.31216 -11.27830
 Alpha  occ. eigenvalues --  -11.27775 -11.27520 -11.26828 -11.26757 -11.21842
 Alpha  occ. eigenvalues --  -11.21506 -11.21399 -11.21279 -11.21220 -11.20671
 Alpha  occ. eigenvalues --   -1.59876  -1.39429  -1.19412  -1.08811  -1.08404
 Alpha  occ. eigenvalues --   -1.04810  -1.03507  -0.96010  -0.95613  -0.87021
 Alpha  occ. eigenvalues --   -0.86202  -0.82464  -0.79611  -0.78190  -0.77506
 Alpha  occ. eigenvalues --   -0.72073  -0.71196  -0.70523  -0.65064  -0.65047
 Alpha  occ. eigenvalues --   -0.64811  -0.62158  -0.60923  -0.59388  -0.57579
 Alpha  occ. eigenvalues --   -0.55441  -0.55176  -0.53278  -0.52903  -0.52667
 Alpha  occ. eigenvalues --   -0.52414  -0.49961  -0.48831  -0.48828  -0.47856
 Alpha  occ. eigenvalues --   -0.46626  -0.45711  -0.45575  -0.44819  -0.43748
 Alpha  occ. eigenvalues --   -0.37279  -0.36365
 Alpha virt. eigenvalues --    0.04993   0.11159   0.16379   0.20814   0.22924
 Alpha virt. eigenvalues --    0.24334   0.25885   0.26817   0.27087   0.28215
 Alpha virt. eigenvalues --    0.28962   0.30030   0.31520   0.31791   0.32270

 Mulliken charges:
               1
     1  C   -0.171351
     2  C   -0.212310
     3  C   -0.168925
     4  C    0.159002
     5  C   -0.172517
     6  C   -0.220119
     7  H    0.227699
     8  H    0.223559
     9  H    0.275303
    10  H    0.275800
    11  H    0.223784
    12  N    0.488508
    13  O   -0.461140
    14  O   -0.459939
    15  C   -0.298607
    16  C   -0.299996
    17  C   -0.476135
    18  H    0.148734
    19  H    0.148296
    20  H    0.153685
    21  H    0.154839
    22  H    0.152855
    23  H    0.153766
    24  H    0.165993
    25  C   -0.299701
    26  C   -0.298574
    27  C   -0.477219
    28  H    0.153813
    29  H    0.145176
    30  H    0.152145
    31  H    0.152343
    32  H    0.147515
    33  H    0.155488
    34  H    0.158231
 Sum of Mulliken charges =  -0.00000

 Dipole moment (field-independent basis, Debye):
    X=             -0.4977    Y=              5.0664    Z=             -0.2002  Tot=              5.0947
 Quadrupole moment (field-independent basis, Debye-Ang):
   XX=            -94.1458   YY=           -102.0840   ZZ=            -89.2660
   XY=             -9.6101   XZ=              2.1400   YZ=              0.5720

 Normal termination of Gaussian 16 at Thu May  6 02:54:17 2021.
