 Gaussian 16, Revision A.03,
 Gaussian 16:  EM64L-G16RevA.03 25-Dec-2016

 -------------
 #p 6-31g* mp2
 -------------

 ------------------------------------------------------
 Input file generated by CHIRIPA (05-May-2021 14:51:09)
 ------------------------------------------------------
 Symbolic Z-matrix:
 Charge =  0 Multiplicity = 1

                         Standard orientation:
 ---------------------------------------------------------------------
 Center     Atomic      Atomic             Coordinates (Angstroms)
 Number     Number       Type             X           Y           Z
 ---------------------------------------------------------------------
      1          6           0       -3.316135   -0.529371    0.427754
      2          6           0       -2.324439    0.518264    0.934691
      3          6           0       -0.977761   -0.086419    1.332950
      4          1           0       -3.469385   -1.287661    1.207789
      5          1           0       -2.878392   -1.051670   -0.434209
      6          1           0       -2.764486    1.039380    1.794583
      7          1           0       -2.173679    1.274253    0.153431
      8          1           0       -0.513958   -0.590200    0.478729
      9          1           0       -1.108123   -0.826408    2.129206
     10          1           0       -0.284078    0.680055    1.692367
     11          6           0       -4.667071    0.059765    0.025737
     12          6           0       -5.658767   -0.987870   -0.481201
     13          6           0       -7.005445   -0.383187   -0.879460
     14          1           0       -5.104814    0.582064    0.887700
     15          1           0       -4.513821    0.818055   -0.754298
     16          1           0       -5.809527   -1.743859    0.300060
     17          1           0       -5.218720   -1.508986   -1.341093
     18          1           0       -6.875083    0.356802   -1.675716
     19          1           0       -7.469247    0.120594   -0.025239
     20          1           0       -7.699128   -1.149661   -1.238876
     21          6           0        3.453739    0.601032   -0.626758
     22          6           0        2.429971    1.321282    0.251380
     23          6           0        1.360386    2.049285   -0.563355
     24          1           0        3.932528    1.330491   -1.294288
     25          1           0        2.931074   -0.117871   -1.272819
     26          1           0        2.954560    2.037627    0.896572
     27          1           0        1.953701    0.590055    0.917031
     28          1           0        0.811216    1.344040   -1.195529
     29          1           0        1.817762    2.799836   -1.216104
     30          1           0        0.638946    2.557245    0.084223
     31          6           0        4.529467   -0.131426    0.173267
     32          6           0        5.553234   -0.851676   -0.704870
     33          6           0        6.622820   -1.579678    0.109866
     34          1           0        5.052132    0.587477    0.819328
     35          1           0        4.050678   -0.860884    0.840798
     36          1           0        6.029505   -0.120450   -1.370521
     37          1           0        5.028645   -1.568021   -1.350062
     38          1           0        6.165444   -2.330230    0.762614
     39          1           0        7.171990   -0.874434    0.742038
     40          1           0        7.344261   -2.087639   -0.537714
 ---------------------------------------------------------------------

 SCF Done:  E(RHF) =  -470.732266762     A.U. after   11 cycles
 E2 =    -0.1583552269D+01 EUMP2 =    -0.47231581903058D+03

 The electronic state is 1-A.
 Alpha  occ. eigenvalues --  -11.21599 -11.21581 -11.21577 -11.21490 -11.21400
 Alpha  occ. eigenvalues --  -11.21365 -11.21341 -11.21306 -11.21068 -11.21051
 Alpha  occ. eigenvalues --  -11.21028 -11.21026  -1.08437  -1.08377  -1.03592
 Alpha  occ. eigenvalues --   -1.03428  -0.96077  -0.95851  -0.87029  -0.86934
 Alpha  occ. eigenvalues --   -0.79658  -0.79497  -0.78252  -0.78187  -0.65133
 Alpha  occ. eigenvalues --   -0.64967  -0.61186  -0.60718  -0.59628  -0.59075
 Alpha  occ. eigenvalues --   -0.57772  -0.57328  -0.55477  -0.54996  -0.52756
 Alpha  occ. eigenvalues --   -0.52568  -0.52460  -0.52241  -0.49949  -0.49843
 Alpha  occ. eigenvalues --   -0.47918  -0.47864  -0.46683  -0.46525  -0.45796
 Alpha  occ. eigenvalues --   -0.45741  -0.45710  -0.45645  -0.43775  -0.43682
 Alpha virt. eigenvalues --    0.21227   0.23089   0.23462   0.25436   0.26314
 Alpha virt. eigenvalues --    0.26596   0.26652   0.27449   0.27861   0.29376
 Alpha virt. eigenvalues --    0.29827   0.30853   0.31042   0.32226   0.32319

 Mulliken charges:
               1
     1  C   -0.298479
     2  C   -0.301806
     3  C   -0.477934
     4  H    0.149587
     5  H    0.149213
     6  H    0.151600
     7  H    0.154109
     8  H    0.154787
     9  H    0.154150
    10  H    0.165416
    11  C   -0.298317
    12  C   -0.299617
    13  C   -0.475703
    14  H    0.149513
    15  H    0.149786
    16  H    0.151892
    17  H    0.151857
    18  H    0.155225
    19  H    0.155179
    20  H    0.160223
    21  C   -0.297756
    22  C   -0.305965
    23  C   -0.476126
    24  H    0.149289
    25  H    0.148812
    26  H    0.150990
    27  H    0.159315
    28  H    0.155322
    29  H    0.154872
    30  H    0.160769
    31  C   -0.298361
    32  C   -0.299591
    33  C   -0.475693
    34  H    0.149418
    35  H    0.149910
    36  H    0.151850
    37  H    0.151791
    38  H    0.155201
    39  H    0.155135
    40  H    0.160137
 Sum of Mulliken charges =  -0.00000

 Dipole moment (field-independent basis, Debye):
    X=             -0.0134    Y=              0.0022    Z=              0.0162  Tot=              0.0211
 Quadrupole moment (field-independent basis, Debye-Ang):
   XX=            -86.2714   YY=            -84.5332   ZZ=            -84.1971
   XY=              1.2587   XZ=             -0.9973   YZ=              0.2374

 Normal termination of Gaussian 16 at Thu May  6 03:43:23 2021.
