 Gaussian 16, Revision A.03,
 Gaussian 16:  EM64L-G16RevA.03 25-Dec-2016

 -------------
 #p 6-31g* mp2
 -------------

 ------------------------------------------------------
 Input file generated by CHIRIPA (05-May-2021 14:55:24)
 ------------------------------------------------------
 Symbolic Z-matrix:
 Charge =  0 Multiplicity = 1

                         Standard orientation:
 ---------------------------------------------------------------------
 Center     Atomic      Atomic             Coordinates (Angstroms)
 Number     Number       Type             X           Y           Z
 ---------------------------------------------------------------------
      1          6           0        1.750645    1.985076    1.131744
      2          6           0        2.654230    1.964993    0.064199
      3          6           0        3.119411    0.750807   -0.449519
      4          6           0        2.658138   -0.429697    0.130936
      5          6           0        1.758041   -0.442522    1.195338
      6          6           0        1.306218    0.783373    1.692916
      7          1           0        1.394469    2.932833    1.524543
      8          1           0        3.001087    2.896700   -0.373589
      9          1           0        3.819084    0.706288   -1.275288
     10          1           0        1.430287   -1.387649    1.610945
     11          1           0        0.604497    0.795933    2.522058
     12          7           0        3.143534   -1.721299   -0.404372
     13          8           0        2.721948   -2.747516    0.124572
     14          8           0        3.936383   -1.682984   -1.342753
     15          6           0       -3.641055   -0.201032    0.207427
     16          6           0       -4.717001   -1.068713   -0.446373
     17          6           0       -5.390161   -2.020891    0.542570
     18          1           0       -2.883538   -0.851111    0.666242
     19          1           0       -4.093130    0.377429    1.024988
     20          1           0       -4.263322   -1.644331   -1.263351
     21          1           0       -5.471945   -0.416493   -0.903849
     22          1           0       -5.868641   -1.460358    1.352175
     23          1           0       -4.653150   -2.695174    0.990631
     24          1           0       -6.155860   -2.631581    0.054080
     25          6           0       -2.958982    0.756104   -0.768479
     26          6           0       -1.883035    1.623785   -0.114679
     27          6           0       -1.209875    2.575963   -1.103622
     28          1           0       -2.506907    0.177642   -1.586040
     29          1           0       -3.716498    1.406183   -1.227294
     30          1           0       -1.128092    0.971564    0.342798
     31          1           0       -2.336715    2.199403    0.702299
     32          1           0       -1.946886    3.250246   -1.551684
     33          1           0       -0.731396    2.015431   -1.913228
     34          1           0       -0.444177    3.186652   -0.615132
 ---------------------------------------------------------------------

 SCF Done:  E(RHF) =  -669.534313828     A.U. after   15 cycles
 E2 =    -0.2093858741D+01 EUMP2 =    -0.67162817256891D+03

 The electronic state is 1-A.
 Alpha  occ. eigenvalues --  -20.60829 -20.60824 -15.85884 -11.31268 -11.27831
 Alpha  occ. eigenvalues --  -11.27823 -11.27567 -11.26849 -11.26832 -11.21915
 Alpha  occ. eigenvalues --  -11.21781 -11.21686 -11.21627 -11.21508 -11.21217
 Alpha  occ. eigenvalues --   -1.59905  -1.39458  -1.19450  -1.08863  -1.08692
 Alpha  occ. eigenvalues --   -1.04857  -1.03811  -0.96276  -0.95661  -0.87289
 Alpha  occ. eigenvalues --   -0.86247  -0.82499  -0.79892  -0.78538  -0.77538
 Alpha  occ. eigenvalues --   -0.72101  -0.71229  -0.70556  -0.65353  -0.65097
 Alpha  occ. eigenvalues --   -0.64847  -0.62194  -0.61224  -0.59696  -0.57923
 Alpha  occ. eigenvalues --   -0.55571  -0.55350  -0.53272  -0.52942  -0.52827
 Alpha  occ. eigenvalues --   -0.52668  -0.50202  -0.48863  -0.48855  -0.48211
 Alpha  occ. eigenvalues --   -0.46917  -0.46078  -0.45992  -0.44859  -0.44081
 Alpha  occ. eigenvalues --   -0.37347  -0.36374
 Alpha virt. eigenvalues --    0.04957   0.11144   0.16361   0.20698   0.22775
 Alpha virt. eigenvalues --    0.24168   0.26165   0.26592   0.26959   0.28061
 Alpha virt. eigenvalues --    0.28598   0.30605   0.31179   0.31772   0.32358

 Mulliken charges:
               1
     1  C   -0.165995
     2  C   -0.217082
     3  C   -0.171249
     4  C    0.158974
     5  C   -0.172228
     6  C   -0.220636
     7  H    0.226405
     8  H    0.224157
     9  H    0.275944
    10  H    0.275819
    11  H    0.225704
    12  N    0.488037
    13  O   -0.460392
    14  O   -0.460128
    15  C   -0.298065
    16  C   -0.300028
    17  C   -0.476036
    18  H    0.147769
    19  H    0.147683
    20  H    0.154432
    21  H    0.152187
    22  H    0.154168
    23  H    0.155875
    24  H    0.161667
    25  C   -0.297775
    26  C   -0.307938
    27  C   -0.472174
    28  H    0.152524
    29  H    0.149761
    30  H    0.159181
    31  H    0.145814
    32  H    0.155226
    33  H    0.158669
    34  H    0.149732
 Sum of Mulliken charges =  -0.00000

 Dipole moment (field-independent basis, Debye):
    X=             -1.6496    Y=              4.4901    Z=              1.8629  Tot=              5.1334
 Quadrupole moment (field-independent basis, Debye-Ang):
   XX=           -102.6635   YY=            -98.2706   ZZ=            -92.6563
   XY=             13.9137   XZ=              3.0084   YZ=             -1.4345

 Normal termination of Gaussian 16 at Thu May  6 20:55:56 2021.
