 Gaussian 16, Revision A.03,
 Gaussian 16:  EM64L-G16RevA.03 25-Dec-2016

 -------------
 #p 6-31g* mp2
 -------------

 ------------------------------------------------------
 Input file generated by CHIRIPA (05-May-2021 14:53:16)
 ------------------------------------------------------
 Symbolic Z-matrix:
 Charge =  0 Multiplicity = 1

                         Standard orientation:
 ---------------------------------------------------------------------
 Center     Atomic      Atomic             Coordinates (Angstroms)
 Number     Number       Type             X           Y           Z
 ---------------------------------------------------------------------
      1          6           0       -3.297300    1.175092   -0.244241
      2          6           0       -2.228815    2.258236   -0.092171
      3          6           0       -2.764428    3.661358   -0.378812
      4          1           0       -3.705456    1.212164   -1.263544
      5          1           0       -4.132353    1.395662    0.435046
      6          1           0       -1.395408    2.034936   -0.770540
      7          1           0       -1.823021    2.218456    0.926831
      8          1           0       -3.581785    3.909070    0.306146
      9          1           0       -3.151742    3.724507   -1.400869
     10          1           0       -1.984046    4.420133   -0.264251
     11          6           0       -2.777103   -0.233050    0.039059
     12          6           0       -3.845588   -1.316193   -0.113011
     13          6           0       -3.309975   -2.719315    0.173630
     14          1           0       -1.942050   -0.453620   -0.640227
     15          1           0       -2.368947   -0.270121    1.058363
     16          1           0       -4.251382   -1.276414   -1.132012
     17          1           0       -4.678995   -1.092894    0.565358
     18          1           0       -2.922661   -2.782464    1.195687
     19          1           0       -2.492618   -2.967027   -0.511328
     20          1           0       -4.090357   -3.478090    0.059070
     21          6           0        0.579114   -2.141231    0.144689
     22          6           0        1.568677   -2.182158   -0.843042
     23          6           0        2.567414   -1.204908   -0.888412
     24          6           0        2.546222   -0.196554    0.073909
     25          6           0        1.573823   -0.128562    1.070457
     26          6           0        0.584835   -1.116370    1.096607
     27          1           0       -0.192942   -2.904483    0.172468
     28          1           0        1.566722   -2.976899   -1.583600
     29          1           0        3.345436   -1.212575   -1.642096
     30          1           0        1.601980    0.676093    1.795134
     31          1           0       -0.182421   -1.082070    1.864843
     32          7           0        3.598380    0.843605    0.036051
     33          8           0        3.557583    1.721483    0.895296
     34          8           0        4.443934    0.761308   -0.852149
 ---------------------------------------------------------------------

 SCF Done:  E(RHF) =  -669.533879876     A.U. after   15 cycles
 E2 =    -0.2094109912D+01 EUMP2 =    -0.67162798978753D+03

 The electronic state is 1-A.
 Alpha  occ. eigenvalues --  -20.60722 -20.60716 -15.85775 -11.31126 -11.27687
 Alpha  occ. eigenvalues --  -11.27665 -11.27344 -11.26708 -11.26657 -11.22468
 Alpha  occ. eigenvalues --  -11.22302 -11.22095 -11.21969 -11.21876 -11.21285
 Alpha  occ. eigenvalues --   -1.59798  -1.39352  -1.19293  -1.09106  -1.08674
 Alpha  occ. eigenvalues --   -1.04694  -1.04194  -0.96668  -0.95525  -0.87694
 Alpha  occ. eigenvalues --   -0.86096  -0.82362  -0.80288  -0.78890  -0.77400
 Alpha  occ. eigenvalues --   -0.71993  -0.71122  -0.70401  -0.65741  -0.64938
 Alpha  occ. eigenvalues --   -0.64699  -0.62055  -0.61591  -0.60055  -0.58299
 Alpha  occ. eigenvalues --   -0.56000  -0.55195  -0.53380  -0.53154  -0.52942
 Alpha  occ. eigenvalues --   -0.52757  -0.50622  -0.48754  -0.48750  -0.48566
 Alpha  occ. eigenvalues --   -0.47295  -0.46403  -0.46280  -0.44761  -0.44415
 Alpha  occ. eigenvalues --   -0.37198  -0.36256
 Alpha virt. eigenvalues --    0.05077   0.11327   0.16433   0.19724   0.22687
 Alpha virt. eigenvalues --    0.23875   0.24428   0.26190   0.26846   0.28731
 Alpha virt. eigenvalues --    0.29479   0.29985   0.31093   0.31383   0.32057

 Mulliken charges:
               1
     1  C   -0.298566
     2  C   -0.299592
     3  C   -0.476478
     4  H    0.151455
     5  H    0.149982
     6  H    0.155622
     7  H    0.148251
     8  H    0.154949
     9  H    0.155934
    10  H    0.164448
    11  C   -0.301586
    12  C   -0.299025
    13  C   -0.480570
    14  H    0.156582
    15  H    0.140672
    16  H    0.155601
    17  H    0.154946
    18  H    0.149945
    19  H    0.149788
    20  H    0.166718
    21  C   -0.174780
    22  C   -0.220748
    23  C   -0.171293
    24  C    0.158143
    25  C   -0.172418
    26  C   -0.214402
    27  H    0.232627
    28  H    0.222941
    29  H    0.275122
    30  H    0.275038
    31  H    0.223995
    32  N    0.488049
    33  O   -0.460585
    34  O   -0.460767
 Sum of Mulliken charges =  -0.00000

 Dipole moment (field-independent basis, Debye):
    X=             -3.8507    Y=             -3.5770    Z=              0.0597  Tot=              5.2561
 Quadrupole moment (field-independent basis, Debye-Ang):
   XX=           -113.2202   YY=            -93.9019   ZZ=            -90.9409
   XY=             -9.4654   XZ=             -1.8786   YZ=              2.0167

 Normal termination of Gaussian 16 at Thu May  6 01:11:41 2021.
