 Gaussian 16, Revision A.03,
 Gaussian 16:  EM64L-G16RevA.03 25-Dec-2016

 -------------
 #p 6-31g* mp2
 -------------

 ------------------------------------------------------
 Input file generated by CHIRIPA (05-May-2021 14:51:10)
 ------------------------------------------------------
 Symbolic Z-matrix:
 Charge =  0 Multiplicity = 1

                         Standard orientation:
 ---------------------------------------------------------------------
 Center     Atomic      Atomic             Coordinates (Angstroms)
 Number     Number       Type             X           Y           Z
 ---------------------------------------------------------------------
      1          6           0        3.237236   -0.440528   -0.305646
      2          6           0        2.067120   -0.344678    0.673959
      3          6           0        0.713053   -0.573358    0.001649
      4          1           0        3.096030    0.295668   -1.108778
      5          1           0        3.226409   -1.430063   -0.783242
      6          1           0        2.080965    0.643882    1.150585
      7          1           0        2.211226   -1.081058    1.474955
      8          1           0        0.674299   -1.565863   -0.458822
      9          1           0        0.543298    0.168877   -0.785035
     10          1           0       -0.109335   -0.500354    0.720126
     11          6           0        4.597609   -0.214216    0.351543
     12          6           0        5.767725   -0.310066   -0.628062
     13          6           0        7.121792   -0.081386    0.044249
     14          1           0        4.608436    0.775319    0.829139
     15          1           0        4.738815   -0.950412    1.154675
     16          1           0        5.623619    0.426314   -1.429058
     17          1           0        5.753879   -1.298626   -1.104688
     18          1           0        7.291546   -0.823621    0.830932
     19          1           0        7.160546    0.911119    0.504719
     20          1           0        7.944180   -0.154390   -0.674228
     21          6           0       -3.826349    1.062739   -0.208346
     22          6           0       -2.503228    1.652188    0.281438
     23          6           0       -2.335643    3.124052   -0.097147
     24          1           0       -3.887042    1.171261   -1.299897
     25          1           0       -4.657385    1.646959    0.210535
     26          1           0       -1.674969    1.066182   -0.137131
     27          1           0       -2.445594    1.542078    1.371929
     28          1           0       -3.141983    3.726736    0.333187
     29          1           0       -2.366980    3.248136   -1.184448
     30          1           0       -1.383079    3.525217    0.262782
     31          6           0       -4.008496   -0.407996    0.162449
     32          6           0       -5.331616   -0.997444   -0.327336
     33          6           0       -5.499202   -2.469307    0.051250
     34          1           0       -3.177460   -0.992216   -0.256431
     35          1           0       -3.947803   -0.516517    1.254000
     36          1           0       -5.389252   -0.887334   -1.417826
     37          1           0       -6.159875   -0.411438    0.091234
     38          1           0       -5.467865   -2.593392    1.138550
     39          1           0       -4.692862   -3.071992   -0.379084
     40          1           0       -6.451766   -2.870474   -0.308679
 ---------------------------------------------------------------------

 SCF Done:  E(RHF) =  -470.732475814     A.U. after   11 cycles
 E2 =    -0.1583081782D+01 EUMP2 =    -0.47231555759658D+03

 The electronic state is 1-A.
 Alpha  occ. eigenvalues --  -11.21623 -11.21613 -11.21562 -11.21423 -11.21422
 Alpha  occ. eigenvalues --  -11.21362 -11.21339 -11.21274 -11.21080 -11.21076
 Alpha  occ. eigenvalues --  -11.21040 -11.21011  -1.08451  -1.08361  -1.03566
 Alpha  occ. eigenvalues --   -1.03452  -0.96013  -0.95918  -0.87056  -0.86918
 Alpha  occ. eigenvalues --   -0.79706  -0.79461  -0.78275  -0.78157  -0.65103
 Alpha  occ. eigenvalues --   -0.64982  -0.61051  -0.60795  -0.59473  -0.59196
 Alpha  occ. eigenvalues --   -0.57619  -0.57526  -0.55341  -0.55170  -0.52807
 Alpha  occ. eigenvalues --   -0.52573  -0.52430  -0.52324  -0.50046  -0.49797
 Alpha  occ. eigenvalues --   -0.47949  -0.47817  -0.46775  -0.46429  -0.45832
 Alpha  occ. eigenvalues --   -0.45748  -0.45705  -0.45556  -0.43762  -0.43659
 Alpha virt. eigenvalues --    0.22202   0.23014   0.23815   0.24761   0.26106
 Alpha virt. eigenvalues --    0.26574   0.26727   0.27504   0.27848   0.29127
 Alpha virt. eigenvalues --    0.30690   0.31331   0.31742   0.31792   0.32072

 Mulliken charges:
               1
     1  C   -0.298715
     2  C   -0.299568
     3  C   -0.481027
     4  H    0.149761
     5  H    0.149520
     6  H    0.152262
     7  H    0.152117
     8  H    0.154797
     9  H    0.155480
    10  H    0.166362
    11  C   -0.298307
    12  C   -0.299656
    13  C   -0.475716
    14  H    0.149573
    15  H    0.149709
    16  H    0.151947
    17  H    0.151923
    18  H    0.155200
    19  H    0.155214
    20  H    0.160287
    21  C   -0.297255
    22  C   -0.309591
    23  C   -0.475244
    24  H    0.149072
    25  H    0.148835
    26  H    0.165332
    27  H    0.149895
    28  H    0.154792
    29  H    0.154482
    30  H    0.159323
    31  C   -0.299725
    32  C   -0.299498
    33  C   -0.475680
    34  H    0.151032
    35  H    0.149001
    36  H    0.151888
    37  H    0.151866
    38  H    0.155019
    39  H    0.155205
    40  H    0.160087
 Sum of Mulliken charges =  -0.00000

 Dipole moment (field-independent basis, Debye):
    X=              0.0457    Y=             -0.0297    Z=             -0.0031  Tot=              0.0546
 Quadrupole moment (field-independent basis, Debye-Ang):
   XX=            -85.9959   YY=            -84.9789   ZZ=            -84.1432
   XY=             -0.5432   XZ=             -0.6434   YZ=              0.1954

 Normal termination of Gaussian 16 at Wed May  5 18:10:57 2021.
