 Gaussian 16, Revision A.03,
 Gaussian 16:  EM64L-G16RevA.03 25-Dec-2016

 -------------
 #p 6-31g* mp2
 -------------

 ------------------------------------------------------
 Input file generated by CHIRIPA (05-May-2021 14:55:20)
 ------------------------------------------------------
 Symbolic Z-matrix:
 Charge =  0 Multiplicity = 1

                         Standard orientation:
 ---------------------------------------------------------------------
 Center     Atomic      Atomic             Coordinates (Angstroms)
 Number     Number       Type             X           Y           Z
 ---------------------------------------------------------------------
      1          6           0       -0.857616   -0.520713    1.142107
      2          6           0       -1.431743   -1.587444    0.442833
      3          6           0       -2.719641   -1.476250   -0.089617
      4          6           0       -3.408091   -0.278509    0.096782
      5          6           0       -2.863242    0.802113    0.788655
      6          6           0       -1.573935    0.668563    1.312487
      7          1           0        0.143402   -0.615775    1.552380
      8          1           0       -0.877775   -2.512239    0.308974
      9          1           0       -3.188084   -2.286360   -0.635236
     10          1           0       -3.440060    1.711486    0.905869
     11          1           0       -1.130572    1.498647    1.855106
     12          7           0       -4.772277   -0.148959   -0.462336
     13          8           0       -5.358036    0.916812   -0.284422
     14          8           0       -5.229935   -1.115643   -1.067900
     15          6           0        3.768383    1.080539   -0.176517
     16          6           0        2.286290    1.128936   -0.549400
     17          6           0        1.687993    2.529440   -0.413668
     18          1           0        3.891951    1.435124    0.855929
     19          1           0        4.323274    1.780883   -0.816055
     20          1           0        1.734563    0.427691    0.089716
     21          1           0        2.166214    0.774014   -1.581015
     22          1           0        2.212595    3.237128   -1.063723
     23          1           0        1.778491    2.888838    0.616499
     24          1           0        0.627797    2.541130   -0.685158
     25          6           0        4.380753   -0.312898   -0.307149
     26          6           0        5.862847   -0.361295    0.065734
     27          6           0        6.461143   -1.761799   -0.069998
     28          1           0        3.825862   -1.013243    0.332389
     29          1           0        4.257185   -0.667482   -1.339595
     30          1           0        5.982922   -0.006372    1.097348
     31          1           0        6.414573    0.339951   -0.573381
     32          1           0        6.370645   -2.121196   -1.100166
     33          1           0        5.936542   -2.469487    0.580057
     34          1           0        7.521339   -1.773489    0.201491
 ---------------------------------------------------------------------

 SCF Done:  E(RHF) =  -669.535147380     A.U. after   15 cycles
 E2 =    -0.2092174757D+01 EUMP2 =    -0.67162732213720D+03

 The electronic state is 1-A.
 Alpha  occ. eigenvalues --  -20.60774 -20.60769 -15.85828 -11.31204 -11.27775
 Alpha  occ. eigenvalues --  -11.27772 -11.27516 -11.26793 -11.26783 -11.22393
 Alpha  occ. eigenvalues --  -11.22203 -11.22127 -11.22070 -11.21809 -11.21606
 Alpha  occ. eigenvalues --   -1.59850  -1.39403  -1.19383  -1.09149  -1.08775
 Alpha  occ. eigenvalues --   -1.04783  -1.04213  -0.96655  -0.95611  -0.87671
 Alpha  occ. eigenvalues --   -0.86178  -0.82445  -0.80283  -0.78961  -0.77479
 Alpha  occ. eigenvalues --   -0.72046  -0.71173  -0.70526  -0.65794  -0.65033
 Alpha  occ. eigenvalues --   -0.64779  -0.62132  -0.61622  -0.60021  -0.58264
 Alpha  occ. eigenvalues --   -0.55961  -0.55317  -0.53372  -0.53120  -0.53014
 Alpha  occ. eigenvalues --   -0.52862  -0.50602  -0.48811  -0.48800  -0.48579
 Alpha  occ. eigenvalues --   -0.47321  -0.46491  -0.46428  -0.44806  -0.44467
 Alpha  occ. eigenvalues --   -0.37318  -0.36381
 Alpha virt. eigenvalues --    0.05017   0.11219   0.16402   0.19878   0.22663
 Alpha virt. eigenvalues --    0.23857   0.25269   0.26166   0.26888   0.28063
 Alpha virt. eigenvalues --    0.28993   0.30657   0.31033   0.31165   0.32201

 Mulliken charges:
               1
     1  C   -0.167693
     2  C   -0.219553
     3  C   -0.170894
     4  C    0.158752
     5  C   -0.171933
     6  C   -0.218535
     7  H    0.225520
     8  H    0.223770
     9  H    0.275726
    10  H    0.275832
    11  H    0.225023
    12  N    0.488065
    13  O   -0.460357
    14  O   -0.460369
    15  C   -0.298602
    16  C   -0.300935
    17  C   -0.478621
    18  H    0.148152
    19  H    0.152895
    20  H    0.143062
    21  H    0.156363
    22  H    0.159564
    23  H    0.150115
    24  H    0.164276
    25  C   -0.297294
    26  C   -0.300007
    27  C   -0.475955
    28  H    0.143228
    29  H    0.151746
    30  H    0.152025
    31  H    0.154083
    32  H    0.156270
    33  H    0.154014
    34  H    0.162268
 Sum of Mulliken charges =  -0.00000

 Dipole moment (field-independent basis, Debye):
    X=              4.8905    Y=             -0.4316    Z=              1.8882  Tot=              5.2601
 Quadrupole moment (field-independent basis, Debye-Ang):
   XX=           -128.0144   YY=            -91.0436   ZZ=            -93.4394
   XY=              0.5502   XZ=             -6.8886   YZ=              1.0065

 Normal termination of Gaussian 16 at Thu May  6 02:55:14 2021.
