 Gaussian 16, Revision A.03,
 Gaussian 16:  EM64L-G16RevA.03 25-Dec-2016

 -------------
 #p 6-31g* mp2
 -------------

 ------------------------------------------------------
 Input file generated by CHIRIPA (05-May-2021 14:53:16)
 ------------------------------------------------------
 Symbolic Z-matrix:
 Charge =  0 Multiplicity = 1

                         Standard orientation:
 ---------------------------------------------------------------------
 Center     Atomic      Atomic             Coordinates (Angstroms)
 Number     Number       Type             X           Y           Z
 ---------------------------------------------------------------------
      1          6           0       -3.360853   -0.420232    0.318958
      2          6           0       -2.885555   -1.872481    0.263735
      3          6           0       -3.548466   -2.752178    1.324148
      4          1           0       -3.154845   -0.011401    1.317639
      5          1           0       -4.451654   -0.393554    0.189202
      6          1           0       -1.795806   -1.896303    0.392173
      7          1           0       -3.092544   -2.277843   -0.734991
      8          1           0       -4.635612   -2.758184    1.195006
      9          1           0       -3.331507   -2.374477    2.328574
     10          1           0       -3.194275   -3.786153    1.266667
     11          6           0       -2.707114    0.471655   -0.735030
     12          6           0       -3.182411    1.923904   -0.679806
     13          6           0       -2.519501    2.803601   -1.740219
     14          1           0       -1.616313    0.444977   -0.605274
     15          1           0       -2.913121    0.062824   -1.733711
     16          1           0       -2.975423    2.329265    0.318920
     17          1           0       -4.272160    1.947726   -0.808245
     18          1           0       -2.736459    2.425900   -2.744646
     19          1           0       -1.432354    2.809607   -1.611077
     20          1           0       -2.873692    3.837576   -1.682738
     21          6           0        3.113273   -1.729200   -1.538310
     22          6           0        1.781742   -1.700014   -1.110885
     23          6           0        1.358918   -0.757429   -0.168917
     24          6           0        2.298471    0.145143    0.326959
     25          6           0        3.632026    0.141366   -0.079128
     26          6           0        4.032546   -0.810036   -1.021977
     27          1           0        3.433069   -2.464847   -2.270395
     28          1           0        1.065634   -2.412626   -1.510159
     29          1           0        0.334195   -0.712510    0.179423
     30          1           0        4.322820    0.864609    0.336975
     31          1           0        5.067271   -0.830363   -1.352092
     32          7           0        1.862654    1.147683    1.324644
     33          8           0        2.709867    1.931981    1.746241
     34          8           0        0.682099    1.130194    1.666143
 ---------------------------------------------------------------------

 SCF Done:  E(RHF) =  -669.535484453     A.U. after   15 cycles
 E2 =    -0.2092683127D+01 EUMP2 =    -0.67162816757994D+03

 The electronic state is 1-A.
 Alpha  occ. eigenvalues --  -20.60864 -20.60854 -15.85903 -11.31217 -11.27783
 Alpha  occ. eigenvalues --  -11.27745 -11.27516 -11.26795 -11.26772 -11.21938
 Alpha  occ. eigenvalues --  -11.21332 -11.21282 -11.21233 -11.21217 -11.20745
 Alpha  occ. eigenvalues --   -1.59929  -1.39485  -1.19387  -1.08792  -1.08381
 Alpha  occ. eigenvalues --   -1.04783  -1.03467  -0.95899  -0.95635  -0.86923
 Alpha  occ. eigenvalues --   -0.86188  -0.82468  -0.79577  -0.78232  -0.77498
 Alpha  occ. eigenvalues --   -0.72127  -0.71247  -0.70513  -0.65140  -0.65040
 Alpha  occ. eigenvalues --   -0.64670  -0.62124  -0.60848  -0.59296  -0.57522
 Alpha  occ. eigenvalues --   -0.55310  -0.55145  -0.53115  -0.52899  -0.52612
 Alpha  occ. eigenvalues --   -0.52323  -0.49849  -0.48883  -0.48878  -0.47886
 Alpha  occ. eigenvalues --   -0.46603  -0.45720  -0.45587  -0.44874  -0.43719
 Alpha  occ. eigenvalues --   -0.37367  -0.36374
 Alpha virt. eigenvalues --    0.04966   0.11198   0.16504   0.19812   0.23129
 Alpha virt. eigenvalues --    0.24262   0.25199   0.27030   0.27769   0.28128
 Alpha virt. eigenvalues --    0.29637   0.31269   0.31445   0.31895   0.32185

 Mulliken charges:
               1
     1  C   -0.299647
     2  C   -0.302417
     3  C   -0.475459
     4  H    0.160366
     5  H    0.149889
     6  H    0.141944
     7  H    0.149734
     8  H    0.156935
     9  H    0.160311
    10  H    0.158035
    11  C   -0.302579
    12  C   -0.299925
    13  C   -0.476176
    14  H    0.150619
    15  H    0.144979
    16  H    0.162370
    17  H    0.149773
    18  H    0.151120
    19  H    0.157992
    20  H    0.161095
    21  C   -0.170575
    22  C   -0.222598
    23  C   -0.182495
    24  C    0.158727
    25  C   -0.170040
    26  C   -0.218771
    27  H    0.225823
    28  H    0.224601
    29  H    0.291972
    30  H    0.275584
    31  H    0.223631
    32  N    0.487302
    33  O   -0.459394
    34  O   -0.462726
 Sum of Mulliken charges =  -0.00000

 Dipole moment (field-independent basis, Debye):
    X=              1.5007    Y=             -3.4244    Z=             -3.3881  Tot=              5.0456
 Quadrupole moment (field-independent basis, Debye-Ang):
   XX=            -82.6137   YY=            -96.2386   ZZ=            -97.9412
   XY=             -6.3631   XZ=             -7.2819   YZ=             -0.7226

 Normal termination of Gaussian 16 at Wed May  5 20:19:39 2021.
