 Gaussian 16, Revision A.03,
 Gaussian 16:  EM64L-G16RevA.03 25-Dec-2016

 -------------
 #p 6-31g* mp2
 -------------

 ------------------------------------------------------
 Input file generated by CHIRIPA (05-May-2021 14:53:14)
 ------------------------------------------------------
 Symbolic Z-matrix:
 Charge =  0 Multiplicity = 1

                         Standard orientation:
 ---------------------------------------------------------------------
 Center     Atomic      Atomic             Coordinates (Angstroms)
 Number     Number       Type             X           Y           Z
 ---------------------------------------------------------------------
      1          6           0       -3.417936   -0.605357   -0.183055
      2          6           0       -4.632088    0.309792   -0.020811
      3          6           0       -5.619759    0.193017   -1.182132
      4          1           0       -2.907992   -0.363731   -1.125668
      5          1           0       -3.760742   -1.645629   -0.270871
      6          1           0       -4.287015    1.347887    0.068061
      7          1           0       -5.139092    0.066089    0.921618
      8          1           0       -5.992113   -0.832810   -1.269503
      9          1           0       -5.135195    0.456271   -2.127910
     10          1           0       -6.480026    0.855729   -1.045703
     11          6           0       -2.421449   -0.499921    0.970039
     12          6           0       -1.207297   -1.415069    0.807795
     13          6           0       -0.219626   -1.298294    1.969115
     14          1           0       -2.078643    0.540352    1.057855
     15          1           0       -2.931393   -0.741546    1.912651
     16          1           0       -0.700294   -1.171367   -0.134634
     17          1           0       -1.552370   -2.453164    0.718923
     18          1           0       -0.704190   -1.561549    2.914893
     19          1           0        0.152728   -0.272468    2.056487
     20          1           0        0.640641   -1.961007    1.832686
     21          6           0        3.925540   -1.435163   -0.727041
     22          6           0        2.718876   -1.393327   -1.433251
     23          6           0        1.800231   -0.363617   -1.208894
     24          6           0        2.122023    0.612235   -0.266848
     25          6           0        3.315917    0.598056    0.452669
     26          6           0        4.219691   -0.441089    0.212009
     27          1           0        4.633390   -2.238730   -0.907659
     28          1           0        2.487777   -2.163990   -2.163127
     29          1           0        0.858716   -0.306963   -1.741586
     30          1           0        3.518295    1.380486    1.173963
     31          1           0        5.156031   -0.471036    0.761931
     32          7           0        1.157366    1.707338   -0.020701
     33          8           0        1.464498    2.555079    0.814548
     34          8           0        0.112401    1.697201   -0.667681
 ---------------------------------------------------------------------

 SCF Done:  E(RHF) =  -669.534915198     A.U. after   15 cycles
 E2 =    -0.2095373851D+01 EUMP2 =    -0.67163028904928D+03

 The electronic state is 1-A.
 Alpha  occ. eigenvalues --  -20.61026 -20.61012 -15.86025 -11.31274 -11.27848
 Alpha  occ. eigenvalues --  -11.27842 -11.27584 -11.26847 -11.26835 -11.21163
 Alpha  occ. eigenvalues --  -11.20897 -11.20794 -11.20692 -11.20541 -11.20508
 Alpha  occ. eigenvalues --   -1.60076  -1.39633  -1.19462  -1.08878  -1.07775
 Alpha  occ. eigenvalues --   -1.04855  -1.03003  -0.95731  -0.95441  -0.86472
 Alpha  occ. eigenvalues --   -0.86259  -0.82566  -0.79080  -0.77682  -0.77531
 Alpha  occ. eigenvalues --   -0.72264  -0.71439  -0.70588  -0.65130  -0.64885
 Alpha  occ. eigenvalues --   -0.64333  -0.62225  -0.60387  -0.58837  -0.57068
 Alpha  occ. eigenvalues --   -0.55366  -0.54788  -0.53102  -0.52957  -0.52152
 Alpha  occ. eigenvalues --   -0.51875  -0.49423  -0.49033  -0.49012  -0.47391
 Alpha  occ. eigenvalues --   -0.46092  -0.45267  -0.45017  -0.44826  -0.43200
 Alpha  occ. eigenvalues --   -0.37401  -0.36399
 Alpha virt. eigenvalues --    0.04854   0.11131   0.16354   0.21006   0.23428
 Alpha virt. eigenvalues --    0.24699   0.25931   0.27396   0.27852   0.28471
 Alpha virt. eigenvalues --    0.29157   0.30888   0.31766   0.32035   0.32163

 Mulliken charges:
               1
     1  C   -0.297643
     2  C   -0.300545
     3  C   -0.475537
     4  H    0.151730
     5  H    0.143485
     6  H    0.159337
     7  H    0.149377
     8  H    0.151962
     9  H    0.155382
    10  H    0.159100
    11  C   -0.300477
    12  C   -0.302158
    13  C   -0.478012
    14  H    0.168421
    15  H    0.145065
    16  H    0.148249
    17  H    0.147075
    18  H    0.156102
    19  H    0.155079
    20  H    0.156338
    21  C   -0.170581
    22  C   -0.219645
    23  C   -0.169914
    24  C    0.161508
    25  C   -0.171003
    26  C   -0.218363
    27  H    0.226075
    28  H    0.224165
    29  H    0.275451
    30  H    0.275874
    31  H    0.223854
    32  N    0.489507
    33  O   -0.458701
    34  O   -0.460558
 Sum of Mulliken charges =  -0.00000

 Dipole moment (field-independent basis, Debye):
    X=              3.5525    Y=             -3.6517    Z=             -0.8879  Tot=              5.1714
 Quadrupole moment (field-independent basis, Debye-Ang):
   XX=            -79.5180   YY=            -98.9877   ZZ=            -92.8864
   XY=             -4.9807   XZ=             -1.2756   YZ=              1.9246

 Normal termination of Gaussian 16 at Wed May  5 15:37:06 2021.
