 Gaussian 16, Revision A.03,
 Gaussian 16:  EM64L-G16RevA.03 25-Dec-2016

 -------------
 #p 6-31g* mp2
 -------------

 ------------------------------------------------------
 Input file generated by CHIRIPA (05-May-2021 14:55:23)
 ------------------------------------------------------
 Symbolic Z-matrix:
 Charge =  0 Multiplicity = 1

                         Standard orientation:
 ---------------------------------------------------------------------
 Center     Atomic      Atomic             Coordinates (Angstroms)
 Number     Number       Type             X           Y           Z
 ---------------------------------------------------------------------
      1          6           0       -1.030428   -1.457828    1.844328
      2          6           0       -1.803919   -2.264753    1.003434
      3          6           0       -2.656867   -1.690680    0.056087
      4          6           0       -2.711803   -0.300018   -0.023490
      5          6           0       -1.953699    0.530777    0.800129
      6          6           0       -1.107650   -0.065093    1.740175
      7          1           0       -0.370517   -1.912248    2.577414
      8          1           0       -1.745982   -3.346651    1.082082
      9          1           0       -3.266748   -2.291696   -0.607422
     10          1           0       -2.032898    1.606299    0.698149
     11          1           0       -0.508107    0.564058    2.391913
     12          7           0       -3.611129    0.319266   -1.022539
     13          8           0       -3.641424    1.546946   -1.072740
     14          8           0       -4.268698   -0.434747   -1.736477
     15          6           0        2.821348    1.095363   -0.366671
     16          6           0        2.200278    1.789325    0.846043
     17          6           0        1.282462    2.948921    0.457786
     18          1           0        3.387210    1.832304   -0.952901
     19          1           0        2.018708    0.726035   -1.019940
     20          1           0        3.003848    2.156020    1.497523
     21          1           0        1.635987    1.050608    1.429556
     22          1           0        0.460935    2.595248   -0.173570
     23          1           0        1.836568    3.706942   -0.105218
     24          1           0        0.849264    3.430735    1.339860
     25          6           0        3.741426   -0.066029    0.005287
     26          6           0        4.362495   -0.759991   -1.207426
     27          6           0        5.280311   -1.919587   -0.819170
     28          1           0        4.544065    0.303299    0.658556
     29          1           0        3.175563   -0.802970    0.591516
     30          1           0        4.926786   -0.021274   -1.790941
     31          1           0        3.558926   -1.126686   -1.858906
     32          1           0        4.726205   -2.677607   -0.256166
     33          1           0        6.101838   -1.565914   -0.187814
     34          1           0        5.713509   -2.401401   -1.701244
 ---------------------------------------------------------------------

 SCF Done:  E(RHF) =  -669.535164496     A.U. after   15 cycles
 E2 =    -0.2092698658D+01 EUMP2 =    -0.67162786315387D+03

 The electronic state is 1-A.
 Alpha  occ. eigenvalues --  -20.60805 -20.60800 -15.85859 -11.31244 -11.27813
 Alpha  occ. eigenvalues --  -11.27794 -11.27559 -11.26835 -11.26807 -11.22198
 Alpha  occ. eigenvalues --  -11.21955 -11.21843 -11.21779 -11.21646 -11.21427
 Alpha  occ. eigenvalues --   -1.59881  -1.39434  -1.19421  -1.08896  -1.08805
 Alpha  occ. eigenvalues --   -1.04830  -1.04001  -0.96447  -0.95641  -0.87461
 Alpha  occ. eigenvalues --   -0.86223  -0.82472  -0.80076  -0.78701  -0.77517
 Alpha  occ. eigenvalues --   -0.72076  -0.71205  -0.70522  -0.65574  -0.65068
 Alpha  occ. eigenvalues --   -0.64810  -0.62278  -0.61301  -0.59819  -0.58059
 Alpha  occ. eigenvalues --   -0.55744  -0.55297  -0.53166  -0.53130  -0.52947
 Alpha  occ. eigenvalues --   -0.52845  -0.50366  -0.48843  -0.48830  -0.48379
 Alpha  occ. eigenvalues --   -0.47088  -0.46243  -0.46142  -0.44834  -0.44250
 Alpha  occ. eigenvalues --   -0.37393  -0.36394
 Alpha virt. eigenvalues --    0.04989   0.11094   0.16408   0.20179   0.22757
 Alpha virt. eigenvalues --    0.23840   0.25831   0.26279   0.26651   0.28487
 Alpha virt. eigenvalues --    0.29307   0.29625   0.31295   0.31504   0.31924

 Mulliken charges:
               1
     1  C   -0.172703
     2  C   -0.218383
     3  C   -0.170853
     4  C    0.158180
     5  C   -0.173392
     6  C   -0.217064
     7  H    0.225972
     8  H    0.223688
     9  H    0.275816
    10  H    0.277698
    11  H    0.226637
    12  N    0.488093
    13  O   -0.460115
    14  O   -0.460279
    15  C   -0.298501
    16  C   -0.301916
    17  C   -0.481381
    18  H    0.152210
    19  H    0.153523
    20  H    0.152842
    21  H    0.144112
    22  H    0.159648
    23  H    0.161324
    24  H    0.155731
    25  C   -0.297676
    26  C   -0.300257
    27  C   -0.475645
    28  H    0.149569
    29  H    0.145403
    30  H    0.153719
    31  H    0.153546
    32  H    0.153101
    33  H    0.155446
    34  H    0.161907
 Sum of Mulliken charges =  -0.00000

 Dipole moment (field-independent basis, Debye):
    X=              3.2085    Y=             -2.1689    Z=              3.4180  Tot=              5.1654
 Quadrupole moment (field-independent basis, Debye-Ang):
   XX=           -111.9237   YY=            -89.6214   ZZ=            -95.1914
   XY=              7.7330   XZ=             -9.4922   YZ=              0.5108

 Normal termination of Gaussian 16 at Thu May  6 10:59:12 2021.
