 Gaussian 16, Revision A.03,
 Gaussian 16:  EM64L-G16RevA.03 25-Dec-2016

 -------------
 #p 6-31g* mp2
 -------------

 ------------------------------------------------------
 Input file generated by CHIRIPA (05-May-2021 14:51:09)
 ------------------------------------------------------
 Symbolic Z-matrix:
 Charge =  0 Multiplicity = 1

                         Standard orientation:
 ---------------------------------------------------------------------
 Center     Atomic      Atomic             Coordinates (Angstroms)
 Number     Number       Type             X           Y           Z
 ---------------------------------------------------------------------
      1          6           0        2.976449    0.718660   -0.346340
      2          6           0        2.869315    2.158386    0.157343
      3          6           0        1.540431    2.817204   -0.213899
      4          1           0        2.852937    0.708678   -1.437940
      5          1           0        2.146045    0.130020    0.067577
      6          1           0        3.700461    2.743806   -0.256295
      7          1           0        2.993287    2.164964    1.247849
      8          1           0        0.701006    2.257936    0.211761
      9          1           0        1.412197    2.840067   -1.300929
     10          1           0        1.485141    3.845805    0.155945
     11          6           0        4.299343    0.046595    0.016987
     12          6           0        4.406478   -1.393131   -0.486696
     13          6           0        5.735362   -2.051950   -0.115455
     14          1           0        5.129747    0.635235   -0.396930
     15          1           0        4.422855    0.056577    1.108586
     16          1           0        4.282505   -1.399709   -1.577203
     17          1           0        3.575332   -1.978551   -0.073059
     18          1           0        5.863595   -2.074813    0.971575
     19          1           0        6.574786   -1.492682   -0.541115
     20          1           0        5.790652   -3.080550   -0.485299
     21          6           0       -4.332260   -0.085768    0.279412
     22          6           0       -5.380524   -0.594909   -0.710489
     23          6           0       -6.764537    0.008052   -0.468123
     24          1           0       -4.660364   -0.316589    1.302159
     25          1           0       -4.273515    1.009256    0.209636
     26          1           0       -5.436289   -1.688764   -0.639851
     27          1           0       -5.049796   -0.363020   -1.731010
     28          1           0       -6.730881    1.098586   -0.558690
     29          1           0       -7.119571   -0.234690    0.538669
     30          1           0       -7.498445   -0.369581   -1.186895
     31          6           0       -2.943532   -0.679488    0.049943
     32          6           0       -1.895268   -0.170345    1.039843
     33          6           0       -0.511255   -0.773307    0.797477
     34          1           0       -3.002277   -1.774510    0.119718
     35          1           0       -2.615428   -0.448666   -0.972805
     36          1           0       -2.225996   -0.402235    2.060364
     37          1           0       -1.839504    0.923509    0.969205
     38          1           0       -0.156222   -0.530565   -0.209314
     39          1           0       -0.544911   -1.863841    0.888044
     40          1           0        0.222652   -0.395674    1.516249
 ---------------------------------------------------------------------

 SCF Done:  E(RHF) =  -470.732418322     A.U. after   11 cycles
 E2 =    -0.1583662353D+01 EUMP2 =    -0.47231608067526D+03

 The electronic state is 1-A.
 Alpha  occ. eigenvalues --  -11.21671 -11.21618 -11.21534 -11.21530 -11.21439
 Alpha  occ. eigenvalues --  -11.21377 -11.21294 -11.21172 -11.21145 -11.21082
 Alpha  occ. eigenvalues --  -11.21030 -11.21019  -1.08474  -1.08339  -1.03592
 Alpha  occ. eigenvalues --   -1.03455  -0.96041  -0.95910  -0.87078  -0.86919
 Alpha  occ. eigenvalues --   -0.79684  -0.79508  -0.78296  -0.78129  -0.65155
 Alpha  occ. eigenvalues --   -0.64949  -0.61097  -0.60776  -0.59425  -0.59247
 Alpha  occ. eigenvalues --   -0.57650  -0.57516  -0.55330  -0.55214  -0.52800
 Alpha  occ. eigenvalues --   -0.52609  -0.52471  -0.52306  -0.50046  -0.49823
 Alpha  occ. eigenvalues --   -0.47981  -0.47816  -0.46735  -0.46529  -0.45890
 Alpha  occ. eigenvalues --   -0.45752  -0.45672  -0.45430  -0.43765  -0.43698
 Alpha virt. eigenvalues --    0.20975   0.22943   0.23602   0.25171   0.26229
 Alpha virt. eigenvalues --    0.26416   0.26931   0.27358   0.28052   0.29438
 Alpha virt. eigenvalues --    0.30499   0.30891   0.31734   0.31756   0.32236

 Mulliken charges:
               1
     1  C   -0.309571
     2  C   -0.298580
     3  C   -0.480735
     4  H    0.147730
     5  H    0.163976
     6  H    0.151552
     7  H    0.150924
     8  H    0.160086
     9  H    0.154515
    10  H    0.159891
    11  C   -0.297345
    12  C   -0.299762
    13  C   -0.475595
    14  H    0.148872
    15  H    0.148822
    16  H    0.151600
    17  H    0.152314
    18  H    0.154990
    19  H    0.155024
    20  H    0.159980
    21  C   -0.298457
    22  C   -0.299699
    23  C   -0.475743
    24  H    0.149671
    25  H    0.149871
    26  H    0.151923
    27  H    0.152089
    28  H    0.155306
    29  H    0.155175
    30  H    0.160323
    31  C   -0.298759
    32  C   -0.302023
    33  C   -0.480628
    34  H    0.149653
    35  H    0.150372
    36  H    0.152249
    37  H    0.153788
    38  H    0.160006
    39  H    0.155701
    40  H    0.160491
 Sum of Mulliken charges =  -0.00000

 Dipole moment (field-independent basis, Debye):
    X=             -0.0756    Y=             -0.0362    Z=              0.0072  Tot=              0.0842
 Quadrupole moment (field-independent basis, Debye-Ang):
   XX=            -86.7827   YY=            -84.6833   ZZ=            -83.6699
   XY=              1.1691   XZ=             -0.5859   YZ=             -0.6868

 Normal termination of Gaussian 16 at Thu May  6 00:34:05 2021.
