 Gaussian 16, Revision A.03,
 Gaussian 16:  EM64L-G16RevA.03 25-Dec-2016

 -------------
 #p 6-31g* mp2
 -------------

 ------------------------------------------------------
 Input file generated by CHIRIPA (05-May-2021 14:51:08)
 ------------------------------------------------------
 Symbolic Z-matrix:
 Charge =  0 Multiplicity = 1

                         Standard orientation:
 ---------------------------------------------------------------------
 Center     Atomic      Atomic             Coordinates (Angstroms)
 Number     Number       Type             X           Y           Z
 ---------------------------------------------------------------------
      1          6           0       -2.297300   -0.353599   -0.958168
      2          6           0       -2.522210   -1.863071   -0.863844
      3          6           0       -1.688076   -2.649399   -1.875626
      4          1           0       -2.538524   -0.016225   -1.975486
      5          1           0       -1.231154   -0.138310   -0.802028
      6          1           0       -3.587841   -2.075328   -1.018742
      7          1           0       -2.280606   -2.196859    0.153421
      8          1           0       -0.619997   -2.466943   -1.719040
      9          1           0       -1.934660   -2.344722   -2.897863
     10          1           0       -1.864320   -3.726241   -1.790720
     11          6           0       -3.124258    0.446097    0.046995
     12          6           0       -2.899347    1.955568   -0.047329
     13          6           0       -3.733482    2.741897    0.964452
     14          1           0       -4.190403    0.230807   -0.109145
     15          1           0       -2.883034    0.108723    1.064313
     16          1           0       -3.140951    2.289357   -1.064594
     17          1           0       -1.833716    2.167826    0.107569
     18          1           0       -3.486898    2.437219    1.986690
     19          1           0       -4.801560    2.559441    0.807866
     20          1           0       -3.557237    3.818739    0.879547
     21          6           0        2.820795    0.548515   -0.010872
     22          6           0        4.206217    0.563694   -0.657682
     23          6           0        4.411165    1.759561   -1.588107
     24          1           0        2.055351    0.537245   -0.798853
     25          1           0        2.676315    1.481135    0.551924
     26          1           0        4.348579   -0.369284   -1.217952
     27          1           0        4.968454    0.574735    0.131931
     28          1           0        4.295904    2.699416   -1.038573
     29          1           0        3.672507    1.750034   -2.396126
     30          1           0        5.408092    1.750665   -2.039680
     31          6           0        2.600762   -0.641012    0.922046
     32          6           0        1.215340   -0.656192    1.568855
     33          6           0        1.010392   -1.852059    2.499280
     34          1           0        2.745243   -1.573633    0.359249
     35          1           0        3.366206   -0.629743    1.710026
     36          1           0        0.453103   -0.667233    0.779243
     37          1           0        1.072978    0.276786    2.129126
     38          1           0        1.749050   -1.842533    3.307298
     39          1           0        1.125654   -2.791915    1.949746
     40          1           0        0.013466   -1.843163    2.950853
 ---------------------------------------------------------------------

 SCF Done:  E(RHF) =  -470.733369054     A.U. after   11 cycles
 E2 =    -0.1583506745D+01 EUMP2 =    -0.47231687579890D+03

 The electronic state is 1-A.
 Alpha  occ. eigenvalues --  -11.21665 -11.21635 -11.21622 -11.21583 -11.21463
 Alpha  occ. eigenvalues --  -11.21405 -11.21403 -11.21345 -11.21142 -11.21116
 Alpha  occ. eigenvalues --  -11.21090 -11.21059  -1.08499  -1.08426  -1.03588
 Alpha  occ. eigenvalues --   -1.03531  -0.96028  -0.95989  -0.87046  -0.87004
 Alpha  occ. eigenvalues --   -0.79663  -0.79587  -0.78353  -0.78202  -0.65299
 Alpha  occ. eigenvalues --   -0.64922  -0.61099  -0.60811  -0.59395  -0.59356
 Alpha  occ. eigenvalues --   -0.57640  -0.57598  -0.55316  -0.55280  -0.52723
 Alpha  occ. eigenvalues --   -0.52683  -0.52459  -0.52410  -0.50013  -0.49904
 Alpha  occ. eigenvalues --   -0.48007  -0.47901  -0.46809  -0.46572  -0.46107
 Alpha  occ. eigenvalues --   -0.45793  -0.45761  -0.45306  -0.43836  -0.43791
 Alpha virt. eigenvalues --    0.19445   0.23131   0.23911   0.24608   0.25268
 Alpha virt. eigenvalues --    0.26416   0.26838   0.27917   0.28662   0.29781
 Alpha virt. eigenvalues --    0.30870   0.31589   0.31724   0.31936   0.32178

 Mulliken charges:
               1
     1  C   -0.304051
     2  C   -0.300688
     3  C   -0.475908
     4  H    0.150030
     5  H    0.153951
     6  H    0.152320
     7  H    0.153075
     8  H    0.154145
     9  H    0.155388
    10  H    0.160573
    11  C   -0.298290
    12  C   -0.300020
    13  C   -0.475731
    14  H    0.149558
    15  H    0.150005
    16  H    0.151770
    17  H    0.152838
    18  H    0.155182
    19  H    0.155067
    20  H    0.160219
    21  C   -0.299310
    22  C   -0.299679
    23  C   -0.475813
    24  H    0.149752
    25  H    0.149608
    26  H    0.152134
    27  H    0.152138
    28  H    0.155208
    29  H    0.155477
    30  H    0.160397
    31  C   -0.297813
    32  C   -0.309088
    33  C   -0.475387
    34  H    0.149541
    35  H    0.150069
    36  H    0.160462
    37  H    0.151819
    38  H    0.155621
    39  H    0.155613
    40  H    0.159816
 Sum of Mulliken charges =  -0.00000

 Dipole moment (field-independent basis, Debye):
    X=              0.0112    Y=              0.0007    Z=              0.0036  Tot=              0.0118
 Quadrupole moment (field-independent basis, Debye-Ang):
   XX=            -84.3946   YY=            -85.6294   ZZ=            -84.6443
   XY=              0.3062   XZ=              1.3911   YZ=              0.4735

 Normal termination of Gaussian 16 at Wed May  5 15:03:58 2021.
