 Gaussian 16, Revision A.03,
 Gaussian 16:  EM64L-G16RevA.03 25-Dec-2016

 -------------
 #p 6-31g* mp2
 -------------

 ------------------------------------------------------
 Input file generated by CHIRIPA (05-May-2021 14:57:21)
 ------------------------------------------------------
 Symbolic Z-matrix:
 Charge =  0 Multiplicity = 1

                         Standard orientation:
 ---------------------------------------------------------------------
 Center     Atomic      Atomic             Coordinates (Angstroms)
 Number     Number       Type             X           Y           Z
 ---------------------------------------------------------------------
      1          6           0        4.214993    2.058252   -0.884495
      2          6           0        5.090949    1.005468   -0.600120
      3          6           0        4.609704   -0.194706   -0.068582
      4          6           0        3.240472   -0.308295    0.167196
      5          6           0        2.342476    0.722476   -0.105578
      6          6           0        2.845966    1.913651   -0.636753
      7          1           0        4.597476    2.987081   -1.297265
      8          1           0        6.154637    1.114948   -0.791497
      9          1           0        5.265550   -1.025747    0.160886
     10          1           0        1.287241    0.583634    0.095969
     11          1           0        2.163351    2.729579   -0.856626
     12          7           0        2.719225   -1.574102    0.729720
     13          8           0        1.508621   -1.649093    0.928345
     14          8           0        3.531144   -2.467283    0.961348
     15          6           0       -3.275854    2.457743    0.821553
     16          6           0       -4.496432    1.790329    0.675714
     17          6           0       -4.536384    0.483627    0.180251
     18          6           0       -3.331264   -0.128295   -0.161111
     19          6           0       -2.099351    0.510277   -0.027300
     20          6           0       -2.083311    1.816716    0.470200
     21          1           0       -3.254107    3.472718    1.207233
     22          1           0       -5.424145    2.285684    0.947776
     23          1           0       -5.467355   -0.056346    0.057207
     24          1           0       -1.191090   -0.009586   -0.306982
     25          1           0       -1.133931    2.332597    0.582398
     26          7           0       -3.360902   -1.511503   -0.686714
     27          8           0       -2.285236   -2.028600   -0.980296
     28          8           0       -4.459237   -2.052373   -0.795147
 ---------------------------------------------------------------------

 SCF Done:  E(RHF) =  -868.335755276     A.U. after   16 cycles
 E2 =    -0.2600820965D+01 EUMP2 =    -0.87093657624075D+03

 The electronic state is 1-A.
 Alpha  occ. eigenvalues --  -20.60919 -20.60900 -20.60432 -20.60380 -15.85965
 Alpha  occ. eigenvalues --  -15.85470 -11.31547 -11.31074 -11.28262 -11.28067
 Alpha  occ. eigenvalues --  -11.27870 -11.27720 -11.27681 -11.27520 -11.27252
 Alpha  occ. eigenvalues --  -11.27121 -11.26860 -11.26733  -1.59973  -1.59482
 Alpha  occ. eigenvalues --   -1.39526  -1.39025  -1.19725  -1.19290  -1.09067
 Alpha  occ. eigenvalues --   -1.08643  -1.05179  -1.04752  -0.95878  -0.95433
 Alpha  occ. eigenvalues --   -0.86561  -0.86131  -0.82718  -0.82280  -0.77767
 Alpha  occ. eigenvalues --   -0.77258  -0.72178  -0.71684  -0.71294  -0.70855
 Alpha  occ. eigenvalues --   -0.70810  -0.70393  -0.65381  -0.65206  -0.64948
 Alpha  occ. eigenvalues --   -0.64779  -0.62651  -0.61996  -0.55644  -0.55241
 Alpha  occ. eigenvalues --   -0.53462  -0.53295  -0.53038  -0.52852  -0.48947
 Alpha  occ. eigenvalues --   -0.48930  -0.48473  -0.48419  -0.44877  -0.44378
 Alpha  occ. eigenvalues --   -0.37681  -0.37279  -0.36779  -0.36351
 Alpha virt. eigenvalues --    0.04812   0.05290   0.10864   0.11307   0.16284
 Alpha virt. eigenvalues --    0.16713   0.18208   0.22226   0.24623   0.26640
 Alpha virt. eigenvalues --    0.28011   0.29127   0.30928   0.31492   0.32010

 Mulliken charges:
               1
     1  C   -0.170468
     2  C   -0.218096
     3  C   -0.169098
     4  C    0.159563
     5  C   -0.173667
     6  C   -0.219945
     7  H    0.226478
     8  H    0.225302
     9  H    0.277919
    10  H    0.272582
    11  H    0.219073
    12  N    0.488051
    13  O   -0.459472
    14  O   -0.457439
    15  C   -0.170478
    16  C   -0.218909
    17  C   -0.169652
    18  C    0.160267
    19  C   -0.176209
    20  C   -0.219237
    21  H    0.224072
    22  H    0.223386
    23  H    0.276425
    24  H    0.284563
    25  H    0.212380
    26  N    0.487493
    27  O   -0.452582
    28  O   -0.462302
 Sum of Mulliken charges =  -0.00000

 Dipole moment (field-independent basis, Debye):
    X=              2.0790    Y=              9.0662    Z=             -0.1413  Tot=              9.3026
 Quadrupole moment (field-independent basis, Debye-Ang):
   XX=            -83.1965   YY=           -109.3960   ZZ=           -107.7639
   XY=             -4.2540   XZ=            -12.9642   YZ=              0.2348

 Normal termination of Gaussian 16 at Thu May  6 08:03:58 2021.
