 Gaussian 16, Revision A.03,
 Gaussian 16:  EM64L-G16RevA.03 25-Dec-2016

 -------------
 #p 6-31g* mp2
 -------------

 ------------------------------------------------------
 Input file generated by CHIRIPA (05-May-2021 14:51:07)
 ------------------------------------------------------
 Symbolic Z-matrix:
 Charge =  0 Multiplicity = 1

                         Standard orientation:
 ---------------------------------------------------------------------
 Center     Atomic      Atomic             Coordinates (Angstroms)
 Number     Number       Type             X           Y           Z
 ---------------------------------------------------------------------
      1          6           0       -2.076627   -0.174385   -0.194158
      2          6           0       -3.139776   -1.270776   -0.269154
      3          6           0       -2.549181   -2.646731   -0.578574
      4          1           0       -1.531619   -0.135154   -1.147244
      5          1           0       -1.339806   -0.439908    0.576547
      6          1           0       -3.875135   -1.002590   -1.038530
      7          1           0       -3.682445   -1.307273    0.684153
      8          1           0       -1.830265   -2.939821    0.193345
      9          1           0       -2.024050   -2.633406   -1.539126
     10          1           0       -3.326624   -3.415523   -0.627586
     11          6           0       -2.651570    1.206893    0.114452
     12          6           0       -1.588421    2.303285    0.189448
     13          6           0       -2.179016    3.679239    0.498868
     14          1           0       -3.388391    1.472416   -0.656253
     15          1           0       -3.196578    1.167662    1.067538
     16          1           0       -1.045752    2.339781   -0.763859
     17          1           0       -0.853062    2.035098    0.958825
     18          1           0       -2.704147    3.665914    1.459421
     19          1           0       -2.897932    3.972329   -0.273051
     20          1           0       -1.401574    4.448031    0.547881
     21          6           0        2.254079   -1.126062    0.486465
     22          6           0        1.358310   -2.189665   -0.149406
     23          6           0        1.147599   -3.403456    0.756191
     24          1           0        3.226223   -1.574349    0.733284
     25          1           0        1.808706   -0.802325    1.437377
     26          1           0        1.804534   -2.510299   -1.099508
     27          1           0        0.388253   -1.738745   -0.394914
     28          1           0        0.680712   -3.103552    1.699947
     29          1           0        2.105040   -3.879490    0.991350
     30          1           0        0.504317   -4.151266    0.282030
     31          6           0        2.474119    0.093554   -0.406760
     32          6           0        3.369886    1.157157    0.229112
     33          6           0        3.580598    2.370948   -0.676486
     34          1           0        2.919491   -0.230183   -1.357671
     35          1           0        1.501974    0.541841   -0.653578
     36          1           0        4.339945    0.706237    0.474620
     37          1           0        2.923664    1.477791    1.179214
     38          1           0        2.623157    2.846982   -0.911644
     39          1           0        4.047485    2.071044   -1.620242
     40          1           0        4.223879    3.118758   -0.202325
 ---------------------------------------------------------------------

 SCF Done:  E(RHF) =  -470.731844392     A.U. after   11 cycles
 E2 =    -0.1585796302D+01 EUMP2 =    -0.47231764069366D+03

 The electronic state is 1-A.
 Alpha  occ. eigenvalues --  -11.21718 -11.21672 -11.21543 -11.21509 -11.21449
 Alpha  occ. eigenvalues --  -11.21371 -11.21305 -11.21249 -11.21151 -11.21058
 Alpha  occ. eigenvalues --  -11.21027 -11.21001  -1.08561  -1.08318  -1.03649
 Alpha  occ. eigenvalues --   -1.03416  -0.96083  -0.95887  -0.87106  -0.86898
 Alpha  occ. eigenvalues --   -0.79743  -0.79478  -0.78524  -0.78003  -0.65237
 Alpha  occ. eigenvalues --   -0.64916  -0.61128  -0.60804  -0.59487  -0.59203
 Alpha  occ. eigenvalues --   -0.57802  -0.57398  -0.55412  -0.55133  -0.52751
 Alpha  occ. eigenvalues --   -0.52660  -0.52524  -0.52239  -0.50076  -0.49764
 Alpha  occ. eigenvalues --   -0.48123  -0.47736  -0.46717  -0.46693  -0.46268
 Alpha  occ. eigenvalues --   -0.45805  -0.45660  -0.44941  -0.43871  -0.43689
 Alpha virt. eigenvalues --    0.20340   0.22076   0.23625   0.24448   0.25525
 Alpha virt. eigenvalues --    0.25904   0.26577   0.28296   0.28625   0.30335
 Alpha virt. eigenvalues --    0.30625   0.30907   0.31705   0.31913   0.32407

 Mulliken charges:
               1
     1  C   -0.304749
     2  C   -0.298751
     3  C   -0.483034
     4  H    0.151262
     5  H    0.152444
     6  H    0.152081
     7  H    0.151960
     8  H    0.163527
     9  H    0.155770
    10  H    0.160354
    11  C   -0.297176
    12  C   -0.301533
    13  C   -0.475860
    14  H    0.150028
    15  H    0.149998
    16  H    0.152623
    17  H    0.152143
    18  H    0.155511
    19  H    0.155597
    20  H    0.160699
    21  C   -0.297312
    22  C   -0.311610
    23  C   -0.478066
    24  H    0.149157
    25  H    0.147619
    26  H    0.150628
    27  H    0.167589
    28  H    0.152729
    29  H    0.155565
    30  H    0.161857
    31  C   -0.302319
    32  C   -0.299148
    33  C   -0.475949
    34  H    0.148899
    35  H    0.154056
    36  H    0.151721
    37  H    0.151424
    38  H    0.155389
    39  H    0.154926
    40  H    0.159947
 Sum of Mulliken charges =  -0.00000

 Dipole moment (field-independent basis, Debye):
    X=             -0.0951    Y=              0.0143    Z=             -0.0193  Tot=              0.0981
 Quadrupole moment (field-independent basis, Debye-Ang):
   XX=            -84.3425   YY=            -86.5735   ZZ=            -83.9781
   XY=             -0.2982   XZ=             -0.0712   YZ=              0.3219

 Normal termination of Gaussian 16 at Wed May  5 22:53:21 2021.
