 Gaussian 16, Revision A.03,
 Gaussian 16:  EM64L-G16RevA.03 25-Dec-2016

 -------------
 #p 6-31g* mp2
 -------------

 ------------------------------------------------------
 Input file generated by CHIRIPA (05-May-2021 14:51:13)
 ------------------------------------------------------
 Symbolic Z-matrix:
 Charge =  0 Multiplicity = 1

                         Standard orientation:
 ---------------------------------------------------------------------
 Center     Atomic      Atomic             Coordinates (Angstroms)
 Number     Number       Type             X           Y           Z
 ---------------------------------------------------------------------
      1          6           0        2.368259   -0.699113    0.518373
      2          6           0        2.208781   -2.076989   -0.125063
      3          6           0        1.516886   -3.082796    0.795495
      4          1           0        2.941776   -0.800627    1.449887
      5          1           0        1.377495   -0.317385    0.801331
      6          1           0        3.199426   -2.455402   -0.407979
      7          1           0        1.635741   -1.972155   -1.055252
      8          1           0        0.516687   -2.730844    1.068138
      9          1           0        2.089257   -3.216836    1.719089
     10          1           0        1.413224   -4.060976    0.315624
     11          6           0        3.058248    0.317327   -0.389643
     12          6           0        3.217727    1.695203    0.253793
     13          6           0        3.909622    2.701010   -0.666765
     14          1           0        4.049013   -0.064401   -0.672602
     15          1           0        2.484731    0.418841   -1.321157
     16          1           0        3.790767    1.590370    1.183982
     17          1           0        2.227082    2.073616    0.536709
     18          1           0        3.337251    2.835050   -1.590359
     19          1           0        4.909820    2.349058   -0.939408
     20          1           0        4.013284    3.679190   -0.186894
     21          6           0       -2.916067   -0.458986   -0.410711
     22          6           0       -2.069049   -1.660367    0.010276
     23          6           0       -2.486859   -2.953120   -0.691163
     24          1           0       -3.972539   -0.669758   -0.195329
     25          1           0       -2.838997   -0.328167   -1.498986
     26          1           0       -2.146593   -1.788040    1.097613
     27          1           0       -1.014451   -1.446633   -0.205957
     28          1           0       -2.392390   -2.850111   -1.777011
     29          1           0       -3.530964   -3.193456   -0.466034
     30          1           0       -1.868341   -3.799100   -0.375547
     31          6           0       -2.510440    0.840772    0.281982
     32          6           0       -3.357459    2.042152   -0.139005
     33          6           0       -2.939649    3.334906    0.562433
     34          1           0       -2.587512    0.709953    1.370256
     35          1           0       -1.453970    1.051544    0.066599
     36          1           0       -4.412057    1.828419    0.077227
     37          1           0       -3.279915    2.169826   -1.226343
     38          1           0       -1.895543    3.575243    0.337304
     39          1           0       -3.034118    3.231897    1.648280
     40          1           0       -3.558168    4.180886    0.246817
 ---------------------------------------------------------------------

 SCF Done:  E(RHF) =  -470.732810907     A.U. after   11 cycles
 E2 =    -0.1584094482D+01 EUMP2 =    -0.47231690538864D+03

 The electronic state is 1-A.
 Alpha  occ. eigenvalues --  -11.21654 -11.21649 -11.21620 -11.21599 -11.21470
 Alpha  occ. eigenvalues --  -11.21416 -11.21408 -11.21354 -11.21113 -11.21094
 Alpha  occ. eigenvalues --  -11.21088 -11.20969  -1.08509  -1.08424  -1.03626
 Alpha  occ. eigenvalues --   -1.03489  -0.96057  -0.95943  -0.87041  -0.86990
 Alpha  occ. eigenvalues --   -0.79701  -0.79558  -0.78365  -0.78204  -0.65285
 Alpha  occ. eigenvalues --   -0.64938  -0.61203  -0.60770  -0.59374  -0.59341
 Alpha  occ. eigenvalues --   -0.57705  -0.57542  -0.55366  -0.55165  -0.52739
 Alpha  occ. eigenvalues --   -0.52650  -0.52438  -0.52394  -0.49969  -0.49910
 Alpha  occ. eigenvalues --   -0.48110  -0.47779  -0.46701  -0.46619  -0.46083
 Alpha  occ. eigenvalues --   -0.45791  -0.45753  -0.45409  -0.43851  -0.43763
 Alpha virt. eigenvalues --    0.19993   0.22685   0.23542   0.24875   0.25608
 Alpha virt. eigenvalues --    0.26260   0.26922   0.27210   0.28955   0.30058
 Alpha virt. eigenvalues --    0.30424   0.30808   0.31442   0.31824   0.32352

 Mulliken charges:
               1
     1  C   -0.302064
     2  C   -0.300586
     3  C   -0.482518
     4  H    0.150077
     5  H    0.152161
     6  H    0.152438
     7  H    0.151345
     8  H    0.164438
     9  H    0.154640
    10  H    0.159427
    11  C   -0.298003
    12  C   -0.299740
    13  C   -0.475708
    14  H    0.149737
    15  H    0.148893
    16  H    0.152230
    17  H    0.151692
    18  H    0.154944
    19  H    0.155304
    20  H    0.160409
    21  C   -0.297559
    22  C   -0.307257
    23  C   -0.477126
    24  H    0.150004
    25  H    0.149472
    26  H    0.151720
    27  H    0.158918
    28  H    0.155001
    29  H    0.155436
    30  H    0.162699
    31  C   -0.299558
    32  C   -0.299686
    33  C   -0.475714
    34  H    0.149823
    35  H    0.149490
    36  H    0.152322
    37  H    0.152012
    38  H    0.154980
    39  H    0.155383
    40  H    0.160523
 Sum of Mulliken charges =  -0.00000

 Dipole moment (field-independent basis, Debye):
    X=             -0.0311    Y=             -0.0017    Z=              0.0130  Tot=              0.0337
 Quadrupole moment (field-independent basis, Debye-Ang):
   XX=            -83.7464   YY=            -86.4192   ZZ=            -84.5501
   XY=             -0.6498   XZ=              0.0320   YZ=             -0.2243

 Normal termination of Gaussian 16 at Wed May  5 18:22:29 2021.
