 Gaussian 16, Revision A.03,
 Gaussian 16:  EM64L-G16RevA.03 25-Dec-2016

 -------------
 #p 6-31g* mp2
 -------------

 ------------------------------------------------------
 Input file generated by CHIRIPA (05-May-2021 14:51:12)
 ------------------------------------------------------
 Symbolic Z-matrix:
 Charge =  0 Multiplicity = 1

                         Standard orientation:
 ---------------------------------------------------------------------
 Center     Atomic      Atomic             Coordinates (Angstroms)
 Number     Number       Type             X           Y           Z
 ---------------------------------------------------------------------
      1          6           0        4.677121   -0.439691   -0.297035
      2          6           0        5.826535   -0.973118    0.558703
      3          6           0        6.565273   -2.136959   -0.102763
      4          1           0        3.970604   -1.255959   -0.500717
      5          1           0        5.072526   -0.118323   -1.270571
      6          1           0        5.429293   -1.292102    1.530847
      7          1           0        6.530300   -0.155440    0.760532
      8          1           0        6.988533   -1.828064   -1.064030
      9          1           0        5.881271   -2.971184   -0.289338
     10          1           0        7.382930   -2.502789    0.526097
     11          6           0        3.928966    0.724044    0.350818
     12          6           0        2.779552    1.257471   -0.504920
     13          6           0        2.040814    2.421312    0.156546
     14          1           0        3.533561    0.402676    1.324354
     15          1           0        4.635483    1.540312    0.554500
     16          1           0        2.075788    0.439794   -0.706749
     17          1           0        3.176794    1.576455   -1.477064
     18          1           0        2.724816    3.255537    0.343122
     19          1           0        1.617554    2.112417    1.117813
     20          1           0        1.223157    2.787143   -0.472314
     21          6           0       -4.873489   -0.621202   -0.195882
     22          6           0       -6.212472   -0.209847    0.417220
     23          6           0       -7.343869   -1.177987    0.070176
     24          1           0       -4.981413   -0.685166   -1.287307
     25          1           0       -4.613393   -1.630461    0.152173
     26          1           0       -6.469294    0.798886    0.069206
     27          1           0       -6.101299   -0.146669    1.507296
     28          1           0       -7.113557   -2.185262    0.432053
     29          1           0       -7.483643   -1.234334   -1.014208
     30          1           0       -8.291883   -0.864897    0.518624
     31          6           0       -3.732598    0.336850    0.142100
     32          6           0       -2.393615   -0.074506   -0.471004
     33          6           0       -1.262217    0.893633   -0.123959
     34          1           0       -3.992694    1.346107   -0.205956
     35          1           0       -3.624675    0.400813    1.233524
     36          1           0       -2.504789   -0.137683   -1.561079
     37          1           0       -2.136793   -1.083240   -0.122989
     38          1           0       -1.122444    0.949980    0.960425
     39          1           0       -1.492530    1.900908   -0.485837
     40          1           0       -0.314204    0.580543   -0.572407
 ---------------------------------------------------------------------

 SCF Done:  E(RHF) =  -470.732507571     A.U. after   11 cycles
 E2 =    -0.1583170197D+01 EUMP2 =    -0.47231567776867D+03

 The electronic state is 1-A.
 Alpha  occ. eigenvalues --  -11.21596 -11.21589 -11.21571 -11.21559 -11.21394
 Alpha  occ. eigenvalues --  -11.21382 -11.21334 -11.21322 -11.21068 -11.21062
 Alpha  occ. eigenvalues --  -11.21007 -11.20928  -1.08428  -1.08394  -1.03564
 Alpha  occ. eigenvalues --   -1.03448  -0.96058  -0.95846  -0.87080  -0.86855
 Alpha  occ. eigenvalues --   -0.79607  -0.79536  -0.78232  -0.78222  -0.65063
 Alpha  occ. eigenvalues --   -0.65035  -0.60993  -0.60896  -0.59535  -0.59106
 Alpha  occ. eigenvalues --   -0.57675  -0.57439  -0.55315  -0.55183  -0.52824
 Alpha  occ. eigenvalues --   -0.52501  -0.52366  -0.52264  -0.49947  -0.49830
 Alpha  occ. eigenvalues --   -0.47964  -0.47829  -0.46626  -0.46563  -0.45783
 Alpha  occ. eigenvalues --   -0.45759  -0.45698  -0.45668  -0.43774  -0.43689
 Alpha virt. eigenvalues --    0.21814   0.23035   0.23514   0.24993   0.26410
 Alpha virt. eigenvalues --    0.26524   0.26846   0.27256   0.27769   0.29268
 Alpha virt. eigenvalues --    0.29932   0.30136   0.31481   0.32169   0.32548

 Mulliken charges:
               1
     1  C   -0.298375
     2  C   -0.299618
     3  C   -0.475693
     4  H    0.149481
     5  H    0.149480
     6  H    0.151874
     7  H    0.151956
     8  H    0.155166
     9  H    0.155120
    10  H    0.160206
    11  C   -0.297746
    12  C   -0.304511
    13  C   -0.476333
    14  H    0.149498
    15  H    0.149724
    16  H    0.154009
    17  H    0.151753
    18  H    0.154117
    19  H    0.156342
    20  H    0.163268
    21  C   -0.298162
    22  C   -0.299591
    23  C   -0.475685
    24  H    0.149603
    25  H    0.149396
    26  H    0.151928
    27  H    0.151898
    28  H    0.155136
    29  H    0.155166
    30  H    0.160234
    31  C   -0.298592
    32  C   -0.300504
    33  C   -0.479062
    34  H    0.149499
    35  H    0.149493
    36  H    0.151641
    37  H    0.151268
    38  H    0.154878
    39  H    0.154708
    40  H    0.167030
 Sum of Mulliken charges =  -0.00000

 Dipole moment (field-independent basis, Debye):
    X=              0.0000    Y=              0.0164    Z=              0.0018  Tot=              0.0165
 Quadrupole moment (field-independent basis, Debye-Ang):
   XX=            -85.7757   YY=            -85.1491   ZZ=            -84.0321
   XY=              0.2558   XZ=             -0.0356   YZ=             -1.1809

 Normal termination of Gaussian 16 at Thu May  6 00:43:39 2021.
