 Gaussian 16, Revision A.03,
 Gaussian 16:  EM64L-G16RevA.03 25-Dec-2016

 -------------
 #p 6-31g* mp2
 -------------

 ------------------------------------------------------
 Input file generated by CHIRIPA (05-May-2021 14:55:21)
 ------------------------------------------------------
 Symbolic Z-matrix:
 Charge =  0 Multiplicity = 1

                         Standard orientation:
 ---------------------------------------------------------------------
 Center     Atomic      Atomic             Coordinates (Angstroms)
 Number     Number       Type             X           Y           Z
 ---------------------------------------------------------------------
      1          6           0       -4.146869   -1.251286    0.467394
      2          6           0       -3.738360   -1.003921   -0.847312
      3          6           0       -2.806089    0.000486   -1.124056
      4          6           0       -2.300517    0.741729   -0.057170
      5          6           0       -2.687760    0.519237    1.263372
      6          6           0       -3.621192   -0.490259    1.516690
      7          1           0       -4.871531   -2.033510    0.673276
      8          1           0       -4.144927   -1.593373   -1.664193
      9          1           0       -2.472395    0.213133   -2.132444
     10          1           0       -2.264763    1.123387    2.056779
     11          1           0       -3.936617   -0.680149    2.538695
     12          7           0       -1.312948    1.807743   -0.337746
     13          8           0       -0.882491    2.446802    0.619828
     14          8           0       -0.988049    1.984040   -1.509922
     15          6           0        2.460369   -0.900168    0.283890
     16          6           0        1.647218   -1.784318   -0.662181
     17          6           0        0.263931   -2.127127   -0.108293
     18          1           0        2.567173   -1.410162    1.251074
     19          1           0        1.902576    0.026234    0.478933
     20          1           0        2.207000   -2.708172   -0.856478
     21          1           0        1.542502   -1.272242   -1.627287
     22          1           0       -0.316758   -1.216060    0.068789
     23          1           0        0.351517   -2.660148    0.843977
     24          1           0       -0.300229   -2.759827   -0.800590
     25          6           0        3.845628   -0.548886   -0.255916
     26          6           0        4.658779    0.335264    0.690155
     27          6           0        6.042066    0.678074    0.136266
     28          1           0        4.403420   -1.475288   -0.450959
     29          1           0        3.738824   -0.038892   -1.223099
     30          1           0        4.763494   -0.176811    1.655261
     31          1           0        4.098996    1.259119    0.884453
     32          1           0        5.954479    1.211095   -0.816004
     33          1           0        6.622754   -0.232993   -0.040815
     34          1           0        6.606224    1.310774    0.828564
 ---------------------------------------------------------------------

 SCF Done:  E(RHF) =  -669.534717573     A.U. after   15 cycles
 E2 =    -0.2093390071D+01 EUMP2 =    -0.67162810764389D+03

 The electronic state is 1-A.
 Alpha  occ. eigenvalues --  -20.60879 -20.60871 -15.85921 -11.31198 -11.27806
 Alpha  occ. eigenvalues --  -11.27790 -11.27557 -11.26818 -11.26806 -11.21239
 Alpha  occ. eigenvalues --  -11.21032 -11.20893 -11.20844 -11.20823 -11.20568
 Alpha  occ. eigenvalues --   -1.59954  -1.39506  -1.19425  -1.08826  -1.07949
 Alpha  occ. eigenvalues --   -1.04809  -1.03109  -0.95670  -0.95564  -0.86596
 Alpha  occ. eigenvalues --   -0.86211  -0.82492  -0.79173  -0.77751  -0.77544
 Alpha  occ. eigenvalues --   -0.72139  -0.71300  -0.70523  -0.65068  -0.64814
 Alpha  occ. eigenvalues --   -0.64568  -0.62156  -0.60527  -0.58951  -0.57196
 Alpha  occ. eigenvalues --   -0.55319  -0.55024  -0.53224  -0.52901  -0.52249
 Alpha  occ. eigenvalues --   -0.51893  -0.49449  -0.48899  -0.48897  -0.47482
 Alpha  occ. eigenvalues --   -0.46176  -0.45301  -0.45203  -0.44897  -0.43347
 Alpha  occ. eigenvalues --   -0.37335  -0.36394
 Alpha virt. eigenvalues --    0.04966   0.11218   0.16454   0.21374   0.23224
 Alpha virt. eigenvalues --    0.24584   0.27022   0.27274   0.27914   0.28294
 Alpha virt. eigenvalues --    0.28361   0.30827   0.31708   0.32084   0.32274

 Mulliken charges:
               1
     1  C   -0.170422
     2  C   -0.215537
     3  C   -0.169854
     4  C    0.154806
     5  C   -0.172274
     6  C   -0.216054
     7  H    0.226001
     8  H    0.223653
     9  H    0.275385
    10  H    0.275833
    11  H    0.223812
    12  N    0.489818
    13  O   -0.460861
    14  O   -0.460701
    15  C   -0.300505
    16  C   -0.300432
    17  C   -0.477428
    18  H    0.146249
    19  H    0.157554
    20  H    0.149330
    21  H    0.155561
    22  H    0.158086
    23  H    0.152189
    24  H    0.154546
    25  C   -0.298243
    26  C   -0.300718
    27  C   -0.475675
    28  H    0.146383
    29  H    0.153288
    30  H    0.149216
    31  H    0.158224
    32  H    0.156530
    33  H    0.152833
    34  H    0.159407
 Sum of Mulliken charges =  -0.00000

 Dipole moment (field-independent basis, Debye):
    X=             -3.5962    Y=             -3.6446    Z=              0.9764  Tot=              5.2124
 Quadrupole moment (field-independent basis, Debye-Ang):
   XX=            -80.3988   YY=           -100.5833   ZZ=            -89.9734
   XY=              6.0655   XZ=             -1.5353   YZ=              1.8554

 Normal termination of Gaussian 16 at Wed May  5 22:15:01 2021.
