 Gaussian 16, Revision A.03,
 Gaussian 16:  EM64L-G16RevA.03 25-Dec-2016

 -------------
 #p 6-31g* mp2
 -------------

 ------------------------------------------------------
 Input file generated by CHIRIPA (05-May-2021 14:51:12)
 ------------------------------------------------------
 Symbolic Z-matrix:
 Charge =  0 Multiplicity = 1

                         Standard orientation:
 ---------------------------------------------------------------------
 Center     Atomic      Atomic             Coordinates (Angstroms)
 Number     Number       Type             X           Y           Z
 ---------------------------------------------------------------------
      1          6           0       -3.286649   -0.366440   -0.011770
      2          6           0       -4.052230   -1.402294   -0.835710
      3          6           0       -4.445751   -2.633598   -0.019116
      4          1           0       -2.384977   -0.834007    0.406935
      5          1           0       -3.904717   -0.058513    0.842962
      6          1           0       -3.433456   -1.707150   -1.689406
      7          1           0       -4.952085   -0.932155   -1.252660
      8          1           0       -5.083762   -2.349025    0.823831
      9          1           0       -3.556505   -3.128424    0.384603
     10          1           0       -4.991997   -3.361081   -0.627593
     11          6           0       -2.886319    0.870268   -0.814277
     12          6           0       -2.120737    1.906122    0.009663
     13          6           0       -1.727217    3.137426   -0.806931
     14          1           0       -2.268250    0.562341   -1.669009
     15          1           0       -3.787991    1.337835   -1.232982
     16          1           0       -1.220883    1.435982    0.426612
     17          1           0       -2.739512    2.210978    0.863358
     18          1           0       -2.616463    3.632252   -1.210651
     19          1           0       -1.089205    2.852853   -1.649878
     20          1           0       -1.180971    3.864909   -0.198455
     21          6           0        3.449927   -0.687612   -0.098355
     22          6           0        4.653490    0.004824   -0.738632
     23          6           0        5.370206   -0.879489   -1.759466
     24          1           0        3.783993   -1.614453    0.387763
     25          1           0        2.744539   -0.984837   -0.886695
     26          1           0        5.355750    0.301888    0.050798
     27          1           0        4.316551    0.930222   -1.223118
     28          1           0        4.688775   -1.165342   -2.567265
     29          1           0        5.733879   -1.797248   -1.286112
     30          1           0        6.227326   -0.364840   -2.204821
     31          6           0        2.723041    0.183784    0.924402
     32          6           0        1.519478   -0.508652    1.564679
     33          6           0        0.802761    0.375661    2.585513
     34          1           0        3.428429    0.481009    1.712742
     35          1           0        2.388976    1.110625    0.438285
     36          1           0        1.856416   -1.434051    2.049166
     37          1           0        0.817217   -0.805715    0.775250
     38          1           0        0.439089    1.293419    2.112159
     39          1           0        1.484192    0.661515    3.393314
     40          1           0       -0.054358   -0.138988    3.030869
 ---------------------------------------------------------------------

 SCF Done:  E(RHF) =  -470.733191759     A.U. after   11 cycles
 E2 =    -0.1583135213D+01 EUMP2 =    -0.47231632697138D+03

 The electronic state is 1-A.
 Alpha  occ. eigenvalues --  -11.21661 -11.21628 -11.21610 -11.21579 -11.21444
 Alpha  occ. eigenvalues --  -11.21415 -11.21385 -11.21356 -11.21099 -11.21093
 Alpha  occ. eigenvalues --  -11.21075 -11.21067  -1.08478  -1.08432  -1.03585
 Alpha  occ. eigenvalues --   -1.03522  -0.96015  -0.95987  -0.87040  -0.86992
 Alpha  occ. eigenvalues --   -0.79670  -0.79563  -0.78283  -0.78253  -0.65225
 Alpha  occ. eigenvalues --   -0.64969  -0.61142  -0.60783  -0.59376  -0.59358
 Alpha  occ. eigenvalues --   -0.57666  -0.57558  -0.55347  -0.55244  -0.52710
 Alpha  occ. eigenvalues --   -0.52673  -0.52448  -0.52401  -0.50062  -0.49857
 Alpha  occ. eigenvalues --   -0.48019  -0.47846  -0.46771  -0.46499  -0.45904
 Alpha  occ. eigenvalues --   -0.45765  -0.45731  -0.45607  -0.43817  -0.43793
 Alpha virt. eigenvalues --    0.20041   0.23229   0.23711   0.24460   0.26127
 Alpha virt. eigenvalues --    0.26625   0.27009   0.27484   0.28214   0.29309
 Alpha virt. eigenvalues --    0.30498   0.31357   0.31681   0.31794   0.32143

 Mulliken charges:
               1
     1  C   -0.300052
     2  C   -0.299587
     3  C   -0.475759
     4  H    0.150985
     5  H    0.149748
     6  H    0.151774
     7  H    0.152043
     8  H    0.155210
     9  H    0.155275
    10  H    0.160281
    11  C   -0.297529
    12  C   -0.307909
    13  C   -0.475761
    14  H    0.148824
    15  H    0.149704
    16  H    0.160833
    17  H    0.152123
    18  H    0.155552
    19  H    0.154599
    20  H    0.159980
    21  C   -0.298263
    22  C   -0.299720
    23  C   -0.475723
    24  H    0.149771
    25  H    0.149202
    26  H    0.152059
    27  H    0.152070
    28  H    0.155126
    29  H    0.155225
    30  H    0.160392
    31  C   -0.298427
    32  C   -0.302250
    33  C   -0.479191
    34  H    0.149957
    35  H    0.149689
    36  H    0.152507
    37  H    0.151954
    38  H    0.158772
    39  H    0.155547
    40  H    0.160968
 Sum of Mulliken charges =  -0.00000

 Dipole moment (field-independent basis, Debye):
    X=              0.0074    Y=              0.0031    Z=              0.0210  Tot=              0.0225
 Quadrupole moment (field-independent basis, Debye-Ang):
   XX=            -84.0875   YY=            -85.6524   ZZ=            -84.9599
   XY=             -0.6429   XZ=              0.8461   YZ=             -0.0958

 Normal termination of Gaussian 16 at Thu May  6 07:04:19 2021.
