 Gaussian 16, Revision A.03,
 Gaussian 16:  EM64L-G16RevA.03 25-Dec-2016

 -------------
 #p 6-31g* mp2
 -------------

 ------------------------------------------------------
 Input file generated by CHIRIPA (05-May-2021 14:57:26)
 ------------------------------------------------------
 Symbolic Z-matrix:
 Charge =  0 Multiplicity = 1

                         Standard orientation:
 ---------------------------------------------------------------------
 Center     Atomic      Atomic             Coordinates (Angstroms)
 Number     Number       Type             X           Y           Z
 ---------------------------------------------------------------------
      1          6           0        1.961819   -1.579348    0.825858
      2          6           0        2.022641   -1.196489   -0.518106
      3          6           0        3.111667   -0.463443   -0.998954
      4          6           0        4.126830   -0.128775   -0.104117
      5          6           0        4.095088   -0.495540    1.240414
      6          6           0        2.996412   -1.228270    1.699289
      7          1           0        1.112089   -2.148673    1.190858
      8          1           0        1.220607   -1.467741   -1.198701
      9          1           0        3.184216   -0.154087   -2.034547
     10          1           0        4.909826   -0.210408    1.894876
     11          1           0        2.951846   -1.524246    2.743539
     12          7           0        5.284841    0.647101   -0.601538
     13          8           0        6.166341    0.929504    0.207067
     14          8           0        5.289062    0.958137   -1.790604
     15          6           0       -1.702482    1.233336    0.672912
     16          6           0       -2.866207    1.998014    0.805320
     17          6           0       -4.109145    1.467108    0.447837
     18          6           0       -4.151902    0.162226   -0.040778
     19          6           0       -3.010227   -0.624713   -0.184284
     20          6           0       -1.778072   -0.073283    0.179402
     21          1           0       -0.741126    1.653730    0.953023
     22          1           0       -2.810514    3.013035    1.188302
     23          1           0       -5.025744    2.036972    0.540122
     24          1           0       -3.097473   -1.633551   -0.569061
     25          1           0       -0.875951   -0.669461    0.075500
     26          7           0       -5.462036   -0.410685   -0.422513
     27          8           0       -5.472918   -1.562808   -0.850448
     28          8           0       -6.453229    0.303240   -0.286554
 ---------------------------------------------------------------------

 SCF Done:  E(RHF) =  -868.336764028     A.U. after   16 cycles
 E2 =    -0.2600666684D+01 EUMP2 =    -0.87093743071151D+03

 The electronic state is 1-A.
 Alpha  occ. eigenvalues --  -20.61499 -20.61494 -20.61220 -20.61210 -15.86559
 Alpha  occ. eigenvalues --  -15.86276 -11.32116 -11.31717 -11.28715 -11.28676
 Alpha  occ. eigenvalues --  -11.28539 -11.28363 -11.28276 -11.28040 -11.27830
 Alpha  occ. eigenvalues --  -11.27727 -11.27389 -11.27270  -1.60571  -1.60292
 Alpha  occ. eigenvalues --   -1.40118  -1.39844  -1.20322  -1.19906  -1.09702
 Alpha  occ. eigenvalues --   -1.09275  -1.05742  -1.05337  -0.96491  -0.96095
 Alpha  occ. eigenvalues --   -0.87167  -0.86708  -0.83302  -0.82944  -0.78318
 Alpha  occ. eigenvalues --   -0.77981  -0.72772  -0.72492  -0.71899  -0.71618
 Alpha  occ. eigenvalues --   -0.71449  -0.70985  -0.66030  -0.65862  -0.65558
 Alpha  occ. eigenvalues --   -0.65226  -0.63098  -0.62641  -0.56275  -0.55789
 Alpha  occ. eigenvalues --   -0.54123  -0.53849  -0.53640  -0.53356  -0.49547
 Alpha  occ. eigenvalues --   -0.49514  -0.49256  -0.49242  -0.45480  -0.45233
 Alpha  occ. eigenvalues --   -0.38338  -0.37876  -0.37340  -0.36945
 Alpha virt. eigenvalues --    0.04199   0.04576   0.10097   0.10698   0.15624
 Alpha virt. eigenvalues --    0.16037   0.19010   0.21825   0.25180   0.26871
 Alpha virt. eigenvalues --    0.27813   0.28544   0.29932   0.30710   0.31769

 Mulliken charges:
               1
     1  C   -0.176117
     2  C   -0.223975
     3  C   -0.170835
     4  C    0.158568
     5  C   -0.170407
     6  C   -0.219157
     7  H    0.225860
     8  H    0.222899
     9  H    0.279176
    10  H    0.278722
    11  H    0.227178
    12  N    0.487878
    13  O   -0.457959
    14  O   -0.457936
    15  C   -0.172893
    16  C   -0.218480
    17  C   -0.169960
    18  C    0.159228
    19  C   -0.172456
    20  C   -0.223803
    21  H    0.229483
    22  H    0.226060
    23  H    0.277550
    24  H    0.274093
    25  H    0.218362
    26  N    0.488095
    27  O   -0.460624
    28  O   -0.458551
 Sum of Mulliken charges =  -0.00000

 Dipole moment (field-independent basis, Debye):
    X=              0.7271    Y=             -0.5685    Z=              3.1424  Tot=              3.2752
 Quadrupole moment (field-independent basis, Debye-Ang):
   XX=           -174.5355   YY=           -100.5900   ZZ=           -101.4236
   XY=            -21.0043   XZ=              3.3566   YZ=              1.4094

 Normal termination of Gaussian 16 at Thu May  6 11:29:09 2021.
