 Gaussian 16, Revision A.03,
 Gaussian 16:  EM64L-G16RevA.03 25-Dec-2016

 -------------
 #p 6-31g* mp2
 -------------

 ------------------------------------------------------
 Input file generated by CHIRIPA (05-May-2021 14:55:19)
 ------------------------------------------------------
 Symbolic Z-matrix:
 Charge =  0 Multiplicity = 1

                         Standard orientation:
 ---------------------------------------------------------------------
 Center     Atomic      Atomic             Coordinates (Angstroms)
 Number     Number       Type             X           Y           Z
 ---------------------------------------------------------------------
      1          6           0        1.658888    1.529657   -0.489791
      2          6           0        2.988986    1.947348   -0.603349
      3          6           0        4.036751    1.047875   -0.384981
      4          6           0        3.716808   -0.267740   -0.053192
      5          6           0        2.401745   -0.714212    0.067477
      6          6           0        1.370022    0.202550   -0.155330
      7          1           0        0.851190    2.235105   -0.661148
      8          1           0        3.216296    2.977385   -0.862962
      9          1           0        5.075421    1.344486   -0.466251
     10          1           0        2.206473   -1.747450    0.327679
     11          1           0        0.337989   -0.124637   -0.066443
     12          7           0        4.817539   -1.229123    0.180334
     13          8           0        4.509225   -2.382738    0.471454
     14          8           0        5.967763   -0.810836    0.067830
     15          6           0       -3.993874    0.629908   -0.129427
     16          6           0       -3.249583    1.338196    1.002980
     17          6           0       -2.189650    2.315267    0.493406
     18          1           0       -3.269077    0.092699   -0.756340
     19          1           0       -4.467704    1.382693   -0.774560
     20          1           0       -2.778451    0.584248    1.646574
     21          1           0       -3.976256    1.873624    1.627382
     22          1           0       -2.647453    3.088697   -0.131754
     23          1           0       -1.442842    1.791993   -0.112453
     24          1           0       -1.669842    2.810454    1.319509
     25          6           0       -5.056735   -0.350122    0.364127
     26          6           0       -5.801027   -1.058408   -0.768280
     27          6           0       -6.860959   -2.035479   -0.258704
     28          1           0       -4.582906   -1.102905    1.009260
     29          1           0       -5.781533    0.187089    0.991040
     30          1           0       -5.074353   -1.593837   -1.392682
     31          1           0       -6.272158   -0.304460   -1.411874
     32          1           0       -7.607767   -1.512206    0.347153
     33          1           0       -6.403156   -2.808909    0.366454
     34          1           0       -7.380768   -2.530667   -1.084809
 ---------------------------------------------------------------------

 SCF Done:  E(RHF) =  -669.535165632     A.U. after   15 cycles
 E2 =    -0.2091390631D+01 EUMP2 =    -0.67162655626289D+03

 The electronic state is 1-A.
 Alpha  occ. eigenvalues --  -20.60724 -20.60719 -15.85778 -11.31129 -11.27708
 Alpha  occ. eigenvalues --  -11.27700 -11.27392 -11.26706 -11.26695 -11.22623
 Alpha  occ. eigenvalues --  -11.22398 -11.22264 -11.22158 -11.22045 -11.21512
 Alpha  occ. eigenvalues --   -1.59800  -1.39354  -1.19302  -1.09238  -1.08695
 Alpha  occ. eigenvalues --   -1.04709  -1.04354  -0.96828  -0.95532  -0.87852
 Alpha  occ. eigenvalues --   -0.86105  -0.82370  -0.80433  -0.79002  -0.77422
 Alpha  occ. eigenvalues --   -0.71996  -0.71123  -0.70424  -0.65893  -0.64956
 Alpha  occ. eigenvalues --   -0.64730  -0.62116  -0.61692  -0.60201  -0.58404
 Alpha  occ. eigenvalues --   -0.56169  -0.55187  -0.53500  -0.53230  -0.53030
 Alpha  occ. eigenvalues --   -0.52796  -0.50762  -0.48758  -0.48753  -0.48725
 Alpha  occ. eigenvalues --   -0.47455  -0.46554  -0.46451  -0.44763  -0.44587
 Alpha  occ. eigenvalues --   -0.37270  -0.36315
 Alpha virt. eigenvalues --    0.05119   0.11331   0.16612   0.19283   0.22360
 Alpha virt. eigenvalues --    0.23650   0.25462   0.25926   0.26796   0.27839
 Alpha virt. eigenvalues --    0.28876   0.29836   0.30858   0.31300   0.31811

 Mulliken charges:
               1
     1  C   -0.173750
     2  C   -0.218984
     3  C   -0.170824
     4  C    0.158164
     5  C   -0.170911
     6  C   -0.221196
     7  H    0.231329
     8  H    0.223413
     9  H    0.275362
    10  H    0.275208
    11  H    0.223837
    12  N    0.488075
    13  O   -0.460713
    14  O   -0.460547
    15  C   -0.298626
    16  C   -0.300831
    17  C   -0.481329
    18  H    0.145814
    19  H    0.151829
    20  H    0.152531
    21  H    0.157199
    22  H    0.159912
    23  H    0.144726
    24  H    0.164616
    25  C   -0.298906
    26  C   -0.300182
    27  C   -0.476185
    28  H    0.150185
    29  H    0.151729
    30  H    0.152025
    31  H    0.152807
    32  H    0.156096
    33  H    0.156076
    34  H    0.162052
 Sum of Mulliken charges =  -0.00000

 Dipole moment (field-independent basis, Debye):
    X=             -4.1414    Y=              3.4272    Z=             -0.7757  Tot=              5.4313
 Quadrupole moment (field-independent basis, Debye-Ang):
   XX=           -120.8588   YY=            -94.0682   ZZ=            -95.3685
   XY=             15.3388   XZ=             -3.5524   YZ=             -0.5268

 Normal termination of Gaussian 16 at Thu May  6 17:24:28 2021.
