 Gaussian 16, Revision A.03,
 Gaussian 16:  EM64L-G16RevA.03 25-Dec-2016

 -------------
 #p 6-31g* mp2
 -------------

 ------------------------------------------------------
 Input file generated by CHIRIPA (05-May-2021 14:57:26)
 ------------------------------------------------------
 Symbolic Z-matrix:
 Charge =  0 Multiplicity = 1

                         Standard orientation:
 ---------------------------------------------------------------------
 Center     Atomic      Atomic             Coordinates (Angstroms)
 Number     Number       Type             X           Y           Z
 ---------------------------------------------------------------------
      1          6           0        4.792403   -1.811110    0.108206
      2          6           0        4.104592   -1.420245    1.261748
      3          6           0        3.299575   -0.277242    1.255396
      4          6           0        3.204680    0.454761    0.072833
      5          6           0        3.877539    0.091089   -1.092626
      6          6           0        4.676885   -1.055528   -1.063235
      7          1           0        5.415557   -2.700426    0.122089
      8          1           0        4.192436   -2.005116    2.172931
      9          1           0        2.756131    0.048079    2.134175
     10          1           0        3.770286    0.694390   -1.985902
     11          1           0        5.209900   -1.356696   -1.960585
     12          7           0        2.355446    1.666720    0.053913
     13          8           0        2.288464    2.294501   -1.000621
     14          8           0        1.772880    1.965924    1.093975
     15          6           0       -5.844130    0.006268    0.148156
     16          6           0       -5.013186    1.128747    0.226215
     17          6           0       -3.626895    0.995815    0.103431
     18          6           0       -3.103004   -0.280276   -0.097616
     19          6           0       -3.904600   -1.417806   -0.179820
     20          6           0       -5.288165   -1.261191   -0.054256
     21          1           0       -6.919975    0.118732    0.244617
     22          1           0       -5.442177    2.114302    0.383353
     23          1           0       -2.960405    1.847879    0.159953
     24          1           0       -3.447694   -2.387305   -0.337067
     25          1           0       -5.931055   -2.134697   -0.115288
     26          7           0       -1.636842   -0.433541   -0.229074
     27          8           0       -1.200000   -1.568712   -0.405687
     28          8           0       -0.952269    0.584402   -0.153008
 ---------------------------------------------------------------------

 SCF Done:  E(RHF) =  -868.337712075     A.U. after   16 cycles
 E2 =    -0.2600024449D+01 EUMP2 =    -0.87093773652311D+03

 The electronic state is 1-A.
 Alpha  occ. eigenvalues --  -20.60377 -20.60254 -20.59303 -20.59259 -15.85342
 Alpha  occ. eigenvalues --  -15.84350 -11.30777 -11.29901 -11.27399 -11.27298
 Alpha  occ. eigenvalues --  -11.27141 -11.26526 -11.26510 -11.26426 -11.26366
 Alpha  occ. eigenvalues --  -11.26351 -11.25624 -11.25610  -1.59395  -1.58312
 Alpha  occ. eigenvalues --   -1.38937  -1.37883  -1.18965  -1.18100  -1.08357
 Alpha  occ. eigenvalues --   -1.07469  -1.04374  -1.03563  -0.95176  -0.94280
 Alpha  occ. eigenvalues --   -0.85770  -0.84957  -0.81998  -0.81136  -0.77028
 Alpha  occ. eigenvalues --   -0.76132  -0.71623  -0.70721  -0.70601  -0.70077
 Alpha  occ. eigenvalues --   -0.69506  -0.69266  -0.64612  -0.64382  -0.63785
 Alpha  occ. eigenvalues --   -0.63608  -0.61712  -0.60930  -0.54892  -0.54100
 Alpha  occ. eigenvalues --   -0.52708  -0.52466  -0.51841  -0.51691  -0.48374
 Alpha  occ. eigenvalues --   -0.48333  -0.47360  -0.47327  -0.44359  -0.43201
 Alpha  occ. eigenvalues --   -0.36962  -0.36085  -0.35982  -0.35161
 Alpha virt. eigenvalues --    0.05495   0.06479   0.11671   0.12492   0.16966
 Alpha virt. eigenvalues --    0.17910   0.21795   0.22452   0.27704   0.28325
 Alpha virt. eigenvalues --    0.28721   0.29370   0.31335   0.31942   0.33025

 Mulliken charges:
               1
     1  C   -0.171264
     2  C   -0.217881
     3  C   -0.166210
     4  C    0.166805
     5  C   -0.169495
     6  C   -0.218214
     7  H    0.220822
     8  H    0.218920
     9  H    0.273314
    10  H    0.272945
    11  H    0.218943
    12  N    0.496265
    13  O   -0.465533
    14  O   -0.459630
    15  C   -0.171102
    16  C   -0.219049
    17  C   -0.170870
    18  C    0.157678
    19  C   -0.171599
    20  C   -0.218924
    21  H    0.224245
    22  H    0.223771
    23  H    0.282696
    24  H    0.273405
    25  H    0.221453
    26  N    0.488234
    27  O   -0.468239
    28  O   -0.451486
 Sum of Mulliken charges =  -0.00000

 Dipole moment (field-independent basis, Debye):
    X=             -2.3522    Y=             -3.5026    Z=              0.5611  Tot=              4.2563
 Quadrupole moment (field-independent basis, Debye-Ang):
   XX=            -56.3634   YY=           -105.0953   ZZ=           -101.3563
   XY=            -12.0881   XZ=             -1.8162   YZ=             -0.6084

 Normal termination of Gaussian 16 at Fri May  7 00:27:19 2021.
