 Gaussian 16, Revision A.03,
 Gaussian 16:  EM64L-G16RevA.03 25-Dec-2016

 -------------
 #p 6-31g* mp2
 -------------

 ------------------------------------------------------
 Input file generated by CHIRIPA (05-May-2021 14:55:18)
 ------------------------------------------------------
 Symbolic Z-matrix:
 Charge =  0 Multiplicity = 1

                         Standard orientation:
 ---------------------------------------------------------------------
 Center     Atomic      Atomic             Coordinates (Angstroms)
 Number     Number       Type             X           Y           Z
 ---------------------------------------------------------------------
      1          6           0        5.397413    0.981293    0.076981
      2          6           0        4.198395    1.586032   -0.314383
      3          6           0        3.018113    0.840356   -0.388206
      4          6           0        3.073318   -0.513870   -0.062147
      5          6           0        4.252353   -1.145100    0.331188
      6          6           0        5.420525   -0.379943    0.397952
      7          1           0        6.309581    1.568119    0.131587
      8          1           0        4.177469    2.643001   -0.564232
      9          1           0        2.076129    1.283189   -0.688179
     10          1           0        4.241853   -2.200696    0.574142
     11          1           0        6.350258   -0.852247    0.702206
     12          7           0        1.830216   -1.313596   -0.136564
     13          8           0        1.905328   -2.505019    0.155851
     14          8           0        0.804300   -0.733855   -0.485897
     15          6           0       -3.476280    0.645639   -0.138096
     16          6           0       -2.948086    1.949113    0.461863
     17          6           0       -1.506787    2.248693    0.048702
     18          1           0       -2.824896   -0.183274    0.171010
     19          1           0       -3.412046    0.701866   -1.233590
     20          1           0       -3.014585    1.890987    1.555854
     21          1           0       -3.600914    2.774993    0.151449
     22          1           0       -1.427818    2.333523   -1.039952
     23          1           0       -0.838159    1.444494    0.372432
     24          1           0       -1.149342    3.184878    0.488757
     25          6           0       -4.915901    0.332449    0.265796
     26          6           0       -5.444095   -0.971026   -0.334163
     27          6           0       -6.885394   -1.270606    0.078997
     28          1           0       -4.980135    0.276221    1.361290
     29          1           0       -5.567285    1.161361   -0.043311
     30          1           0       -4.791268   -1.796906   -0.023749
     31          1           0       -5.377596   -0.912899   -1.428154
     32          1           0       -7.554022   -0.466406   -0.244732
     33          1           0       -6.964363   -1.355436    1.167651
     34          1           0       -7.242839   -2.206792   -0.361058
 ---------------------------------------------------------------------

 SCF Done:  E(RHF) =  -669.536232087     A.U. after   15 cycles
 E2 =    -0.2091050324D+01 EUMP2 =    -0.67162728241121D+03

 The electronic state is 1-A.
 Alpha  occ. eigenvalues --  -20.60917 -20.60903 -15.85944 -11.31247 -11.27817
 Alpha  occ. eigenvalues --  -11.27793 -11.27553 -11.26821 -11.26805 -11.20874
 Alpha  occ. eigenvalues --  -11.20872 -11.20632 -11.20479 -11.20415 -11.20283
 Alpha  occ. eigenvalues --   -1.59976  -1.39532  -1.19418  -1.08827  -1.07637
 Alpha  occ. eigenvalues --   -1.04810  -1.02798  -0.95673  -0.95247  -0.86276
 Alpha  occ. eigenvalues --   -0.86210  -0.82505  -0.78872  -0.77572  -0.77402
 Alpha  occ. eigenvalues --   -0.72169  -0.71290  -0.70526  -0.65075  -0.64814
 Alpha  occ. eigenvalues --   -0.64266  -0.62157  -0.60195  -0.58623  -0.56850
 Alpha  occ. eigenvalues --   -0.55320  -0.54524  -0.53146  -0.52904  -0.51994
 Alpha  occ. eigenvalues --   -0.51662  -0.49227  -0.48923  -0.48874  -0.47171
 Alpha  occ. eigenvalues --   -0.45904  -0.45044  -0.44950  -0.44758  -0.43049
 Alpha  occ. eigenvalues --   -0.37401  -0.36412
 Alpha virt. eigenvalues --    0.04936   0.11235   0.16417   0.21204   0.23653
 Alpha virt. eigenvalues --    0.24891   0.26485   0.27464   0.27677   0.28430
 Alpha virt. eigenvalues --    0.29174   0.30759   0.31743   0.32195   0.32556

 Mulliken charges:
               1
     1  C   -0.170488
     2  C   -0.219068
     3  C   -0.172290
     4  C    0.157506
     5  C   -0.170824
     6  C   -0.218721
     7  H    0.225826
     8  H    0.224099
     9  H    0.279567
    10  H    0.275567
    11  H    0.223595
    12  N    0.490243
    13  O   -0.459394
    14  O   -0.462575
    15  C   -0.300320
    16  C   -0.298314
    17  C   -0.485392
    18  H    0.163456
    19  H    0.148795
    20  H    0.149578
    21  H    0.147523
    22  H    0.152202
    23  H    0.174858
    24  H    0.150043
    25  C   -0.298073
    26  C   -0.299617
    27  C   -0.475320
    28  H    0.147745
    29  H    0.146163
    30  H    0.155750
    31  H    0.151443
    32  H    0.153142
    33  H    0.154146
    34  H    0.159147
 Sum of Mulliken charges =  -0.00000

 Dipole moment (field-independent basis, Debye):
    X=              4.5903    Y=              2.6409    Z=              0.2489  Tot=              5.3016
 Quadrupole moment (field-independent basis, Debye-Ang):
   XX=            -68.7596   YY=            -95.0153   ZZ=            -94.6461
   XY=              4.0859   XZ=              1.9853   YZ=             -2.1342

 Normal termination of Gaussian 16 at Thu May  6 01:16:20 2021.
