 Gaussian 16, Revision A.03,
 Gaussian 16:  EM64L-G16RevA.03 25-Dec-2016

 -------------
 #p 6-31g* mp2
 -------------

 ------------------------------------------------------
 Input file generated by CHIRIPA (05-May-2021 14:51:09)
 ------------------------------------------------------
 Symbolic Z-matrix:
 Charge =  0 Multiplicity = 1

                         Standard orientation:
 ---------------------------------------------------------------------
 Center     Atomic      Atomic             Coordinates (Angstroms)
 Number     Number       Type             X           Y           Z
 ---------------------------------------------------------------------
      1          6           0        3.239458    0.699219    0.114391
      2          6           0        3.403513    2.017484   -0.642741
      3          6           0        2.529521    3.137061   -0.076633
      4          1           0        2.184468    0.394364    0.082698
      5          1           0        3.486932    0.859160    1.172961
      6          1           0        3.157137    1.854784   -1.699833
      7          1           0        4.458269    2.319137   -0.609405
      8          1           0        2.779644    3.328226    0.971935
      9          1           0        1.471120    2.861234   -0.124689
     10          1           0        2.662487    4.070311   -0.632713
     11          6           0        4.106768   -0.429674   -0.439776
     12          6           0        3.942713   -1.747939    0.317356
     13          6           0        4.816706   -2.867517   -0.248751
     14          1           0        3.859294   -0.589615   -1.498346
     15          1           0        5.161758   -0.124820   -0.408083
     16          1           0        2.887958   -2.049593    0.284020
     17          1           0        4.189089   -1.585240    1.374448
     18          1           0        5.875106   -2.591690   -0.200696
     19          1           0        4.566582   -3.058682   -1.297319
     20          1           0        4.683740   -3.800767    0.307328
     21          6           0       -4.376509    0.149219    0.073161
     22          6           0       -5.383717   -0.877924   -0.445003
     23          6           0       -6.786373   -0.294750   -0.618953
     24          1           0       -4.730766    0.548624    1.033329
     25          1           0       -4.337855    0.998191   -0.623364
     26          1           0       -5.419441   -1.725342    0.251576
     27          1           0       -5.026924   -1.275070   -1.403956
     28          1           0       -6.772071    0.537572   -1.330033
     29          1           0       -7.166817    0.084743    0.334906
     30          1           0       -7.490327   -1.046072   -0.990200
     31          6           0       -2.969718   -0.418763    0.252223
     32          6           0       -1.962509    0.608379    0.770388
     33          6           0       -0.559854    0.025207    0.944338
     34          1           0       -3.008372   -1.267735    0.948748
     35          1           0       -2.615460   -0.818168   -0.707944
     36          1           0       -2.319301    1.005526    1.729340
     37          1           0       -1.926785    1.455797    0.073808
     38          1           0       -0.179409   -0.354288   -0.009521
     39          1           0       -0.574156   -0.807117    1.655418
     40          1           0        0.144101    0.776527    1.315585
 ---------------------------------------------------------------------

 SCF Done:  E(RHF) =  -470.732519490     A.U. after   11 cycles
 E2 =    -0.1583377348D+01 EUMP2 =    -0.47231589683720D+03

 The electronic state is 1-A.
 Alpha  occ. eigenvalues --  -11.21650 -11.21625 -11.21531 -11.21526 -11.21441
 Alpha  occ. eigenvalues --  -11.21380 -11.21294 -11.21171 -11.21115 -11.21089
 Alpha  occ. eigenvalues --  -11.21046 -11.21019  -1.08471  -1.08339  -1.03579
 Alpha  occ. eigenvalues --   -1.03462  -0.96037  -0.95907  -0.87071  -0.86919
 Alpha  occ. eigenvalues --   -0.79684  -0.79504  -0.78299  -0.78122  -0.65133
 Alpha  occ. eigenvalues --   -0.64960  -0.61013  -0.60842  -0.59471  -0.59208
 Alpha  occ. eigenvalues --   -0.57638  -0.57520  -0.55374  -0.55166  -0.52812
 Alpha  occ. eigenvalues --   -0.52600  -0.52459  -0.52303  -0.50044  -0.49807
 Alpha  occ. eigenvalues --   -0.47977  -0.47813  -0.46734  -0.46530  -0.45884
 Alpha  occ. eigenvalues --   -0.45760  -0.45675  -0.45488  -0.43734  -0.43677
 Alpha virt. eigenvalues --    0.21454   0.23008   0.23462   0.24911   0.25894
 Alpha virt. eigenvalues --    0.26675   0.26953   0.27110   0.27988   0.29584
 Alpha virt. eigenvalues --    0.30799   0.31163   0.31675   0.31864   0.32182

 Mulliken charges:
               1
     1  C   -0.309243
     2  C   -0.298658
     3  C   -0.478160
     4  H    0.164201
     5  H    0.147862
     6  H    0.151064
     7  H    0.151468
     8  H    0.154828
     9  H    0.156846
    10  H    0.160146
    11  C   -0.297529
    12  C   -0.299976
    13  C   -0.475592
    14  H    0.148543
    15  H    0.149016
    16  H    0.152486
    17  H    0.151750
    18  H    0.155041
    19  H    0.154876
    20  H    0.159990
    21  C   -0.298327
    22  C   -0.299665
    23  C   -0.475729
    24  H    0.149813
    25  H    0.149594
    26  H    0.151978
    27  H    0.151906
    28  H    0.155226
    29  H    0.155248
    30  H    0.160325
    31  C   -0.298647
    32  C   -0.299964
    33  C   -0.481398
    34  H    0.149713
    35  H    0.149572
    36  H    0.152461
    37  H    0.151885
    38  H    0.154542
    39  H    0.155915
    40  H    0.166593
 Sum of Mulliken charges =  -0.00000

 Dipole moment (field-independent basis, Debye):
    X=             -0.0643    Y=             -0.0074    Z=              0.0267  Tot=              0.0700
 Quadrupole moment (field-independent basis, Debye-Ang):
   XX=            -85.9141   YY=            -85.6578   ZZ=            -83.5458
   XY=              1.0497   XZ=              0.2631   YZ=             -0.2997

 Normal termination of Gaussian 16 at Thu May  6 06:56:47 2021.
