 Gaussian 16, Revision A.03,
 Gaussian 16:  EM64L-G16RevA.03 25-Dec-2016

 -------------
 #p 6-31g* mp2
 -------------

 ------------------------------------------------------
 Input file generated by CHIRIPA (05-May-2021 14:57:25)
 ------------------------------------------------------
 Symbolic Z-matrix:
 Charge =  0 Multiplicity = 1

                         Standard orientation:
 ---------------------------------------------------------------------
 Center     Atomic      Atomic             Coordinates (Angstroms)
 Number     Number       Type             X           Y           Z
 ---------------------------------------------------------------------
      1          6           0       -0.957743    1.973279    1.363976
      2          6           0       -1.369603    0.792685    1.990947
      3          6           0       -2.294099   -0.054383    1.372618
      4          6           0       -2.788564    0.311624    0.121685
      5          6           0       -2.397724    1.481134   -0.528530
      6          6           0       -1.472211    2.313136    0.108452
      7          1           0       -0.239177    2.625449    1.851555
      8          1           0       -0.971735    0.526213    2.966005
      9          1           0       -2.630159   -0.974310    1.835453
     10          1           0       -2.811989    1.720065   -1.500495
     11          1           0       -1.154159    3.229377   -0.380824
     12          7           0       -3.767825   -0.577154   -0.542786
     13          8           0       -4.188546   -0.232158   -1.644879
     14          8           0       -4.096105   -1.601945    0.051076
     15          6           0        0.411330   -1.662554   -0.158540
     16          6           0        1.446890   -2.049639    0.698372
     17          6           0        2.678825   -1.389418    0.666805
     18          6           0        2.841389   -0.341664   -0.238222
     19          6           0        1.828883    0.067366   -1.104718
     20          6           0        0.605289   -0.607148   -1.055768
     21          1           0       -0.542427   -2.180981   -0.127266
     22          1           0        1.299097   -2.868931    1.396198
     23          1           0        3.497507   -1.668466    1.318963
     24          1           0        2.006113    0.887755   -1.789531
     25          1           0       -0.197162   -0.304371   -1.722436
     26          7           0        4.141168    0.364848   -0.280842
     27          8           0        4.259143    1.284816   -1.087301
     28          8           0        5.017348   -0.014735    0.493019
 ---------------------------------------------------------------------

 SCF Done:  E(RHF) =  -868.336663597     A.U. after   16 cycles
 E2 =    -0.2605032098D+01 EUMP2 =    -0.87094169569553D+03

 The electronic state is 1-A.
 Alpha  occ. eigenvalues --  -20.61787 -20.61777 -20.61067 -20.61060 -15.86823
 Alpha  occ. eigenvalues --  -15.86118 -11.32079 -11.31392 -11.28628 -11.28613
 Alpha  occ. eigenvalues --  -11.28224 -11.27967 -11.27948 -11.27602 -11.27568
 Alpha  occ. eigenvalues --  -11.27541 -11.26938 -11.26842  -1.60868  -1.60148
 Alpha  occ. eigenvalues --   -1.40419  -1.39703  -1.20255  -1.19548  -1.09621
 Alpha  occ. eigenvalues --   -1.08957  -1.05621  -1.04945  -0.96486  -0.95806
 Alpha  occ. eigenvalues --   -0.87009  -0.86350  -0.83308  -0.82645  -0.78400
 Alpha  occ. eigenvalues --   -0.77720  -0.73021  -0.72344  -0.72234  -0.71479
 Alpha  occ. eigenvalues --   -0.71298  -0.70627  -0.65864  -0.65577  -0.65200
 Alpha  occ. eigenvalues --   -0.64964  -0.62963  -0.62321  -0.56038  -0.55427
 Alpha  occ. eigenvalues --   -0.54554  -0.53675  -0.53080  -0.52626  -0.49801
 Alpha  occ. eigenvalues --   -0.49774  -0.49097  -0.49083  -0.45831  -0.45129
 Alpha  occ. eigenvalues --   -0.38248  -0.37919  -0.36836  -0.36329
 Alpha virt. eigenvalues --    0.03995   0.04917   0.10310   0.11077   0.15629
 Alpha virt. eigenvalues --    0.16374   0.20490   0.21340   0.26199   0.26939
 Alpha virt. eigenvalues --    0.27530   0.28233   0.30304   0.30561   0.31960

 Mulliken charges:
               1
     1  C   -0.166955
     2  C   -0.210590
     3  C   -0.176811
     4  C    0.155675
     5  C   -0.180841
     6  C   -0.217152
     7  H    0.231906
     8  H    0.226251
     9  H    0.273685
    10  H    0.276515
    11  H    0.227870
    12  N    0.486126
    13  O   -0.457836
    14  O   -0.461573
    15  C   -0.170589
    16  C   -0.222945
    17  C   -0.173140
    18  C    0.156249
    19  C   -0.174395
    20  C   -0.211730
    21  H    0.230159
    22  H    0.222793
    23  H    0.274656
    24  H    0.272768
    25  H    0.224697
    26  N    0.487818
    27  O   -0.461967
    28  O   -0.460646
 Sum of Mulliken charges =  -0.00000

 Dipole moment (field-independent basis, Debye):
    X=             -1.2499    Y=              0.8101    Z=              2.6152  Tot=              3.0096
 Quadrupole moment (field-independent basis, Debye-Ang):
   XX=           -151.6302   YY=            -97.9460   ZZ=            -99.1323
   XY=            -14.7119   XZ=             -3.0072   YZ=             -3.3700

 Normal termination of Gaussian 16 at Thu May  6 13:04:19 2021.
