 Gaussian 16, Revision A.03,
 Gaussian 16:  EM64L-G16RevA.03 25-Dec-2016

 -------------
 #p 6-31g* mp2
 -------------

 ------------------------------------------------------
 Input file generated by CHIRIPA (05-May-2021 14:51:08)
 ------------------------------------------------------
 Symbolic Z-matrix:
 Charge =  0 Multiplicity = 1

                         Standard orientation:
 ---------------------------------------------------------------------
 Center     Atomic      Atomic             Coordinates (Angstroms)
 Number     Number       Type             X           Y           Z
 ---------------------------------------------------------------------
      1          6           0        4.118538    0.180992    0.267282
      2          6           0        4.412660    1.237435   -0.798272
      3          6           0        5.830039    1.801663   -0.695924
      4          1           0        4.268379    0.621533    1.262479
      5          1           0        4.847121   -0.636271    0.174310
      6          1           0        3.682884    2.051803   -0.704206
      7          1           0        4.261915    0.794383   -1.791045
      8          1           0        6.571349    1.004384   -0.811714
      9          1           0        5.989028    2.268948    0.281300
     10          1           0        6.018873    2.555088   -1.466997
     11          6           0        2.705443   -0.392516    0.177954
     12          6           0        2.411322   -1.448958    1.243509
     13          6           0        0.993942   -2.013186    1.141161
     14          1           0        1.976861    0.424747    0.270926
     15          1           0        2.555602   -0.833056   -0.817243
     16          1           0        2.562066   -1.005907    2.236281
     17          1           0        3.141097   -2.263327    1.149443
     18          1           0        0.834953   -2.480472    0.163936
     19          1           0        0.252632   -1.215908    1.256950
     20          1           0        0.805109   -2.766611    1.912233
     21          6           0       -2.838897   -0.377944   -0.367616
     22          6           0       -3.310512   -1.791443   -0.710520
     23          6           0       -2.152498   -2.747534   -0.998074
     24          1           0       -2.236863    0.012754   -1.199395
     25          1           0       -2.173600   -0.422664    0.505754
     26          1           0       -3.975823   -1.743906   -1.582138
     27          1           0       -3.911654   -2.178748    0.122091
     28          1           0       -1.491601   -2.824612   -0.128663
     29          1           0       -1.556135   -2.387299   -1.842574
     30          1           0       -2.512252   -3.752262   -1.240889
     31          6           0       -3.985085    0.589467   -0.077620
     32          6           0       -3.513469    2.002967    0.265284
     33          6           0       -4.671483    2.959058    0.552837
     34          1           0       -4.650381    0.634188   -0.950990
     35          1           0       -4.587119    0.198769    0.754158
     36          1           0       -2.912327    2.390272   -0.567327
     37          1           0       -2.848158    1.955430    1.136902
     38          1           0       -5.267847    2.598823    1.397338
     39          1           0       -5.332380    3.036136   -0.316574
     40          1           0       -4.311730    3.963785    0.795652
 ---------------------------------------------------------------------

 SCF Done:  E(RHF) =  -470.732488927     A.U. after   11 cycles
 E2 =    -0.1583289909D+01 EUMP2 =    -0.47231577883566D+03

 The electronic state is 1-A.
 Alpha  occ. eigenvalues --  -11.21598 -11.21594 -11.21587 -11.21527 -11.21392
 Alpha  occ. eigenvalues --  -11.21371 -11.21332 -11.21308 -11.21068 -11.21066
 Alpha  occ. eigenvalues --  -11.21042 -11.20893  -1.08425  -1.08386  -1.03548
 Alpha  occ. eigenvalues --   -1.03458  -0.96020  -0.95892  -0.87071  -0.86887
 Alpha  occ. eigenvalues --   -0.79709  -0.79451  -0.78279  -0.78150  -0.65060
 Alpha  occ. eigenvalues --   -0.65016  -0.60930  -0.60886  -0.59355  -0.59295
 Alpha  occ. eigenvalues --   -0.57697  -0.57454  -0.55377  -0.55129  -0.52743
 Alpha  occ. eigenvalues --   -0.52621  -0.52556  -0.52181  -0.50031  -0.49733
 Alpha  occ. eigenvalues --   -0.48170  -0.47636  -0.46615  -0.46554  -0.45915
 Alpha  occ. eigenvalues --   -0.45718  -0.45677  -0.45441  -0.43775  -0.43738
 Alpha virt. eigenvalues --    0.21962   0.23009   0.23663   0.24700   0.25471
 Alpha virt. eigenvalues --    0.26420   0.27018   0.27555   0.27875   0.29438
 Alpha virt. eigenvalues --    0.30587   0.30878   0.31548   0.31873   0.32163

 Mulliken charges:
               1
     1  C   -0.298280
     2  C   -0.299630
     3  C   -0.475693
     4  H    0.149582
     5  H    0.149499
     6  H    0.151966
     7  H    0.151887
     8  H    0.155175
     9  H    0.155163
    10  H    0.160209
    11  C   -0.298293
    12  C   -0.300423
    13  C   -0.482251
    14  H    0.149839
    15  H    0.149728
    16  H    0.151513
    17  H    0.151934
    18  H    0.159548
    19  H    0.158409
    20  H    0.159529
    21  C   -0.301827
    22  C   -0.299182
    23  C   -0.483265
    24  H    0.149617
    25  H    0.152636
    26  H    0.151322
    27  H    0.151431
    28  H    0.167831
    29  H    0.153445
    30  H    0.158938
    31  C   -0.298032
    32  C   -0.299546
    33  C   -0.475655
    34  H    0.149602
    35  H    0.149546
    36  H    0.151914
    37  H    0.151256
    38  H    0.155193
    39  H    0.155264
    40  H    0.160103
 Sum of Mulliken charges =  -0.00000

 Dipole moment (field-independent basis, Debye):
    X=              0.0212    Y=             -0.0139    Z=              0.0085  Tot=              0.0268
 Quadrupole moment (field-independent basis, Debye-Ang):
   XX=            -86.3642   YY=            -85.1151   ZZ=            -83.5175
   XY=             -0.2134   XZ=             -0.0392   YZ=              0.0077

 Normal termination of Gaussian 16 at Thu May  6 08:26:45 2021.
