 Gaussian 16, Revision A.03,
 Gaussian 16:  EM64L-G16RevA.03 25-Dec-2016

 -------------
 #p 6-31g* mp2
 -------------

 ------------------------------------------------------
 Input file generated by CHIRIPA (05-May-2021 14:51:12)
 ------------------------------------------------------
 Symbolic Z-matrix:
 Charge =  0 Multiplicity = 1

                         Standard orientation:
 ---------------------------------------------------------------------
 Center     Atomic      Atomic             Coordinates (Angstroms)
 Number     Number       Type             X           Y           Z
 ---------------------------------------------------------------------
      1          6           0        4.631224   -0.632003   -0.042708
      2          6           0        5.983107    0.055263   -0.237801
      3          6           0        7.104405   -0.929570   -0.570350
      4          1           0        4.717924   -1.376105    0.760872
      5          1           0        4.374525   -1.186611   -0.955895
      6          1           0        6.236531    0.609541    0.674980
      7          1           0        5.893128    0.797950   -1.040880
      8          1           0        6.877757   -1.474308   -1.492571
      9          1           0        7.223110   -1.663788    0.233039
     10          1           0        8.061900   -0.416983   -0.705694
     11          6           0        3.500227    0.339424    0.290310
     12          6           0        2.148343   -0.347842    0.485404
     13          6           0        1.027045    0.636991    0.817953
     14          1           0        3.756925    0.894032    1.203498
     15          1           0        3.413526    1.083526   -0.513270
     16          1           0        2.238322   -1.090529    1.288483
     17          1           0        1.894920   -0.902120   -0.427377
     18          1           0        0.908340    1.371209    0.014564
     19          1           0        1.253694    1.181729    1.740174
     20          1           0        0.069550    0.124404    0.953296
     21          6           0       -4.146253   -0.552162    0.174715
     22          6           0       -5.259131   -1.368330   -0.483585
     23          6           0       -5.407983   -2.763291    0.124461
     24          1           0       -3.196845   -1.097178    0.082369
     25          1           0       -4.352808   -0.464174    1.250349
     26          1           0       -5.051259   -1.453579   -1.557893
     27          1           0       -6.205965   -0.821219   -0.389829
     28          1           0       -5.639438   -2.695356    1.192363
     29          1           0       -4.478170   -3.331309    0.017662
     30          1           0       -6.209053   -3.329434   -0.360955
     31          6           0       -3.985197    0.844742   -0.422318
     32          6           0       -2.872319    1.660909    0.235982
     33          6           0       -2.723468    3.055871   -0.372064
     34          1           0       -3.778642    0.756753   -1.497951
     35          1           0       -4.934605    1.389757   -0.329972
     36          1           0       -1.925485    1.113798    0.142227
     37          1           0       -3.080192    1.746158    1.310290
     38          1           0       -3.653280    3.623888   -0.265265
     39          1           0       -2.492013    2.987936   -1.439965
     40          1           0       -1.922397    3.622014    0.113351
 ---------------------------------------------------------------------

 SCF Done:  E(RHF) =  -470.733040466     A.U. after   11 cycles
 E2 =    -0.1582596402D+01 EUMP2 =    -0.47231563686712D+03

 The electronic state is 1-A.
 Alpha  occ. eigenvalues --  -11.21630 -11.21615 -11.21584 -11.21457 -11.21425
 Alpha  occ. eigenvalues --  -11.21370 -11.21366 -11.21297 -11.21091 -11.21082
 Alpha  occ. eigenvalues --  -11.21059 -11.20999  -1.08453  -1.08381  -1.03563
 Alpha  occ. eigenvalues --   -1.03467  -0.96013  -0.95926  -0.87037  -0.86940
 Alpha  occ. eigenvalues --   -0.79677  -0.79489  -0.78272  -0.78186  -0.65092
 Alpha  occ. eigenvalues --   -0.65012  -0.61000  -0.60852  -0.59453  -0.59225
 Alpha  occ. eigenvalues --   -0.57619  -0.57538  -0.55317  -0.55198  -0.52771
 Alpha  occ. eigenvalues --   -0.52599  -0.52442  -0.52333  -0.49967  -0.49854
 Alpha  occ. eigenvalues --   -0.47964  -0.47822  -0.46700  -0.46519  -0.45812
 Alpha  occ. eigenvalues --   -0.45753  -0.45719  -0.45649  -0.43778  -0.43682
 Alpha virt. eigenvalues --    0.21970   0.23048   0.23757   0.24589   0.26067
 Alpha virt. eigenvalues --    0.26620   0.27052   0.27248   0.27859   0.28943
 Alpha virt. eigenvalues --    0.31019   0.31381   0.31616   0.31784   0.32164

 Mulliken charges:
               1
     1  C   -0.298291
     2  C   -0.299652
     3  C   -0.475712
     4  H    0.149706
     5  H    0.149478
     6  H    0.151976
     7  H    0.151968
     8  H    0.155176
     9  H    0.155205
    10  H    0.160310
    11  C   -0.298652
    12  C   -0.299527
    13  C   -0.479617
    14  H    0.149638
    15  H    0.149728
    16  H    0.152088
    17  H    0.151629
    18  H    0.155875
    19  H    0.155672
    20  H    0.163949
    21  C   -0.298414
    22  C   -0.299541
    23  C   -0.475700
    24  H    0.148762
    25  H    0.149495
    26  H    0.151860
    27  H    0.152043
    28  H    0.155150
    29  H    0.155080
    30  H    0.160195
    31  C   -0.297661
    32  C   -0.307839
    33  C   -0.475531
    34  H    0.148986
    35  H    0.149275
    36  H    0.162187
    37  H    0.151077
    38  H    0.154730
    39  H    0.154325
    40  H    0.160575
 Sum of Mulliken charges =  -0.00000

 Dipole moment (field-independent basis, Debye):
    X=              0.0399    Y=             -0.0020    Z=              0.0144  Tot=              0.0425
 Quadrupole moment (field-independent basis, Debye-Ang):
   XX=            -85.3443   YY=            -86.1331   ZZ=            -83.4800
   XY=              0.0706   XZ=              0.0357   YZ=              0.3619

 Normal termination of Gaussian 16 at Wed May  5 15:16:31 2021.
