 Gaussian 16, Revision A.03,
 Gaussian 16:  EM64L-G16RevA.03 25-Dec-2016

 -------------
 #p 6-31g* mp2
 -------------

 ------------------------------------------------------
 Input file generated by CHIRIPA (05-May-2021 14:51:10)
 ------------------------------------------------------
 Symbolic Z-matrix:
 Charge =  0 Multiplicity = 1

                         Standard orientation:
 ---------------------------------------------------------------------
 Center     Atomic      Atomic             Coordinates (Angstroms)
 Number     Number       Type             X           Y           Z
 ---------------------------------------------------------------------
      1          6           0       -2.921397    0.251621   -0.168818
      2          6           0       -3.108640   -0.719428   -1.335004
      3          6           0       -4.260540   -1.699213   -1.109307
      4          1           0       -2.742672   -0.320884    0.751639
      5          1           0       -3.854380    0.810766   -0.012951
      6          1           0       -2.175138   -1.275591   -1.489514
      7          1           0       -3.286749   -0.144540   -2.252826
      8          1           0       -5.204315   -1.160342   -0.976988
      9          1           0       -4.086388   -2.297819   -0.209339
     10          1           0       -4.376611   -2.384080   -1.955087
     11          6           0       -1.773585    1.237423   -0.379646
     12          6           0       -1.586342    2.208471    0.786540
     13          6           0       -0.434441    3.188257    0.560843
     14          1           0       -0.840602    0.678278   -0.535513
     15          1           0       -1.952309    1.809927   -1.300103
     16          1           0       -1.408233    1.633584    1.704362
     17          1           0       -2.519843    2.764635    0.941050
     18          1           0       -0.608593    3.786863   -0.339125
     19          1           0        0.509333    2.649385    0.428524
     20          1           0       -0.318371    3.873124    1.406623
     21          6           0        2.947211   -0.280732    0.181138
     22          6           0        3.667023   -0.480664   -1.152985
     23          6           0        4.864572    0.454350   -1.324505
     24          1           0        2.613133    0.763066    0.257442
     25          1           0        3.659752   -0.441663    1.001980
     26          1           0        2.952999   -0.320761   -1.971042
     27          1           0        3.999258   -1.524156   -1.226204
     28          1           0        5.598314    0.290536   -0.528647
     29          1           0        4.546112    1.500769   -1.277717
     30          1           0        5.364420    0.294466   -2.284947
     31          6           0        1.747770   -1.208312    0.367326
     32          6           0        1.027959   -1.008380    1.701449
     33          6           0       -0.169590   -1.943393    1.872969
     34          1           0        1.035229   -1.047381   -0.453516
     35          1           0        2.081848   -2.252110    0.291023
     36          1           0        0.695723    0.035112    1.774668
     37          1           0        1.741981   -1.168283    2.519507
     38          1           0        0.148870   -2.989813    1.826181
     39          1           0       -0.903333   -1.779580    1.077111
     40          1           0       -0.669439   -1.783509    2.833411
 ---------------------------------------------------------------------

 SCF Done:  E(RHF) =  -470.732402304     A.U. after   11 cycles
 E2 =    -0.1586013528D+01 EUMP2 =    -0.47231841583225D+03

 The electronic state is 1-A.
 Alpha  occ. eigenvalues --  -11.21664 -11.21644 -11.21640 -11.21637 -11.21476
 Alpha  occ. eigenvalues --  -11.21424 -11.21416 -11.21350 -11.21140 -11.21133
 Alpha  occ. eigenvalues --  -11.21089 -11.21082  -1.08565  -1.08412  -1.03602
 Alpha  occ. eigenvalues --   -1.03561  -0.96069  -0.95993  -0.87105  -0.86992
 Alpha  occ. eigenvalues --   -0.79693  -0.79595  -0.78339  -0.78264  -0.65713
 Alpha  occ. eigenvalues --   -0.64661  -0.61077  -0.60841  -0.59403  -0.59383
 Alpha  occ. eigenvalues --   -0.57681  -0.57596  -0.55522  -0.55136  -0.52732
 Alpha  occ. eigenvalues --   -0.52710  -0.52480  -0.52432  -0.50291  -0.49691
 Alpha  occ. eigenvalues --   -0.47975  -0.47964  -0.46859  -0.46486  -0.46116
 Alpha  occ. eigenvalues --   -0.45806  -0.45669  -0.45456  -0.43844  -0.43817
 Alpha virt. eigenvalues --    0.18427   0.21612   0.23431   0.24801   0.25001
 Alpha virt. eigenvalues --    0.26043   0.26697   0.28578   0.29179   0.29987
 Alpha virt. eigenvalues --    0.30287   0.31498   0.31695   0.31815   0.32189

 Mulliken charges:
               1
     1  C   -0.303220
     2  C   -0.301735
     3  C   -0.475882
     4  H    0.154222
     5  H    0.150461
     6  H    0.151950
     7  H    0.152365
     8  H    0.155391
     9  H    0.155785
    10  H    0.160413
    11  C   -0.304768
    12  C   -0.301781
    13  C   -0.480165
    14  H    0.155132
    15  H    0.150016
    16  H    0.153991
    17  H    0.152806
    18  H    0.155666
    19  H    0.157539
    20  H    0.160876
    21  C   -0.302262
    22  C   -0.299611
    23  C   -0.475850
    24  H    0.152417
    25  H    0.150194
    26  H    0.152232
    27  H    0.152120
    28  H    0.155223
    29  H    0.155526
    30  H    0.160446
    31  C   -0.302093
    32  C   -0.305647
    33  C   -0.482125
    34  H    0.151821
    35  H    0.150508
    36  H    0.157578
    37  H    0.152870
    38  H    0.155741
    39  H    0.161922
    40  H    0.159929
 Sum of Mulliken charges =  -0.00000

 Dipole moment (field-independent basis, Debye):
    X=              0.0011    Y=             -0.0039    Z=              0.0082  Tot=              0.0091
 Quadrupole moment (field-independent basis, Debye-Ang):
   XX=            -85.3155   YY=            -84.8115   ZZ=            -84.4651
   XY=             -2.0161   XZ=              0.7797   YZ=             -0.4184

 Normal termination of Gaussian 16 at Thu May  6 00:38:22 2021.
