 Gaussian 16, Revision A.03,
 Gaussian 16:  EM64L-G16RevA.03 25-Dec-2016

 -------------
 #p 6-31g* mp2
 -------------

 ------------------------------------------------------
 Input file generated by CHIRIPA (05-May-2021 14:53:15)
 ------------------------------------------------------
 Symbolic Z-matrix:
 Charge =  0 Multiplicity = 1

                         Standard orientation:
 ---------------------------------------------------------------------
 Center     Atomic      Atomic             Coordinates (Angstroms)
 Number     Number       Type             X           Y           Z
 ---------------------------------------------------------------------
      1          6           0        3.723387    0.735521   -0.042733
      2          6           0        2.863487    1.210869    1.128848
      3          6           0        2.068360    2.475691    0.803595
      4          1           0        4.413412    1.539673   -0.332819
      5          1           0        3.076746    0.549960   -0.911535
      6          1           0        3.511387    1.394154    1.995594
      7          1           0        2.175560    0.405423    1.416303
      8          1           0        1.398744    2.302213   -0.045004
      9          1           0        2.742161    3.296561    0.537578
     10          1           0        1.460680    2.797910    1.654924
     11          6           0        4.524237   -0.527967    0.267046
     12          6           0        5.384137   -1.003314   -0.904536
     13          6           0        6.179264   -2.268137   -0.579282
     14          1           0        5.170878   -0.342405    1.135848
     15          1           0        3.834212   -1.332119    0.557131
     16          1           0        6.072064   -0.197869   -1.191990
     17          1           0        4.736237   -1.186600   -1.771281
     18          1           0        5.505463   -3.089007   -0.313265
     19          1           0        6.848880   -2.094659    0.269317
     20          1           0        6.786944   -2.590355   -1.430611
     21          6           0       -1.586752    1.787290   -0.537049
     22          6           0       -2.859845    1.816858   -1.115739
     23          6           0       -3.773882    0.787053   -0.873687
     24          6           0       -3.379792   -0.261702   -0.044173
     25          6           0       -2.118666   -0.319656    0.547007
     26          6           0       -1.220871    0.721008    0.291016
     27          1           0       -0.883015    2.591484   -0.730495
     28          1           0       -3.146727    2.643688   -1.759241
     29          1           0       -4.765899    0.784802   -1.308789
     30          1           0       -1.861491   -1.157142    1.184106
     31          1           0       -0.232844    0.695409    0.741785
     32          7           0       -4.338844   -1.357658    0.219455
     33          8           0       -3.967334   -2.270418    0.953953
     34          8           0       -5.443900   -1.283157   -0.313405
 ---------------------------------------------------------------------

 SCF Done:  E(RHF) =  -669.534534669     A.U. after   15 cycles
 E2 =    -0.2092455624D+01 EUMP2 =    -0.67162699029238D+03

 The electronic state is 1-A.
 Alpha  occ. eigenvalues --  -20.60715 -20.60710 -15.85767 -11.31116 -11.27682
 Alpha  occ. eigenvalues --  -11.27669 -11.27383 -11.26694 -11.26613 -11.22824
 Alpha  occ. eigenvalues --  -11.22498 -11.22293 -11.22139 -11.22050 -11.21479
 Alpha  occ. eigenvalues --   -1.59791  -1.39345  -1.19281  -1.09298  -1.08679
 Alpha  occ. eigenvalues --   -1.04698  -1.04412  -0.96885  -0.95518  -0.87906
 Alpha  occ. eigenvalues --   -0.86078  -0.82356  -0.80512  -0.79029  -0.77410
 Alpha  occ. eigenvalues --   -0.71987  -0.71114  -0.70421  -0.66057  -0.64934
 Alpha  occ. eigenvalues --   -0.64698  -0.62283  -0.61506  -0.60268  -0.58456
 Alpha  occ. eigenvalues --   -0.56161  -0.55201  -0.53573  -0.53276  -0.53002
 Alpha  occ. eigenvalues --   -0.52728  -0.50818  -0.48805  -0.48743  -0.48734
 Alpha  occ. eigenvalues --   -0.47551  -0.46580  -0.46465  -0.44754  -0.44636
 Alpha  occ. eigenvalues --   -0.37259  -0.36285
 Alpha virt. eigenvalues --    0.05124   0.11320   0.16619   0.19561   0.22576
 Alpha virt. eigenvalues --    0.23802   0.25206   0.25689   0.26822   0.27976
 Alpha virt. eigenvalues --    0.28945   0.29955   0.30690   0.31439   0.31904

 Mulliken charges:
               1
     1  C   -0.298906
     2  C   -0.304642
     3  C   -0.487999
     4  H    0.152471
     5  H    0.149785
     6  H    0.159326
     7  H    0.148143
     8  H    0.148049
     9  H    0.164350
    10  H    0.163931
    11  C   -0.299136
    12  C   -0.300415
    13  C   -0.476301
    14  H    0.151374
    15  H    0.150568
    16  H    0.152644
    17  H    0.152938
    18  H    0.156571
    19  H    0.155953
    20  H    0.162117
    21  C   -0.177347
    22  C   -0.218257
    23  C   -0.171318
    24  C    0.158664
    25  C   -0.173353
    26  C   -0.226992
    27  H    0.229261
    28  H    0.223184
    29  H    0.275239
    30  H    0.275332
    31  H    0.238054
    32  N    0.488052
    33  O   -0.460672
    34  O   -0.460668
 Sum of Mulliken charges =  -0.00000

 Dipole moment (field-independent basis, Debye):
    X=              3.6793    Y=              3.8739    Z=             -0.9103  Tot=              5.4197
 Quadrupole moment (field-independent basis, Debye-Ang):
   XX=           -114.4774   YY=            -96.6195   ZZ=            -93.4044
   XY=            -14.7244   XZ=              5.5913   YZ=             -1.1153

 Normal termination of Gaussian 16 at Thu May  6 04:16:38 2021.
