 Gaussian 16, Revision A.03,
 Gaussian 16:  EM64L-G16RevA.03 25-Dec-2016

 -------------
 #p 6-31g* mp2
 -------------

 ------------------------------------------------------
 Input file generated by CHIRIPA (05-May-2021 14:55:24)
 ------------------------------------------------------
 Symbolic Z-matrix:
 Charge =  0 Multiplicity = 1

                         Standard orientation:
 ---------------------------------------------------------------------
 Center     Atomic      Atomic             Coordinates (Angstroms)
 Number     Number       Type             X           Y           Z
 ---------------------------------------------------------------------
      1          6           0        5.941398   -1.172186   -0.064035
      2          6           0        4.725731   -1.773868   -0.405582
      3          6           0        3.546852   -1.023125   -0.439886
      4          6           0        3.620421    0.332996   -0.125537
      5          6           0        4.816313    0.961276    0.218552
      6          6           0        5.982736    0.191062    0.246395
      7          1           0        6.852342   -1.762944   -0.039896
      8          1           0        4.690633   -2.832388   -0.647134
      9          1           0        2.592217   -1.463505   -0.700950
     10          1           0        4.819741    2.018526    0.454411
     11          1           0        6.925423    0.661001    0.511996
     12          7           0        2.378988    1.138080   -0.158432
     13          8           0        2.470446    2.331082    0.122673
     14          8           0        1.338000    0.560860   -0.464699
     15          6           0       -5.608809   -0.081873    0.365696
     16          6           0       -6.578715    0.038788   -0.810190
     17          6           0       -8.000677    0.388325   -0.370142
     18          1           0       -5.978184   -0.848775    1.060224
     19          1           0       -5.598911    0.865374    0.922491
     20          1           0       -6.585740   -0.907941   -1.365411
     21          1           0       -6.206887    0.805357   -1.502095
     22          1           0       -8.014512    1.343216    0.165200
     23          1           0       -8.395517   -0.379816    0.302660
     24          1           0       -8.677377    0.469642   -1.226485
     25          6           0       -4.183253   -0.430916   -0.058201
     26          6           0       -3.213347   -0.551576    1.117684
     27          6           0       -1.791385   -0.901114    0.677636
     28          1           0       -4.193152   -1.378163   -0.614997
     29          1           0       -3.813878    0.335986   -0.752729
     30          1           0       -3.585174   -1.318145    1.809589
     31          1           0       -3.206322    0.395153    1.672906
     32          1           0       -1.396544   -0.132974    0.004834
     33          1           0       -1.777549   -1.856005    0.142294
     34          1           0       -1.114684   -0.982432    1.533979
 ---------------------------------------------------------------------

 SCF Done:  E(RHF) =  -669.535893803     A.U. after   15 cycles
 E2 =    -0.2090691631D+01 EUMP2 =    -0.67162658543376D+03

 The electronic state is 1-A.
 Alpha  occ. eigenvalues --  -20.60868 -20.60853 -15.85902 -11.31239 -11.27808
 Alpha  occ. eigenvalues --  -11.27798 -11.27549 -11.26819 -11.26808 -11.21051
 Alpha  occ. eigenvalues --  -11.20726 -11.20627 -11.20612 -11.20543 -11.19725
 Alpha  occ. eigenvalues --   -1.59929  -1.39484  -1.19411  -1.08813  -1.07675
 Alpha  occ. eigenvalues --   -1.04809  -1.02721  -0.95656  -0.95149  -0.86212
 Alpha  occ. eigenvalues --   -0.86162  -0.82485  -0.78805  -0.77547  -0.77456
 Alpha  occ. eigenvalues --   -0.72130  -0.71245  -0.70520  -0.65067  -0.64813
 Alpha  occ. eigenvalues --   -0.64307  -0.62155  -0.60110  -0.58568  -0.56768
 Alpha  occ. eigenvalues --   -0.55315  -0.54424  -0.53142  -0.52901  -0.51846
 Alpha  occ. eigenvalues --   -0.51573  -0.49168  -0.48879  -0.48796  -0.47103
 Alpha  occ. eigenvalues --   -0.45842  -0.45027  -0.44964  -0.44814  -0.42983
 Alpha  occ. eigenvalues --   -0.37392  -0.36412
 Alpha virt. eigenvalues --    0.04992   0.11242   0.16481   0.21358   0.23595
 Alpha virt. eigenvalues --    0.25152   0.27264   0.27401   0.28030   0.28256
 Alpha virt. eigenvalues --    0.28996   0.30926   0.32226   0.32273   0.32694

 Mulliken charges:
               1
     1  C   -0.170680
     2  C   -0.218604
     3  C   -0.170912
     4  C    0.157687
     5  C   -0.170690
     6  C   -0.218630
     7  H    0.225774
     8  H    0.223718
     9  H    0.276543
    10  H    0.275680
    11  H    0.223582
    12  N    0.492241
    13  O   -0.460056
    14  O   -0.463031
    15  C   -0.297710
    16  C   -0.299206
    17  C   -0.475314
    18  H    0.147467
    19  H    0.149570
    20  H    0.150460
    21  H    0.152502
    22  H    0.155037
    23  H    0.153962
    24  H    0.158694
    25  C   -0.298102
    26  C   -0.299790
    27  C   -0.478895
    28  H    0.146478
    29  H    0.152756
    30  H    0.145941
    31  H    0.152335
    32  H    0.180761
    33  H    0.144933
    34  H    0.155502
 Sum of Mulliken charges =  -0.00000

 Dipole moment (field-independent basis, Debye):
    X=              4.6347    Y=             -2.7284    Z=              0.0518  Tot=              5.3785
 Quadrupole moment (field-independent basis, Debye-Ang):
   XX=            -64.3424   YY=            -92.8301   ZZ=            -95.4763
   XY=             -6.4352   XZ=              1.0166   YZ=              1.6682

 Normal termination of Gaussian 16 at Wed May  5 17:36:45 2021.
