 Gaussian 16, Revision A.03,
 Gaussian 16:  EM64L-G16RevA.03 25-Dec-2016

 -------------
 #p 6-31g* mp2
 -------------

 ------------------------------------------------------
 Input file generated by CHIRIPA (05-May-2021 14:55:24)
 ------------------------------------------------------
 Symbolic Z-matrix:
 Charge =  0 Multiplicity = 1

                         Standard orientation:
 ---------------------------------------------------------------------
 Center     Atomic      Atomic             Coordinates (Angstroms)
 Number     Number       Type             X           Y           Z
 ---------------------------------------------------------------------
      1          6           0        5.103720    0.582681   -0.456804
      2          6           0        4.430452    1.256582    0.567446
      3          6           0        3.114049    0.917988    0.894533
      4          6           0        2.498500   -0.104107    0.173623
      5          6           0        3.142722   -0.794102   -0.852134
      6          6           0        4.458843   -0.438709   -1.162082
      7          1           0        6.126225    0.852234   -0.704236
      8          1           0        4.928779    2.050219    1.116859
      9          1           0        2.569381    1.423313    1.682822
     10          1           0        2.619692   -1.580893   -1.382056
     11          1           0        4.979255   -0.963786   -1.958016
     12          7           0        1.105032   -0.471454    0.510823
     13          8           0        0.584914   -1.375590   -0.139294
     14          8           0        0.559336    0.151712    1.418852
     15          6           0       -3.770532    0.719989    0.103221
     16          6           0       -3.434537    1.905030   -0.802743
     17          6           0       -3.998513    3.226828   -0.280656
     18          1           0       -4.861726    0.640763    0.203047
     19          1           0       -3.377806    0.914788    1.110800
     20          1           0       -3.826574    1.707441   -1.808667
     21          1           0       -2.344022    1.981327   -0.900578
     22          1           0       -3.598133    3.450632    0.713431
     23          1           0       -5.089108    3.175190   -0.199817
     24          1           0       -3.746547    4.060527   -0.943468
     25          6           0       -3.213559   -0.608464   -0.405425
     26          6           0       -3.549555   -1.793505    0.500539
     27          6           0       -2.985579   -3.115303   -0.021547
     28          1           0       -3.606285   -0.803263   -1.413004
     29          1           0       -2.122366   -0.529238   -0.505250
     30          1           0       -4.640070   -1.869802    0.598375
     31          1           0       -3.157517   -1.595916    1.506463
     32          1           0       -1.894982   -3.063666   -0.102386
     33          1           0       -3.385959   -3.339108   -1.015633
     34          1           0       -3.237544   -3.949002    0.641264
 ---------------------------------------------------------------------

 SCF Done:  E(RHF) =  -669.537053381     A.U. after   15 cycles
 E2 =    -0.2092130618D+01 EUMP2 =    -0.67162918399919D+03

 The electronic state is 1-A.
 Alpha  occ. eigenvalues --  -20.61230 -20.61211 -15.86218 -11.31446 -11.27992
 Alpha  occ. eigenvalues --  -11.27988 -11.27713 -11.26975 -11.26965 -11.20515
 Alpha  occ. eigenvalues --  -11.20211 -11.19968 -11.19926 -11.19557 -11.19331
 Alpha  occ. eigenvalues --   -1.60259  -1.39817  -1.19600  -1.09024  -1.06939
 Alpha  occ. eigenvalues --   -1.04980  -1.02130  -0.95879  -0.94582  -0.86385
 Alpha  occ. eigenvalues --   -0.85610  -0.82718  -0.78247  -0.77782  -0.76709
 Alpha  occ. eigenvalues --   -0.72431  -0.71560  -0.70707  -0.65256  -0.64984
 Alpha  occ. eigenvalues --   -0.63547  -0.62326  -0.59514  -0.58007  -0.56198
 Alpha  occ. eigenvalues --   -0.55488  -0.53844  -0.53315  -0.53069  -0.51357
 Alpha  occ. eigenvalues --   -0.51016  -0.49254  -0.49191  -0.48505  -0.46551
 Alpha  occ. eigenvalues --   -0.45263  -0.45256  -0.44263  -0.43989  -0.42356
 Alpha  occ. eigenvalues --   -0.37572  -0.36575
 Alpha virt. eigenvalues --    0.04709   0.11082   0.16228   0.21214   0.24318
 Alpha virt. eigenvalues --    0.25746   0.27156   0.27918   0.28343   0.28996
 Alpha virt. eigenvalues --    0.29303   0.30837   0.32284   0.32778   0.32906

 Mulliken charges:
               1
     1  C   -0.170168
     2  C   -0.218652
     3  C   -0.170328
     4  C    0.158252
     5  C   -0.170456
     6  C   -0.218600
     7  H    0.226612
     8  H    0.224384
     9  H    0.276104
    10  H    0.276298
    11  H    0.224453
    12  N    0.490242
    13  O   -0.460713
    14  O   -0.458627
    15  C   -0.297653
    16  C   -0.297932
    17  C   -0.474960
    18  H    0.143064
    19  H    0.154358
    20  H    0.147879
    21  H    0.151741
    22  H    0.155133
    23  H    0.152992
    24  H    0.155185
    25  C   -0.306479
    26  C   -0.295447
    27  C   -0.483927
    28  H    0.139820
    29  H    0.173567
    30  H    0.142605
    31  H    0.156020
    32  H    0.177220
    33  H    0.146496
    34  H    0.151520
 Sum of Mulliken charges =  -0.00000

 Dipole moment (field-independent basis, Debye):
    X=              5.4777    Y=              1.2834    Z=             -1.0930  Tot=              5.7312
 Quadrupole moment (field-independent basis, Debye-Ang):
   XX=            -71.8586   YY=            -94.9292   ZZ=            -92.9315
   XY=              3.1005   XZ=             -2.0895   YZ=              3.2647

 Normal termination of Gaussian 16 at Thu May  6 03:10:39 2021.
