 Gaussian 16, Revision A.03,
 Gaussian 16:  EM64L-G16RevA.03 25-Dec-2016

 -------------
 #p 6-31g* mp2
 -------------

 ------------------------------------------------------
 Input file generated by CHIRIPA (05-May-2021 14:57:23)
 ------------------------------------------------------
 Symbolic Z-matrix:
 Charge =  0 Multiplicity = 1

                         Standard orientation:
 ---------------------------------------------------------------------
 Center     Atomic      Atomic             Coordinates (Angstroms)
 Number     Number       Type             X           Y           Z
 ---------------------------------------------------------------------
      1          6           0        0.903479   -1.620388   -0.488755
      2          6           0        2.127791   -2.232388   -0.200593
      3          6           0        3.277758   -1.462032   -0.003930
      4          6           0        3.166776   -0.075991   -0.103248
      5          6           0        1.961362    0.563247   -0.388980
      6          6           0        0.824312   -0.226980   -0.581865
      7          1           0        0.015174   -2.226537   -0.640060
      8          1           0        2.192242   -3.314318   -0.127677
      9          1           0        4.238285   -1.909803    0.220365
     10          1           0        1.928403    1.643958   -0.455283
     11          1           0       -0.125173    0.251034   -0.805528
     12          7           0        4.377358    0.750068    0.102950
     13          8           0        4.253166    1.969324    0.010062
     14          8           0        5.427481    0.162636    0.353553
     15          6           0       -3.169715   -2.298209    0.289232
     16          6           0       -2.707655   -1.565427    1.387437
     17          6           0       -2.591454   -0.174123    1.314516
     18          6           0       -2.947684    0.454827    0.122538
     19          6           0       -3.411279   -0.247471   -0.988835
     20          6           0       -3.519436   -1.638056   -0.893314
     21          1           0       -3.256858   -3.378728    0.354657
     22          1           0       -2.435336   -2.075448    2.307092
     23          1           0       -2.236595    0.417694    2.149528
     24          1           0       -3.675144    0.288989   -1.892165
     25          1           0       -3.878577   -2.204573   -1.747784
     26          7           0       -2.828926    1.927358    0.033376
     27          8           0       -3.149179    2.457785   -1.028096
     28          8           0       -2.417839    2.523217    1.026651
 ---------------------------------------------------------------------

 SCF Done:  E(RHF) =  -868.337202155     A.U. after   16 cycles
 E2 =    -0.2602395160D+01 EUMP2 =    -0.87093959731505D+03

 The electronic state is 1-A.
 Alpha  occ. eigenvalues --  -20.61771 -20.61760 -20.60629 -20.60609 -15.86824
 Alpha  occ. eigenvalues --  -15.85676 -11.32342 -11.31078 -11.28934 -11.28871
 Alpha  occ. eigenvalues --  -11.28692 -11.27980 -11.27921 -11.27701 -11.27597
 Alpha  occ. eigenvalues --  -11.27412 -11.26741 -11.26610  -1.60856  -1.59698
 Alpha  occ. eigenvalues --   -1.40394  -1.39249  -1.20567  -1.19267  -1.09926
 Alpha  occ. eigenvalues --   -1.08660  -1.05934  -1.04673  -0.96712  -0.95481
 Alpha  occ. eigenvalues --   -0.87320  -0.86076  -0.83505  -0.82312  -0.78531
 Alpha  occ. eigenvalues --   -0.77353  -0.73015  -0.72233  -0.71891  -0.71601
 Alpha  occ. eigenvalues --   -0.71024  -0.70379  -0.66167  -0.65888  -0.64915
 Alpha  occ. eigenvalues --   -0.64709  -0.63235  -0.62031  -0.56418  -0.55234
 Alpha  occ. eigenvalues --   -0.54325  -0.53982  -0.52998  -0.52699  -0.49798
 Alpha  occ. eigenvalues --   -0.49771  -0.48661  -0.48643  -0.45747  -0.44646
 Alpha  occ. eigenvalues --   -0.38566  -0.37770  -0.37076  -0.36241
 Alpha virt. eigenvalues --    0.03919   0.05176   0.09990   0.11422   0.15340
 Alpha virt. eigenvalues --    0.16673   0.20386   0.21385   0.26375   0.26926
 Alpha virt. eigenvalues --    0.27223   0.28300   0.30003   0.30715   0.31603

 Mulliken charges:
               1
     1  C   -0.174611
     2  C   -0.220333
     3  C   -0.171223
     4  C    0.158074
     5  C   -0.171597
     6  C   -0.221049
     7  H    0.223176
     8  H    0.219842
     9  H    0.274722
    10  H    0.281237
    11  H    0.225871
    12  N    0.487906
    13  O   -0.457841
    14  O   -0.461941
    15  C   -0.178684
    16  C   -0.217693
    17  C   -0.169205
    18  C    0.148728
    19  C   -0.176000
    20  C   -0.219962
    21  H    0.228837
    22  H    0.228717
    23  H    0.281086
    24  H    0.279627
    25  H    0.227786
    26  N    0.487531
    27  O   -0.457527
    28  O   -0.455475
 Sum of Mulliken charges =  -0.00000

 Dipole moment (field-independent basis, Debye):
    X=             -4.9530    Y=             -7.9422    Z=             -0.3001  Tot=              9.3649
 Quadrupole moment (field-independent basis, Debye-Ang):
   XX=           -128.0180   YY=           -106.3814   ZZ=           -100.6708
   XY=              4.1324   XZ=             -0.7316   YZ=             -0.8128

 Normal termination of Gaussian 16 at Thu May  6 22:45:26 2021.
