 Gaussian 16, Revision A.03,
 Gaussian 16:  EM64L-G16RevA.03 25-Dec-2016

 -------------
 #p 6-31g* mp2
 -------------

 ------------------------------------------------------
 Input file generated by CHIRIPA (05-May-2021 14:55:22)
 ------------------------------------------------------
 Symbolic Z-matrix:
 Charge =  0 Multiplicity = 1

                         Standard orientation:
 ---------------------------------------------------------------------
 Center     Atomic      Atomic             Coordinates (Angstroms)
 Number     Number       Type             X           Y           Z
 ---------------------------------------------------------------------
      1          6           0        4.020037    1.191346   -0.014230
      2          6           0        3.797843    0.389823   -1.138824
      3          6           0        2.837679   -0.625904   -1.108290
      4          6           0        2.114531   -0.813265    0.068674
      5          6           0        2.312802   -0.031284    1.205548
      6          6           0        3.278115    0.978609    1.152310
      7          1           0        4.767915    1.978121   -0.046768
      8          1           0        4.372544    0.552762   -2.046135
      9          1           0        2.645275   -1.261060   -1.964430
     10          1           0        1.724272   -0.217678    2.095665
     11          1           0        3.448537    1.599547    2.027203
     12          7           0        1.095323   -1.885482    0.113017
     13          8           0        0.471432   -2.030311    1.162027
     14          8           0        0.939658   -2.560753   -0.902076
     15          6           0       -3.643222    0.704294   -0.303273
     16          6           0       -4.283863   -0.543142    0.306210
     17          6           0       -5.727461   -0.750665   -0.152869
     18          1           0       -4.244235    1.584609   -0.037238
     19          1           0       -3.672774    0.625124   -1.398833
     20          1           0       -4.251865   -0.462274    1.400310
     21          1           0       -3.681149   -1.420566    0.038854
     22          1           0       -5.773982   -0.857147   -1.241491
     23          1           0       -6.347942    0.106590    0.127699
     24          1           0       -6.166060   -1.647918    0.294824
     25          6           0       -2.200000    0.925276    0.146177
     26          6           0       -1.559359    2.172711   -0.463306
     27          6           0       -0.115762    2.380235   -0.004227
     28          1           0       -2.170448    1.004446    1.241737
     29          1           0       -1.598988    0.044960   -0.119858
     30          1           0       -2.162073    3.050135   -0.195950
     31          1           0       -1.591357    2.091844   -1.557405
     32          1           0        0.504718    1.522979   -0.284795
     33          1           0       -0.069241    2.486716    1.084396
     34          1           0        0.322836    3.277487   -0.451920
 ---------------------------------------------------------------------

 SCF Done:  E(RHF) =  -669.534183219     A.U. after   15 cycles
 E2 =    -0.2094292168D+01 EUMP2 =    -0.67162847538743D+03

 The electronic state is 1-A.
 Alpha  occ. eigenvalues --  -20.60879 -20.60851 -15.85906 -11.31200 -11.27835
 Alpha  occ. eigenvalues --  -11.27771 -11.27561 -11.26825 -11.26779 -11.21302
 Alpha  occ. eigenvalues --  -11.20897 -11.20883 -11.20850 -11.20795 -11.20472
 Alpha  occ. eigenvalues --   -1.59942  -1.39493  -1.19433  -1.08820  -1.07925
 Alpha  occ. eigenvalues --   -1.04817  -1.03078  -0.95674  -0.95535  -0.86581
 Alpha  occ. eigenvalues --   -0.86209  -0.82486  -0.79147  -0.77708  -0.77535
 Alpha  occ. eigenvalues --   -0.72125  -0.71276  -0.70525  -0.65067  -0.64811
 Alpha  occ. eigenvalues --   -0.64556  -0.62159  -0.60499  -0.58937  -0.57208
 Alpha  occ. eigenvalues --   -0.55316  -0.54998  -0.53356  -0.52899  -0.52235
 Alpha  occ. eigenvalues --   -0.51735  -0.49436  -0.48888  -0.48883  -0.47428
 Alpha  occ. eigenvalues --   -0.46148  -0.45337  -0.45184  -0.44755  -0.43316
 Alpha  occ. eigenvalues --   -0.37379  -0.36355
 Alpha virt. eigenvalues --    0.04979   0.11220   0.16424   0.21303   0.23234
 Alpha virt. eigenvalues --    0.24633   0.26787   0.27285   0.27779   0.28404
 Alpha virt. eigenvalues --    0.28515   0.30934   0.31723   0.32064   0.32320

 Mulliken charges:
               1
     1  C   -0.170522
     2  C   -0.217290
     3  C   -0.173020
     4  C    0.156344
     5  C   -0.170892
     6  C   -0.213182
     7  H    0.226077
     8  H    0.223756
     9  H    0.275787
    10  H    0.275714
    11  H    0.223810
    12  N    0.488090
    13  O   -0.458869
    14  O   -0.460953
    15  C   -0.298100
    16  C   -0.301000
    17  C   -0.475672
    18  H    0.146365
    19  H    0.148679
    20  H    0.151464
    21  H    0.162249
    22  H    0.154302
    23  H    0.152115
    24  H    0.160445
    25  C   -0.299737
    26  C   -0.299597
    27  C   -0.477902
    28  H    0.148765
    29  H    0.156241
    30  H    0.149690
    31  H    0.150950
    32  H    0.162093
    33  H    0.148428
    34  H    0.155369
 Sum of Mulliken charges =  -0.00000

 Dipole moment (field-independent basis, Debye):
    X=              3.7189    Y=              3.6272    Z=             -0.1207  Tot=              5.1963
 Quadrupole moment (field-independent basis, Debye-Ang):
   XX=            -81.1409   YY=           -101.5064   ZZ=            -89.8239
   XY=              4.9142   XZ=             -1.8133   YZ=              2.1214

 Normal termination of Gaussian 16 at Thu May  6 19:14:39 2021.
