 Gaussian 16, Revision A.03,
 Gaussian 16:  EM64L-G16RevA.03 25-Dec-2016

 -------------
 #p 6-31g* mp2
 -------------

 ------------------------------------------------------
 Input file generated by CHIRIPA (05-May-2021 14:53:11)
 ------------------------------------------------------
 Symbolic Z-matrix:
 Charge =  0 Multiplicity = 1

                         Standard orientation:
 ---------------------------------------------------------------------
 Center     Atomic      Atomic             Coordinates (Angstroms)
 Number     Number       Type             X           Y           Z
 ---------------------------------------------------------------------
      1          6           0       -2.597690    1.095594   -0.677518
      2          6           0       -2.106137    2.242194    0.206603
      3          6           0       -1.290788    3.278152   -0.567859
      4          1           0       -1.733283    0.607041   -1.147689
      5          1           0       -3.206800    1.506867   -1.494362
      6          1           0       -1.499280    1.828757    1.022330
      7          1           0       -2.971802    2.727952    0.674874
      8          1           0       -1.890400    3.717958   -1.371375
      9          1           0       -0.409511    2.813654   -1.021944
     10          1           0       -0.949405    4.088841    0.083370
     11          6           0       -3.414344    0.051872    0.082383
     12          6           0       -3.905897   -1.094728   -0.801737
     13          6           0       -4.721246   -2.130686   -0.027275
     14          1           0       -2.805234   -0.359401    0.899228
     15          1           0       -4.278751    0.540425    0.552554
     16          1           0       -3.040232   -1.580486   -1.270008
     17          1           0       -4.512754   -0.681292   -1.617465
     18          1           0       -5.602523   -1.666188    0.426810
     19          1           0       -4.121634   -2.570492    0.776240
     20          1           0       -5.062629   -2.941375   -0.678505
     21          6           0        4.560892   -0.014059   -0.900010
     22          6           0        3.755508   -1.077193   -1.321465
     23          6           0        2.527729   -1.327100   -0.701262
     24          6           0        2.134561   -0.490203    0.341959
     25          6           0        2.914659    0.576937    0.784618
     26          6           0        4.138642    0.808163    0.149835
     27          1           0        5.513186    0.172819   -1.387461
     28          1           0        4.080888   -1.717378   -2.136533
     29          1           0        1.884529   -2.143160   -1.007462
     30          1           0        2.563476    1.197859    1.599814
     31          1           0        4.762049    1.634539    0.479247
     32          7           0        0.836775   -0.744880    1.006258
     33          8           0        0.513044    0.006989    1.923061
     34          8           0        0.167876   -1.691544    0.597553
 ---------------------------------------------------------------------

 SCF Done:  E(RHF) =  -669.537137224     A.U. after   15 cycles
 E2 =    -0.2092528381D+01 EUMP2 =    -0.67162966560513D+03

 The electronic state is 1-A.
 Alpha  occ. eigenvalues --  -20.61177 -20.61170 -15.86165 -11.31404 -11.27951
 Alpha  occ. eigenvalues --  -11.27947 -11.27673 -11.26937 -11.26926 -11.20439
 Alpha  occ. eigenvalues --  -11.20399 -11.20379 -11.20277 -11.19968 -11.19952
 Alpha  occ. eigenvalues --   -1.60207  -1.39767  -1.19559  -1.08981  -1.07234
 Alpha  occ. eigenvalues --   -1.04940  -1.02451  -0.95835  -0.94937  -0.86345
 Alpha  occ. eigenvalues --   -0.85958  -0.82673  -0.78508  -0.77736  -0.77031
 Alpha  occ. eigenvalues --   -0.72384  -0.71521  -0.70666  -0.65215  -0.64943
 Alpha  occ. eigenvalues --   -0.63825  -0.62287  -0.59836  -0.58318  -0.56546
 Alpha  occ. eigenvalues --   -0.55449  -0.54232  -0.53274  -0.53030  -0.51673
 Alpha  occ. eigenvalues --   -0.51376  -0.49162  -0.49159  -0.48861  -0.46856
 Alpha  occ. eigenvalues --   -0.45706  -0.45033  -0.44615  -0.44296  -0.42676
 Alpha  occ. eigenvalues --   -0.37530  -0.36535
 Alpha virt. eigenvalues --    0.04732   0.11114   0.16200   0.21230   0.23892
 Alpha virt. eigenvalues --    0.25245   0.27188   0.27581   0.28259   0.28810
 Alpha virt. eigenvalues --    0.29051   0.30927   0.32109   0.32474   0.32615

 Mulliken charges:
               1
     1  C   -0.295586
     2  C   -0.311321
     3  C   -0.473719
     4  H    0.145290
     5  H    0.143101
     6  H    0.174144
     7  H    0.148097
     8  H    0.152094
     9  H    0.148222
    10  H    0.156256
    11  C   -0.302977
    12  C   -0.298121
    13  C   -0.476270
    14  H    0.171539
    15  H    0.143331
    16  H    0.155090
    17  H    0.144805
    18  H    0.151307
    19  H    0.161719
    20  H    0.154924
    21  C   -0.170205
    22  C   -0.218553
    23  C   -0.170654
    24  C    0.158167
    25  C   -0.170306
    26  C   -0.218512
    27  H    0.226530
    28  H    0.224292
    29  H    0.275949
    30  H    0.276301
    31  H    0.224429
    32  N    0.488840
    33  O   -0.458835
    34  O   -0.459366
 Sum of Mulliken charges =  -0.00000

 Dipole moment (field-independent basis, Debye):
    X=              4.8969    Y=              0.7052    Z=             -2.1200  Tot=              5.3825
 Quadrupole moment (field-independent basis, Debye-Ang):
   XX=            -76.1533   YY=            -93.9972   ZZ=            -95.2320
   XY=             -0.3058   XZ=             -3.2182   YZ=              4.6785

 Normal termination of Gaussian 16 at Thu May  6 05:41:20 2021.
