 Gaussian 16, Revision A.03,
 Gaussian 16:  EM64L-G16RevA.03 25-Dec-2016

 -------------
 #p 6-31g* mp2
 -------------

 ------------------------------------------------------
 Input file generated by CHIRIPA (05-May-2021 14:57:26)
 ------------------------------------------------------
 Symbolic Z-matrix:
 Charge =  0 Multiplicity = 1

                         Standard orientation:
 ---------------------------------------------------------------------
 Center     Atomic      Atomic             Coordinates (Angstroms)
 Number     Number       Type             X           Y           Z
 ---------------------------------------------------------------------
      1          6           0       -1.226771   -1.282562    1.821038
      2          6           0       -2.029867   -2.119928    1.039773
      3          6           0       -2.921722   -1.580997    0.107734
      4          6           0       -2.984953   -0.194056   -0.017505
      5          6           0       -2.198003    0.666532    0.746295
      6          6           0       -1.313249    0.105548    1.672068
      7          1           0       -0.536714   -1.709782    2.542634
      8          1           0       -1.964827   -3.198317    1.153321
      9          1           0       -3.555096   -2.206053   -0.509972
     10          1           0       -2.285185    1.737690    0.610511
     11          1           0       -0.690774    0.758290    2.277458
     12          7           0       -3.925361    0.388160   -1.000896
     13          8           0       -3.962200    1.613293   -1.092156
     14          8           0       -4.607807   -0.391658   -1.661796
     15          6           0        1.703790    2.218075    1.030263
     16          6           0        2.050949    1.068128    1.746940
     17          6           0        2.675289   -0.006277    1.106313
     18          6           0        2.938836    0.103614   -0.258149
     19          6           0        2.605170    1.235966   -0.999591
     20          6           0        1.981519    2.298182   -0.338302
     21          1           0        1.219057    3.047965    1.535943
     22          1           0        1.836479    1.003134    2.809871
     23          1           0        2.954827   -0.908323    1.636963
     24          1           0        2.831791    1.271441   -2.058271
     25          1           0        1.713040    3.190009   -0.897416
     26          7           0        3.599432   -1.027359   -0.947288
     27          8           0        3.820790   -0.905797   -2.150144
     28          8           0        3.883340   -2.013963   -0.271533
 ---------------------------------------------------------------------

 SCF Done:  E(RHF) =  -868.335329986     A.U. after   16 cycles
 E2 =    -0.2602817578D+01 EUMP2 =    -0.87093814756339D+03

 The electronic state is 1-A.
 Alpha  occ. eigenvalues --  -20.61327 -20.61306 -20.61017 -20.60998 -15.86377
 Alpha  occ. eigenvalues --  -15.86063 -11.31879 -11.31439 -11.28519 -11.28394
 Alpha  occ. eigenvalues --  -11.28258 -11.28025 -11.27940 -11.27748 -11.27621
 Alpha  occ. eigenvalues --  -11.27442 -11.27048 -11.26985  -1.60390  -1.60084
 Alpha  occ. eigenvalues --   -1.39940  -1.39638  -1.20074  -1.19599  -1.09467
 Alpha  occ. eigenvalues --   -1.09001  -1.05513  -1.05003  -0.96265  -0.95839
 Alpha  occ. eigenvalues --   -0.86952  -0.86391  -0.83097  -0.82676  -0.78124
 Alpha  occ. eigenvalues --   -0.77717  -0.72596  -0.72283  -0.71711  -0.71405
 Alpha  occ. eigenvalues --   -0.71208  -0.70734  -0.65773  -0.65640  -0.65258
 Alpha  occ. eigenvalues --   -0.64968  -0.62867  -0.62355  -0.56028  -0.55547
 Alpha  occ. eigenvalues --   -0.54065  -0.53623  -0.53229  -0.52935  -0.49366
 Alpha  occ. eigenvalues --   -0.49339  -0.49044  -0.49033  -0.45317  -0.45042
 Alpha  occ. eigenvalues --   -0.38196  -0.37757  -0.36974  -0.36327
 Alpha virt. eigenvalues --    0.04302   0.04910   0.10190   0.11295   0.15754
 Alpha virt. eigenvalues --    0.16397   0.19112   0.22202   0.25601   0.26079
 Alpha virt. eigenvalues --    0.28627   0.29003   0.29824   0.30722   0.32071

 Mulliken charges:
               1
     1  C   -0.172229
     2  C   -0.217060
     3  C   -0.170973
     4  C    0.159201
     5  C   -0.173022
     6  C   -0.205328
     7  H    0.221836
     8  H    0.226274
     9  H    0.277087
    10  H    0.270494
    11  H    0.212147
    12  N    0.488121
    13  O   -0.462607
    14  O   -0.458328
    15  C   -0.173287
    16  C   -0.223744
    17  C   -0.169623
    18  C    0.160628
    19  C   -0.168576
    20  C   -0.216318
    21  H    0.225150
    22  H    0.218085
    23  H    0.273657
    24  H    0.279579
    25  H    0.228766
    26  N    0.488002
    27  O   -0.456663
    28  O   -0.461268
 Sum of Mulliken charges =  -0.00000

 Dipole moment (field-independent basis, Debye):
    X=              1.1113    Y=              1.8706    Z=              5.6102  Tot=              6.0174
 Quadrupole moment (field-independent basis, Debye-Ang):
   XX=           -139.1166   YY=            -97.9825   ZZ=           -103.2904
   XY=             18.8888   XZ=             -2.4093   YZ=             -2.8205

 Normal termination of Gaussian 16 at Thu May  6 19:45:20 2021.
