 Gaussian 16, Revision A.03,
 Gaussian 16:  EM64L-G16RevA.03 25-Dec-2016

 -------------
 #p 6-31g* mp2
 -------------

 ------------------------------------------------------
 Input file generated by CHIRIPA (05-May-2021 14:55:22)
 ------------------------------------------------------
 Symbolic Z-matrix:
 Charge =  0 Multiplicity = 1

                         Standard orientation:
 ---------------------------------------------------------------------
 Center     Atomic      Atomic             Coordinates (Angstroms)
 Number     Number       Type             X           Y           Z
 ---------------------------------------------------------------------
      1          6           0        1.516675   -1.982147    1.769989
      2          6           0        1.017042   -2.223695    0.486034
      3          6           0        1.179912   -1.276289   -0.529073
      4          6           0        1.850492   -0.092875   -0.223878
      5          6           0        2.359653    0.176970    1.045464
      6          6           0        2.185207   -0.784696    2.045122
      7          1           0        1.385658   -2.723653    2.552548
      8          1           0        0.497435   -3.152760    0.269488
      9          1           0        0.803140   -1.437537   -1.531799
     10          1           0        2.873233    1.112499    1.231043
     11          1           0        2.574280   -0.594407    3.041343
     12          7           0        2.029042    0.917650   -1.290348
     13          8           0        2.623531    1.952311   -0.995904
     14          8           0        1.571121    0.655905   -2.400499
     15          6           0       -2.324443    0.849208    0.623673
     16          6           0       -1.977742    2.259715    0.145913
     17          6           0       -1.968709    3.283094    1.281874
     18          1           0       -3.308443    0.865850    1.111949
     19          1           0       -1.600220    0.540943    1.390399
     20          1           0       -2.701583    2.564690   -0.620678
     21          1           0       -0.994538    2.239677   -0.341452
     22          1           0       -1.233816    3.005670    2.044481
     23          1           0       -2.950559    3.332529    1.763668
     24          1           0       -1.718527    4.284544    0.918051
     25          6           0       -2.337483   -0.185090   -0.500509
     26          6           0       -2.684184   -1.595596   -0.022749
     27          6           0       -2.693217   -2.618976   -1.158710
     28          1           0       -3.061705    0.123176   -1.267235
     29          1           0       -1.353483   -0.201731   -0.988785
     30          1           0       -3.667388   -1.575559    0.464616
     31          1           0       -1.960343   -1.900571    0.743842
     32          1           0       -1.711367   -2.668410   -1.640504
     33          1           0       -3.428110   -2.341551   -1.921316
     34          1           0       -2.943399   -3.620425   -0.794887
 ---------------------------------------------------------------------

 SCF Done:  E(RHF) =  -669.534424804     A.U. after   15 cycles
 E2 =    -0.2096225651D+01 EUMP2 =    -0.67163065045513D+03

 The electronic state is 1-A.
 Alpha  occ. eigenvalues --  -20.60926 -20.60912 -15.85964 -11.31325 -11.27895
 Alpha  occ. eigenvalues --  -11.27889 -11.27636 -11.26899 -11.26880 -11.21867
 Alpha  occ. eigenvalues --  -11.21625 -11.21392 -11.21362 -11.21295 -11.20887
 Alpha  occ. eigenvalues --   -1.59991  -1.39543  -1.19514  -1.08900  -1.08469
 Alpha  occ. eigenvalues --   -1.04920  -1.03614  -0.96082  -0.95734  -0.87103
 Alpha  occ. eigenvalues --   -0.86312  -0.82562  -0.79681  -0.78245  -0.77610
 Alpha  occ. eigenvalues --   -0.72177  -0.71324  -0.70621  -0.65219  -0.65109
 Alpha  occ. eigenvalues --   -0.64909  -0.62307  -0.60969  -0.59465  -0.57665
 Alpha  occ. eigenvalues --   -0.55441  -0.55382  -0.53201  -0.52996  -0.52783
 Alpha  occ. eigenvalues --   -0.52501  -0.50057  -0.48940  -0.48935  -0.47990
 Alpha  occ. eigenvalues --   -0.46726  -0.45791  -0.45709  -0.44892  -0.43832
 Alpha  occ. eigenvalues --   -0.37446  -0.36422
 Alpha virt. eigenvalues --    0.04894   0.11010   0.16330   0.19871   0.23008
 Alpha virt. eigenvalues --    0.23841   0.25603   0.26880   0.27175   0.28060
 Alpha virt. eigenvalues --    0.29250   0.30434   0.31233   0.31484   0.32169

 Mulliken charges:
               1
     1  C   -0.172092
     2  C   -0.217330
     3  C   -0.175096
     4  C    0.160760
     5  C   -0.171191
     6  C   -0.218636
     7  H    0.226646
     8  H    0.227193
     9  H    0.277638
    10  H    0.276263
    11  H    0.224198
    12  N    0.488893
    13  O   -0.459503
    14  O   -0.460408
    15  C   -0.299916
    16  C   -0.300512
    17  C   -0.475137
    18  H    0.148214
    19  H    0.148499
    20  H    0.153926
    21  H    0.156121
    22  H    0.151960
    23  H    0.153228
    24  H    0.163825
    25  C   -0.300851
    26  C   -0.303391
    27  C   -0.476775
    28  H    0.152100
    29  H    0.153621
    30  H    0.153362
    31  H    0.148876
    32  H    0.145557
    33  H    0.161688
    34  H    0.158271
 Sum of Mulliken charges =  -0.00000

 Dipole moment (field-independent basis, Debye):
    X=             -0.5599    Y=             -3.4735    Z=              3.7256  Tot=              5.1244
 Quadrupole moment (field-independent basis, Debye-Ang):
   XX=            -95.4685   YY=            -93.4806   ZZ=            -95.2654
   XY=             -5.3157   XZ=              9.3381   YZ=              1.7575

 Normal termination of Gaussian 16 at Wed May  5 17:31:11 2021.
