 Gaussian 16, Revision A.03,
 Gaussian 16:  EM64L-G16RevA.03 25-Dec-2016

 -------------
 #p 6-31g* mp2
 -------------

 ------------------------------------------------------
 Input file generated by CHIRIPA (05-May-2021 14:57:22)
 ------------------------------------------------------
 Symbolic Z-matrix:
 Charge =  0 Multiplicity = 1

                         Standard orientation:
 ---------------------------------------------------------------------
 Center     Atomic      Atomic             Coordinates (Angstroms)
 Number     Number       Type             X           Y           Z
 ---------------------------------------------------------------------
      1          6           0       -3.283848    2.597539    0.222691
      2          6           0       -2.337482    2.105044   -0.681942
      3          6           0       -2.135750    0.728460   -0.819301
      4          6           0       -2.901231   -0.130953   -0.032702
      5          6           0       -3.851729    0.329013    0.877394
      6          6           0       -4.036624    1.709517    0.998105
      7          1           0       -3.434019    3.668425    0.322928
      8          1           0       -1.751436    2.792350   -1.285437
      9          1           0       -1.409819    0.320083   -1.511884
     10          1           0       -4.420851   -0.380828    1.465309
     11          1           0       -4.772289    2.089153    1.701467
     12          7           0       -2.696578   -1.590356   -0.169305
     13          8           0       -3.383697   -2.326646    0.535237
     14          8           0       -1.852926   -1.970312   -0.978331
     15          6           0        3.869111    2.233804    0.053382
     16          6           0        4.322438    1.282460    0.973142
     17          6           0        3.811899   -0.018955    0.958443
     18          6           0        2.844649   -0.336123    0.006012
     19          6           0        2.372785    0.589413   -0.923512
     20          6           0        2.897444    1.884859   -0.890347
     21          1           0        4.271194    3.242456    0.071973
     22          1           0        5.076968    1.550634    1.707180
     23          1           0        4.145022   -0.775141    1.658893
     24          1           0        1.619806    0.292365   -1.643376
     25          1           0        2.543516    2.621622   -1.605860
     26          7           0        2.296690   -1.710713   -0.019324
     27          8           0        1.445239   -1.965048   -0.868430
     28          8           0        2.729027   -2.507755    0.810403
 ---------------------------------------------------------------------

 SCF Done:  E(RHF) =  -868.334623991     A.U. after   16 cycles
 E2 =    -0.2601622184D+01 EUMP2 =    -0.87093624617474D+03

 The electronic state is 1-A.
 Alpha  occ. eigenvalues --  -20.60365 -20.60270 -20.60134 -20.60013 -15.85369
 Alpha  occ. eigenvalues --  -15.85128 -11.31141 -11.30921 -11.27812 -11.27716
 Alpha  occ. eigenvalues --  -11.27576 -11.27555 -11.27519 -11.27369 -11.26901
 Alpha  occ. eigenvalues --  -11.26811 -11.26702 -11.26621  -1.59390  -1.59146
 Alpha  occ. eigenvalues --   -1.38932  -1.38682  -1.19346  -1.19136  -1.08664
 Alpha  occ. eigenvalues --   -1.08453  -1.04816  -1.04609  -0.95435  -0.95211
 Alpha  occ. eigenvalues --   -0.86193  -0.85983  -0.82278  -0.82032  -0.77280
 Alpha  occ. eigenvalues --   -0.76992  -0.71635  -0.71274  -0.70748  -0.70475
 Alpha  occ. eigenvalues --   -0.70442  -0.70233  -0.64990  -0.64836  -0.64773
 Alpha  occ. eigenvalues --   -0.64620  -0.62196  -0.61930  -0.55294  -0.55095
 Alpha  occ. eigenvalues --   -0.53117  -0.52941  -0.52891  -0.52700  -0.48375
 Alpha  occ. eigenvalues --   -0.48349  -0.48128  -0.48060  -0.44388  -0.43820
 Alpha  occ. eigenvalues --   -0.37337  -0.37130  -0.36461  -0.36202
 Alpha virt. eigenvalues --    0.05170   0.05642   0.11135   0.11477   0.16632
 Alpha virt. eigenvalues --    0.17030   0.20168   0.21953   0.25337   0.27458
 Alpha virt. eigenvalues --    0.27890   0.29369   0.29814   0.31478   0.31857

 Mulliken charges:
               1
     1  C   -0.171759
     2  C   -0.217838
     3  C   -0.172953
     4  C    0.159530
     5  C   -0.170760
     6  C   -0.218411
     7  H    0.223158
     8  H    0.216449
     9  H    0.275957
    10  H    0.276451
    11  H    0.222603
    12  N    0.486386
    13  O   -0.463459
    14  O   -0.445629
    15  C   -0.171702
    16  C   -0.218140
    17  C   -0.170707
    18  C    0.160061
    19  C   -0.173507
    20  C   -0.218667
    21  H    0.224167
    22  H    0.223417
    23  H    0.277004
    24  H    0.272967
    25  H    0.218378
    26  N    0.486414
    27  O   -0.448166
    28  O   -0.461244
 Sum of Mulliken charges =  -0.00000

 Dipole moment (field-independent basis, Debye):
    X=              1.2318    Y=              9.6099    Z=              0.5686  Tot=              9.7052
 Quadrupole moment (field-independent basis, Debye-Ang):
   XX=            -86.8084   YY=           -110.3730   ZZ=           -100.3294
   XY=             -1.7931   XZ=             -1.1859   YZ=             -1.6005

 Normal termination of Gaussian 16 at Fri May  7 04:50:58 2021.
