 Gaussian 16, Revision A.03,
 Gaussian 16:  EM64L-G16RevA.03 25-Dec-2016

 -------------
 #p 6-31g* mp2
 -------------

 ------------------------------------------------------
 Input file generated by CHIRIPA (05-May-2021 14:57:26)
 ------------------------------------------------------
 Symbolic Z-matrix:
 Charge =  0 Multiplicity = 1

                         Standard orientation:
 ---------------------------------------------------------------------
 Center     Atomic      Atomic             Coordinates (Angstroms)
 Number     Number       Type             X           Y           Z
 ---------------------------------------------------------------------
      1          6           0       -4.071778    2.426945    0.189849
      2          6           0       -2.688164    2.222076    0.177123
      3          6           0       -2.162541    0.930756    0.073385
      4          6           0       -3.053520   -0.137614   -0.016248
      5          6           0       -4.436883    0.034125   -0.006221
      6          6           0       -4.940191    1.334243    0.098298
      7          1           0       -4.471427    3.433491    0.270739
      8          1           0       -2.011361    3.068804    0.248076
      9          1           0       -1.095660    0.743583    0.061192
     10          1           0       -5.086452   -0.829736   -0.078492
     11          1           0       -6.015171    1.490353    0.107936
     12          7           0       -2.508878   -1.509333   -0.126484
     13          8           0       -3.315025   -2.433851   -0.204149
     14          8           0       -1.286155   -1.633995   -0.133135
     15          6           0        2.040329   -2.347148    0.216606
     16          6           0        2.552177   -1.705569    1.349262
     17          6           0        3.165347   -0.453917    1.240003
     18          6           0        3.249913    0.129899   -0.023047
     19          6           0        2.749576   -0.484076   -1.170212
     20          6           0        2.140485   -1.735433   -1.037306
     21          1           0        1.565588   -3.319346    0.310666
     22          1           0        2.475801   -2.178263    2.324338
     23          1           0        3.570101    0.065048    2.100393
     24          1           0        2.840547    0.012128   -2.128818
     25          1           0        1.743868   -2.231356   -1.918668
     26          7           0        3.896890    1.454811   -0.151231
     27          8           0        3.958866    1.948047   -1.275292
     28          8           0        4.329762    1.974952    0.874786
 ---------------------------------------------------------------------

 SCF Done:  E(RHF) =  -868.339765862     A.U. after   16 cycles
 E2 =    -0.2599439402D+01 EUMP2 =    -0.87093920526395D+03

 The electronic state is 1-A.
 Alpha  occ. eigenvalues --  -20.61357 -20.61326 -20.60423 -20.60418 -15.86373
 Alpha  occ. eigenvalues --  -15.85468 -11.31496 -11.30528 -11.28047 -11.28005
 Alpha  occ. eigenvalues --  -11.27725 -11.27096 -11.27054 -11.27007 -11.26954
 Alpha  occ. eigenvalues --  -11.26582 -11.25960 -11.25878  -1.60423  -1.59512
 Alpha  occ. eigenvalues --   -1.39980  -1.39072  -1.19645  -1.18654  -1.09089
 Alpha  occ. eigenvalues --   -1.08055  -1.05005  -1.04017  -0.95967  -0.94953
 Alpha  occ. eigenvalues --   -0.86414  -0.85404  -0.82801  -0.81813  -0.77874
 Alpha  occ. eigenvalues --   -0.76938  -0.72630  -0.71731  -0.71685  -0.70846
 Alpha  occ. eigenvalues --   -0.70744  -0.69665  -0.65298  -0.64997  -0.64281
 Alpha  occ. eigenvalues --   -0.63989  -0.62348  -0.61388  -0.55514  -0.54396
 Alpha  occ. eigenvalues --   -0.53356  -0.53087  -0.52337  -0.52092  -0.49375
 Alpha  occ. eigenvalues --   -0.49352  -0.48462  -0.48414  -0.45443  -0.44547
 Alpha  occ. eigenvalues --   -0.37615  -0.36600  -0.36474  -0.35627
 Alpha virt. eigenvalues --    0.04611   0.05609   0.11057   0.12057   0.16161
 Alpha virt. eigenvalues --    0.17248   0.21240   0.22279   0.27168   0.28034
 Alpha virt. eigenvalues --    0.28112   0.29205   0.30807   0.31897   0.32253

 Mulliken charges:
               1
     1  C   -0.170112
     2  C   -0.218906
     3  C   -0.171862
     4  C    0.156689
     5  C   -0.171088
     6  C   -0.218725
     7  H    0.227620
     8  H    0.228087
     9  H    0.277607
    10  H    0.275090
    11  H    0.224260
    12  N    0.492022
    13  O   -0.460562
    14  O   -0.469963
    15  C   -0.153275
    16  C   -0.221638
    17  C   -0.174600
    18  C    0.153542
    19  C   -0.177675
    20  C   -0.210807
    21  H    0.233526
    22  H    0.221552
    23  H    0.271528
    24  H    0.271604
    25  H    0.225988
    26  N    0.487695
    27  O   -0.463868
    28  O   -0.463728
 Sum of Mulliken charges =  -0.00000

 Dipole moment (field-independent basis, Debye):
    X=             -4.5214    Y=             -0.0481    Z=              0.8210  Tot=              4.5956
 Quadrupole moment (field-independent basis, Debye-Ang):
   XX=           -105.2189   YY=           -107.1273   ZZ=           -101.0623
   XY=            -29.2450   XZ=              1.3919   YZ=              0.2751

 Normal termination of Gaussian 16 at Fri May  7 06:37:11 2021.
