 Gaussian 16, Revision A.03,
 Gaussian 16:  EM64L-G16RevA.03 25-Dec-2016

 -------------
 #p 6-31g* mp2
 -------------

 ------------------------------------------------------
 Input file generated by CHIRIPA (05-May-2021 14:53:16)
 ------------------------------------------------------
 Symbolic Z-matrix:
 Charge =  0 Multiplicity = 1

                         Standard orientation:
 ---------------------------------------------------------------------
 Center     Atomic      Atomic             Coordinates (Angstroms)
 Number     Number       Type             X           Y           Z
 ---------------------------------------------------------------------
      1          6           0       -3.467433   -0.152523   -0.301202
      2          6           0       -2.525491   -1.350840   -0.179686
      3          6           0       -1.072760   -0.995459   -0.497601
      4          1           0       -3.402533    0.255024   -1.319357
      5          1           0       -3.126890    0.642854    0.376146
      6          1           0       -2.868511   -2.144245   -0.856045
      7          1           0       -2.592784   -1.755699    0.838241
      8          1           0       -0.707417   -0.221119    0.184691
      9          1           0       -0.984710   -0.611873   -1.519222
     10          1           0       -0.416761   -1.866593   -0.404583
     11          6           0       -4.923264   -0.491951    0.013558
     12          6           0       -5.865206    0.706366   -0.107958
     13          6           0       -7.317937    0.350985    0.209957
     14          1           0       -5.263807   -1.287328   -0.663791
     15          1           0       -4.988164   -0.899498    1.031713
     16          1           0       -5.797912    1.111225   -1.125885
     17          1           0       -5.522186    1.499771    0.568401
     18          1           0       -7.405987   -0.032601    1.231578
     19          1           0       -7.683280   -0.423355   -0.472336
     20          1           0       -7.973936    1.222119    0.116939
     21          6           0        2.247465    2.554036    0.176994
     22          6           0        1.574167    1.469585    0.748969
     23          6           0        2.135455    0.189504    0.719003
     24          6           0        3.377207    0.029171    0.106113
     25          6           0        4.072665    1.089752   -0.472503
     26          6           0        3.492370    2.360999   -0.430845
     27          1           0        1.804060    3.545003    0.204813
     28          1           0        0.607225    1.616541    1.221697
     29          1           0        1.635948   -0.667588    1.154093
     30          1           0        5.035175    0.912078   -0.936642
     31          1           0        4.017540    3.201360   -0.875857
     32          7           0        3.981479   -1.321317    0.068200
     33          8           0        5.076634   -1.436246   -0.477751
     34          8           0        3.348509   -2.239329    0.585153
 ---------------------------------------------------------------------

 SCF Done:  E(RHF) =  -669.534265030     A.U. after   15 cycles
 E2 =    -0.2092402004D+01 EUMP2 =    -0.67162666703394D+03

 The electronic state is 1-A.
 Alpha  occ. eigenvalues --  -20.60735 -20.60729 -15.85786 -11.31122 -11.27709
 Alpha  occ. eigenvalues --  -11.27675 -11.27458 -11.26718 -11.26706 -11.21944
 Alpha  occ. eigenvalues --  -11.21920 -11.21806 -11.21692 -11.21480 -11.21327
 Alpha  occ. eigenvalues --   -1.59808  -1.39363  -1.19312  -1.08792  -1.08710
 Alpha  occ. eigenvalues --   -1.04732  -1.03874  -0.96346  -0.95544  -0.87368
 Alpha  occ. eigenvalues --   -0.86115  -0.82396  -0.79952  -0.78609  -0.77426
 Alpha  occ. eigenvalues --   -0.72007  -0.71130  -0.70427  -0.65438  -0.64970
 Alpha  occ. eigenvalues --   -0.64740  -0.62170  -0.61218  -0.59688  -0.57938
 Alpha  occ. eigenvalues --   -0.55669  -0.55202  -0.53250  -0.53043  -0.52717
 Alpha  occ. eigenvalues --   -0.52612  -0.50279  -0.48763  -0.48761  -0.48249
 Alpha  occ. eigenvalues --   -0.46978  -0.46146  -0.46074  -0.44775  -0.44125
 Alpha  occ. eigenvalues --   -0.37297  -0.36243
 Alpha virt. eigenvalues --    0.05093   0.11298   0.16491   0.20455   0.22706
 Alpha virt. eigenvalues --    0.23978   0.25769   0.26771   0.27000   0.28109
 Alpha virt. eigenvalues --    0.29271   0.29643   0.31409   0.31636   0.32369

 Mulliken charges:
               1
     1  C   -0.297310
     2  C   -0.300681
     3  C   -0.479910
     4  H    0.150400
     5  H    0.143376
     6  H    0.155625
     7  H    0.152284
     8  H    0.143824
     9  H    0.158549
    10  H    0.169769
    11  C   -0.298492
    12  C   -0.299629
    13  C   -0.475884
    14  H    0.151535
    15  H    0.150258
    16  H    0.152109
    17  H    0.150250
    18  H    0.155645
    19  H    0.156279
    20  H    0.160585
    21  C   -0.171464
    22  C   -0.218425
    23  C   -0.164994
    24  C    0.155829
    25  C   -0.171047
    26  C   -0.218983
    27  H    0.225390
    28  H    0.222357
    29  H    0.277572
    30  H    0.275341
    31  H    0.223137
    32  N    0.488454
    33  O   -0.460540
    34  O   -0.461209
 Sum of Mulliken charges =  -0.00000

 Dipole moment (field-independent basis, Debye):
    X=             -2.1922    Y=              4.6821    Z=              0.0663  Tot=              5.1704
 Quadrupole moment (field-independent basis, Debye-Ang):
   XX=           -107.2800   YY=            -94.2173   ZZ=            -93.2664
   XY=             17.9133   XZ=             -1.5426   YZ=             -0.2407

 Normal termination of Gaussian 16 at Wed May  5 15:41:31 2021.
