 Gaussian 16, Revision A.03,
 Gaussian 16:  EM64L-G16RevA.03 25-Dec-2016

 -------------
 #p 6-31g* mp2
 -------------

 ------------------------------------------------------
 Input file generated by CHIRIPA (05-May-2021 14:55:23)
 ------------------------------------------------------
 Symbolic Z-matrix:
 Charge =  0 Multiplicity = 1

                         Standard orientation:
 ---------------------------------------------------------------------
 Center     Atomic      Atomic             Coordinates (Angstroms)
 Number     Number       Type             X           Y           Z
 ---------------------------------------------------------------------
      1          6           0       -1.338793    0.670433    0.783584
      2          6           0       -1.589611    0.335651   -0.551157
      3          6           0       -2.855728   -0.106184   -0.946476
      4          6           0       -3.852315   -0.201835    0.023553
      5          6           0       -3.633472    0.124305    1.361099
      6          6           0       -2.359724    0.563879    1.733777
      7          1           0       -0.352279    1.012783    1.081883
      8          1           0       -0.798647    0.417430   -1.291247
      9          1           0       -3.077304   -0.371900   -1.972983
     10          1           0       -4.442013    0.032540    2.076123
     11          1           0       -2.167808    0.823189    2.771067
     12          7           0       -5.196735   -0.668389   -0.382969
     13          8           0       -6.057786   -0.744008    0.490821
     14          8           0       -5.363985   -0.949620   -1.567694
     15          6           0        5.180824   -0.308297   -0.398043
     16          6           0        5.755895   -1.269466    0.642837
     17          6           0        6.821938   -2.199736    0.063233
     18          1           0        4.751919   -0.888705   -1.226361
     19          1           0        5.997554    0.289760   -0.825447
     20          1           0        4.938134   -1.864567    1.069144
     21          1           0        6.183310   -0.686705    1.468865
     22          1           0        7.656975   -1.621456   -0.345309
     23          1           0        6.404725   -2.806011   -0.747301
     24          1           0        7.219462   -2.878293    0.824414
     25          6           0        4.113865    0.628145    0.166229
     26          6           0        3.538794    1.589314   -0.874652
     27          6           0        2.472750    2.519585   -0.295047
     28          1           0        3.297135    0.030087    0.593633
     29          1           0        4.542770    1.208554    0.994547
     30          1           0        3.111379    1.006553   -1.700679
     31          1           0        4.356554    2.184415   -1.300958
     32          1           0        2.889965    3.125859    0.515487
     33          1           0        1.637714    1.941304    0.113495
     34          1           0        2.075227    3.198141   -1.056228
 ---------------------------------------------------------------------

 SCF Done:  E(RHF) =  -669.535430574     A.U. after   15 cycles
 E2 =    -0.2090953115D+01 EUMP2 =    -0.67162638368889D+03

 The electronic state is 1-A.
 Alpha  occ. eigenvalues --  -20.60740 -20.60735 -15.85794 -11.31156 -11.27726
 Alpha  occ. eigenvalues --  -11.27723 -11.27450 -11.26739 -11.26728 -11.22591
 Alpha  occ. eigenvalues --  -11.22315 -11.22260 -11.22177 -11.22052 -11.21536
 Alpha  occ. eigenvalues --   -1.59816  -1.39370  -1.19328  -1.09230  -1.08724
 Alpha  occ. eigenvalues --   -1.04732  -1.04339  -0.96801  -0.95560  -0.87818
 Alpha  occ. eigenvalues --   -0.86128  -0.82395  -0.80410  -0.79008  -0.77440
 Alpha  occ. eigenvalues --   -0.72012  -0.71139  -0.70463  -0.65866  -0.64981
 Alpha  occ. eigenvalues --   -0.64738  -0.62088  -0.61734  -0.60177  -0.58398
 Alpha  occ. eigenvalues --   -0.56168  -0.55208  -0.53483  -0.53204  -0.53059
 Alpha  occ. eigenvalues --   -0.52822  -0.50743  -0.48777  -0.48767  -0.48711
 Alpha  occ. eigenvalues --   -0.47443  -0.46555  -0.46460  -0.44776  -0.44573
 Alpha  occ. eigenvalues --   -0.37306  -0.36337
 Alpha virt. eigenvalues --    0.05094   0.11315   0.16582   0.19053   0.22513
 Alpha virt. eigenvalues --    0.23830   0.25150   0.26178   0.26862   0.27524
 Alpha virt. eigenvalues --    0.28762   0.30153   0.30892   0.31363   0.31976

 Mulliken charges:
               1
     1  C   -0.175592
     2  C   -0.220842
     3  C   -0.170948
     4  C    0.158285
     5  C   -0.170789
     6  C   -0.219174
     7  H    0.232849
     8  H    0.223574
     9  H    0.275479
    10  H    0.275462
    11  H    0.223892
    12  N    0.488036
    13  O   -0.460476
    14  O   -0.460558
    15  C   -0.298756
    16  C   -0.300203
    17  C   -0.476148
    18  H    0.150361
    19  H    0.151533
    20  H    0.151940
    21  H    0.152616
    22  H    0.156123
    23  H    0.156019
    24  H    0.161914
    25  C   -0.298245
    26  C   -0.300020
    27  C   -0.479935
    28  H    0.145318
    29  H    0.151478
    30  H    0.150885
    31  H    0.156880
    32  H    0.160122
    33  H    0.144005
    34  H    0.164916
 Sum of Mulliken charges =  -0.00000

 Dipole moment (field-independent basis, Debye):
    X=              4.9765    Y=              1.6735    Z=              1.4107  Tot=              5.4366
 Quadrupole moment (field-independent basis, Debye-Ang):
   XX=           -130.4849   YY=            -96.0592   ZZ=            -90.2756
   XY=             -6.2858   XZ=             -6.8966   YZ=              0.1957

 Normal termination of Gaussian 16 at Thu May  6 17:37:13 2021.
