 Gaussian 16, Revision A.03,
 Gaussian 16:  EM64L-G16RevA.03 25-Dec-2016

 -------------
 #p 6-31g* mp2
 -------------

 ------------------------------------------------------
 Input file generated by CHIRIPA (05-May-2021 14:53:12)
 ------------------------------------------------------
 Symbolic Z-matrix:
 Charge =  0 Multiplicity = 1

                         Standard orientation:
 ---------------------------------------------------------------------
 Center     Atomic      Atomic             Coordinates (Angstroms)
 Number     Number       Type             X           Y           Z
 ---------------------------------------------------------------------
      1          6           0       -3.625789   -0.379442   -0.593088
      2          6           0       -3.402308   -1.797306   -0.066111
      3          6           0       -3.441962   -2.852172   -1.172221
      4          1           0       -4.594627   -0.335383   -1.109187
      5          1           0       -2.859505   -0.150828   -1.346705
      6          1           0       -4.167953   -2.022673    0.687291
      7          1           0       -2.433976   -1.837947    0.448960
      8          1           0       -2.667542   -2.654987   -1.920548
      9          1           0       -4.411371   -2.840763   -1.680863
     10          1           0       -3.279941   -3.858410   -0.773356
     11          6           0       -3.588965    0.686257    0.500831
     12          6           0       -3.812447    2.104120   -0.026147
     13          6           0       -3.772793    3.158986    1.079964
     14          1           0       -4.355249    0.457642    1.254448
     15          1           0       -2.620128    0.642197    1.016929
     16          1           0       -4.780779    2.144761   -0.541217
     17          1           0       -3.046802    2.329487   -0.779548
     18          1           0       -2.803384    3.147577    1.588606
     19          1           0       -4.547212    2.961801    1.828291
     20          1           0       -3.934814    4.165224    0.681099
     21          6           0        1.460758   -2.068290    0.888494
     22          6           0        0.850227   -1.074003    0.117023
     23          6           0        1.592619    0.010095   -0.360611
     24          6           0        2.949503    0.068519   -0.046374
     25          6           0        3.586494   -0.906325    0.719924
     26          6           0        2.824539   -1.981430    1.186955
     27          1           0        0.876451   -2.906950    1.255413
     28          1           0       -0.208729   -1.138859   -0.116326
     29          1           0        1.145295    0.793771   -0.959920
     30          1           0        4.643950   -0.814272    0.936095
     31          1           0        3.301339   -2.752147    1.785873
     32          7           0        3.745795    1.211445   -0.546412
     33          8           0        4.939659    1.239783   -0.255688
     34          8           0        3.160986    2.057291   -1.219598
 ---------------------------------------------------------------------

 SCF Done:  E(RHF) =  -669.535473848     A.U. after   15 cycles
 E2 =    -0.2091532980D+01 EUMP2 =    -0.67162700682856D+03

 The electronic state is 1-A.
 Alpha  occ. eigenvalues --  -20.60767 -20.60762 -15.85820 -11.31187 -11.27759
 Alpha  occ. eigenvalues --  -11.27756 -11.27497 -11.26771 -11.26743 -11.22677
 Alpha  occ. eigenvalues --  -11.22273 -11.22121 -11.22061 -11.21997 -11.21411
 Alpha  occ. eigenvalues --   -1.59843  -1.39396  -1.19360  -1.09233  -1.08753
 Alpha  occ. eigenvalues --   -1.04766  -1.04264  -0.96688  -0.95589  -0.87703
 Alpha  occ. eigenvalues --   -0.86165  -0.82422  -0.80352  -0.79004  -0.77472
 Alpha  occ. eigenvalues --   -0.72039  -0.71166  -0.70468  -0.65991  -0.65012
 Alpha  occ. eigenvalues --   -0.64717  -0.62175  -0.61588  -0.60075  -0.58289
 Alpha  occ. eigenvalues --   -0.55977  -0.55261  -0.53374  -0.53100  -0.53090
 Alpha  occ. eigenvalues --   -0.52861  -0.50632  -0.48811  -0.48794  -0.48628
 Alpha  occ. eigenvalues --   -0.47415  -0.46529  -0.46463  -0.44801  -0.44520
 Alpha  occ. eigenvalues --   -0.37339  -0.36367
 Alpha virt. eigenvalues --    0.05064   0.11252   0.16532   0.18338   0.22895
 Alpha virt. eigenvalues --    0.23618   0.25389   0.26129   0.27134   0.28333
 Alpha virt. eigenvalues --    0.29221   0.30184   0.31000   0.31393   0.31964

 Mulliken charges:
               1
     1  C   -0.300298
     2  C   -0.303189
     3  C   -0.476881
     4  H    0.155093
     5  H    0.146106
     6  H    0.157813
     7  H    0.140691
     8  H    0.154649
     9  H    0.160555
    10  H    0.160789
    11  C   -0.299478
    12  C   -0.300149
    13  C   -0.476326
    14  H    0.152138
    15  H    0.146796
    16  H    0.153734
    17  H    0.152464
    18  H    0.156686
    19  H    0.155524
    20  H    0.163412
    21  C   -0.172661
    22  C   -0.227174
    23  C   -0.172536
    24  C    0.159010
    25  C   -0.171166
    26  C   -0.218472
    27  H    0.225764
    28  H    0.235406
    29  H    0.275509
    30  H    0.275641
    31  H    0.223473
    32  N    0.487996
    33  O   -0.460411
    34  O   -0.460508
 Sum of Mulliken charges =  -0.00000

 Dipole moment (field-independent basis, Debye):
    X=             -3.0108    Y=             -3.9813    Z=              1.7565  Tot=              5.2916
 Quadrupole moment (field-independent basis, Debye-Ang):
   XX=           -106.1414   YY=            -95.6455   ZZ=            -95.0525
   XY=            -13.8894   XZ=              7.4389   YZ=             -1.2453

 Normal termination of Gaussian 16 at Wed May  5 21:45:19 2021.
