 Gaussian 16, Revision A.03,
 Gaussian 16:  EM64L-G16RevA.03 25-Dec-2016

 -------------
 #p 6-31g* mp2
 -------------

 ------------------------------------------------------
 Input file generated by CHIRIPA (05-May-2021 14:57:22)
 ------------------------------------------------------
 Symbolic Z-matrix:
 Charge =  0 Multiplicity = 1

                         Standard orientation:
 ---------------------------------------------------------------------
 Center     Atomic      Atomic             Coordinates (Angstroms)
 Number     Number       Type             X           Y           Z
 ---------------------------------------------------------------------
      1          6           0        3.082223    2.227507   -1.229649
      2          6           0        2.077707    2.078331   -0.267767
      3          6           0        2.009205    0.921117    0.513713
      4          6           0        2.965761   -0.071397    0.305853
      5          6           0        3.978634    0.047739   -0.644508
      6          6           0        4.027813    1.213522   -1.414623
      7          1           0        3.127932    3.129787   -1.832307
      8          1           0        1.342014    2.864164   -0.121934
      9          1           0        1.242174    0.779607    1.265416
     10          1           0        4.697935   -0.752911   -0.766916
     11          1           0        4.809047    1.326647   -2.160895
     12          7           0        2.903469   -1.301023    1.127156
     13          8           0        3.758079   -2.160829    0.924642
     14          8           0        2.001213   -1.381716    1.957854
     15          6           0       -3.916823    1.879976    1.027736
     16          6           0       -2.542424    1.790000    0.783907
     17          6           0       -2.010111    0.680241    0.120864
     18          6           0       -2.885076   -0.325700   -0.286333
     19          6           0       -4.258948   -0.265072   -0.058103
     20          6           0       -4.769195    0.853962    0.606695
     21          1           0       -4.321766    2.745667    1.543485
     22          1           0       -1.878081    2.585309    1.109755
     23          1           0       -0.950089    0.584980   -0.080875
     24          1           0       -4.896128   -1.073763   -0.394910
     25          1           0       -5.836990    0.921155    0.794696
     26          7           0       -2.333219   -1.505461   -0.989197
     27          8           0       -3.125230   -2.378283   -1.337820
     28          8           0       -1.119112   -1.534999   -1.178168
 ---------------------------------------------------------------------

 SCF Done:  E(RHF) =  -868.336294117     A.U. after   16 cycles
 E2 =    -0.2601282627D+01 EUMP2 =    -0.87093757674372D+03

 The electronic state is 1-A.
 Alpha  occ. eigenvalues --  -20.60714 -20.60699 -20.60558 -20.60553 -15.85771
 Alpha  occ. eigenvalues --  -15.85626 -11.31298 -11.31220 -11.27933 -11.27920
 Alpha  occ. eigenvalues --  -11.27871 -11.27762 -11.27685 -11.27598 -11.27040
 Alpha  occ. eigenvalues --  -11.27016 -11.26912 -11.26827  -1.59777  -1.59618
 Alpha  occ. eigenvalues --   -1.39328  -1.39172  -1.19498  -1.19414  -1.08858
 Alpha  occ. eigenvalues --   -1.08756  -1.04978  -1.04865  -0.95672  -0.95560
 Alpha  occ. eigenvalues --   -0.86346  -0.86248  -0.82532  -0.82406  -0.77588
 Alpha  occ. eigenvalues --   -0.77379  -0.71995  -0.71852  -0.71098  -0.70922
 Alpha  occ. eigenvalues --   -0.70696  -0.70457  -0.65167  -0.65098  -0.65020
 Alpha  occ. eigenvalues --   -0.64856  -0.62536  -0.62022  -0.55453  -0.55334
 Alpha  occ. eigenvalues --   -0.53275  -0.53241  -0.53043  -0.52864  -0.48760
 Alpha  occ. eigenvalues --   -0.48733  -0.48621  -0.48586  -0.44699  -0.44529
 Alpha  occ. eigenvalues --   -0.37469  -0.37356  -0.36550  -0.36479
 Alpha virt. eigenvalues --    0.05018   0.05102   0.11006   0.11230   0.16462
 Alpha virt. eigenvalues --    0.16475   0.19245   0.22187   0.25107   0.27596
 Alpha virt. eigenvalues --    0.28132   0.29804   0.30123   0.31890   0.32119

 Mulliken charges:
               1
     1  C   -0.169571
     2  C   -0.218907
     3  C   -0.173378
     4  C    0.164836
     5  C   -0.168327
     6  C   -0.216915
     7  H    0.225535
     8  H    0.215444
     9  H    0.270366
    10  H    0.277931
    11  H    0.224877
    12  N    0.490008
    13  O   -0.458407
    14  O   -0.459940
    15  C   -0.170049
    16  C   -0.220565
    17  C   -0.174349
    18  C    0.159205
    19  C   -0.169108
    20  C   -0.218578
    21  H    0.225548
    22  H    0.215416
    23  H    0.277301
    24  H    0.277071
    25  H    0.224392
    26  N    0.487869
    27  O   -0.459498
    28  O   -0.458205
 Sum of Mulliken charges =  -0.00000

 Dipole moment (field-independent basis, Debye):
    X=             -1.5966    Y=              8.2108    Z=             -0.5156  Tot=              8.3805
 Quadrupole moment (field-independent basis, Debye-Ang):
   XX=            -83.7418   YY=           -108.1757   ZZ=           -108.2828
   XY=              1.7887   XZ=            -17.4055   YZ=              0.5477

 Normal termination of Gaussian 16 at Thu May  6 22:42:30 2021.
