 Gaussian 16, Revision A.03,
 Gaussian 16:  EM64L-G16RevA.03 25-Dec-2016

 -------------
 #p 6-31g* mp2
 -------------

 ------------------------------------------------------
 Input file generated by CHIRIPA (05-May-2021 14:51:12)
 ------------------------------------------------------
 Symbolic Z-matrix:
 Charge =  0 Multiplicity = 1

                         Standard orientation:
 ---------------------------------------------------------------------
 Center     Atomic      Atomic             Coordinates (Angstroms)
 Number     Number       Type             X           Y           Z
 ---------------------------------------------------------------------
      1          6           0       -3.686941   -0.441267   -0.331418
      2          6           0       -3.998913   -1.616318    0.595898
      3          6           0       -4.139333   -2.940822   -0.154944
      4          1           0       -4.482552   -0.355150   -1.084102
      5          1           0       -2.758885   -0.652797   -0.880382
      6          1           0       -4.925366   -1.402026    1.143968
      7          1           0       -3.202565   -1.699529    1.346579
      8          1           0       -3.214002   -3.181229   -0.688393
      9          1           0       -4.946591   -2.882035   -0.892155
     10          1           0       -4.362258   -3.767263    0.527083
     11          6           0       -3.543638    0.889761    0.404487
     12          6           0       -3.231667    2.064811   -0.522830
     13          6           0       -3.091247    3.389316    0.228012
     14          1           0       -4.471695    1.101291    0.953451
     15          1           0       -2.748028    0.803644    1.157170
     16          1           0       -4.028014    2.148023   -1.273511
     17          1           0       -2.305214    1.850520   -1.070900
     18          1           0       -2.283989    3.330529    0.965223
     19          1           0       -4.016578    3.629722    0.761461
     20          1           0       -2.868322    4.215757   -0.454014
     21          6           0        3.012810   -0.691958    0.004655
     22          6           0        1.680766    0.010255   -0.260942
     23          6           0        0.484867   -0.938550   -0.174988
     24          1           0        3.139252   -1.509943   -0.717741
     25          1           0        2.982583   -1.156036    1.000202
     26          1           0        1.714005    0.474046   -1.255130
     27          1           0        1.557568    0.826785    0.462048
     28          1           0        0.423541   -1.391951    0.819632
     29          1           0        0.580867   -1.746696   -0.907303
     30          1           0       -0.457065   -0.415771   -0.368187
     31          6           0        4.217770    0.243464   -0.077724
     32          6           0        5.549814   -0.458748    0.187873
     33          6           0        6.745713    0.490056    0.101919
     34          1           0        4.247997    0.707542   -1.073271
     35          1           0        4.091327    1.061450    0.644672
     36          1           0        5.673011   -1.275279   -0.535117
     37          1           0        5.516575   -0.922539    1.182061
     38          1           0        6.649714    1.298202    0.834234
     39          1           0        6.807039    0.943457   -0.892701
     40          1           0        7.687645   -0.032723    0.295118
 ---------------------------------------------------------------------

 SCF Done:  E(RHF) =  -470.733232736     A.U. after   11 cycles
 E2 =    -0.1583013950D+01 EUMP2 =    -0.47231624668556D+03

 The electronic state is 1-A.
 Alpha  occ. eigenvalues --  -11.21674 -11.21629 -11.21607 -11.21546 -11.21448
 Alpha  occ. eigenvalues --  -11.21387 -11.21371 -11.21300 -11.21153 -11.21092
 Alpha  occ. eigenvalues --  -11.21069 -11.21013  -1.08480  -1.08402  -1.03582
 Alpha  occ. eigenvalues --   -1.03499  -0.96046  -0.95939  -0.87059  -0.86961
 Alpha  occ. eigenvalues --   -0.79652  -0.79560  -0.78288  -0.78217  -0.65112
 Alpha  occ. eigenvalues --   -0.65080  -0.60976  -0.60897  -0.59405  -0.59316
 Alpha  occ. eigenvalues --   -0.57666  -0.57545  -0.55318  -0.55248  -0.52745
 Alpha  occ. eigenvalues --   -0.52642  -0.52465  -0.52343  -0.49973  -0.49888
 Alpha  occ. eigenvalues --   -0.47969  -0.47883  -0.46683  -0.46593  -0.45831
 Alpha  occ. eigenvalues --   -0.45756  -0.45756  -0.45679  -0.43801  -0.43731
 Alpha virt. eigenvalues --    0.20346   0.23029   0.23988   0.24790   0.26135
 Alpha virt. eigenvalues --    0.26496   0.27135   0.27570   0.27822   0.29139
 Alpha virt. eigenvalues --    0.30698   0.31199   0.31790   0.31913   0.32224

 Mulliken charges:
               1
     1  C   -0.302904
     2  C   -0.299492
     3  C   -0.475971
     4  H    0.149705
     5  H    0.153679
     6  H    0.151557
     7  H    0.152660
     8  H    0.156031
     9  H    0.154799
    10  H    0.159961
    11  C   -0.299490
    12  C   -0.300925
    13  C   -0.475532
    14  H    0.149842
    15  H    0.150369
    16  H    0.152199
    17  H    0.152052
    18  H    0.155145
    19  H    0.155229
    20  H    0.160278
    21  C   -0.298619
    22  C   -0.299128
    23  C   -0.484211
    24  H    0.149818
    25  H    0.149625
    26  H    0.152118
    27  H    0.151901
    28  H    0.155394
    29  H    0.155353
    30  H    0.168088
    31  C   -0.298287
    32  C   -0.299675
    33  C   -0.475734
    34  H    0.149634
    35  H    0.149722
    36  H    0.152008
    37  H    0.151977
    38  H    0.155232
    39  H    0.155240
    40  H    0.160353
 Sum of Mulliken charges =  -0.00000

 Dipole moment (field-independent basis, Debye):
    X=              0.0231    Y=             -0.0031    Z=             -0.0011  Tot=              0.0233
 Quadrupole moment (field-independent basis, Debye-Ang):
   XX=            -84.7453   YY=            -86.1120   ZZ=            -83.9188
   XY=             -0.8822   XZ=             -0.0041   YZ=             -0.2017

 Normal termination of Gaussian 16 at Wed May  5 23:09:07 2021.
