 Gaussian 16, Revision A.03,
 Gaussian 16:  EM64L-G16RevA.03 25-Dec-2016

 -------------
 #p 6-31g* mp2
 -------------

 ------------------------------------------------------
 Input file generated by CHIRIPA (05-May-2021 14:57:24)
 ------------------------------------------------------
 Symbolic Z-matrix:
 Charge =  0 Multiplicity = 1

                         Standard orientation:
 ---------------------------------------------------------------------
 Center     Atomic      Atomic             Coordinates (Angstroms)
 Number     Number       Type             X           Y           Z
 ---------------------------------------------------------------------
      1          6           0       -1.889750   -1.736124    0.176116
      2          6           0       -2.735029   -1.529921    1.271335
      3          6           0       -3.812385   -0.643655    1.179769
      4          6           0       -4.016085    0.022706   -0.027608
      5          6           0       -3.191582   -0.161426   -1.136473
      6          6           0       -2.120318   -1.052424   -1.022180
      7          1           0       -1.055200   -2.426435    0.256075
      8          1           0       -2.558374   -2.059521    2.203195
      9          1           0       -4.482363   -0.465213    2.012058
     10          1           0       -3.393040    0.380954   -2.052255
     11          1           0       -1.465497   -1.210593   -1.874375
     12          7           0       -5.153409    0.963462   -0.136575
     13          8           0       -5.311459    1.538327   -1.211371
     14          8           0       -5.865258    1.108146    0.854875
     15          6           0        6.271882    0.756407    0.093532
     16          6           0        5.890271   -0.523990   -0.320566
     17          6           0        4.539443   -0.880748   -0.370916
     18          6           0        3.592437    0.072009    0.001539
     19          6           0        3.941093    1.355711    0.418479
     20          6           0        5.297792    1.690524    0.461084
     21          1           0        7.323517    1.025022    0.129637
     22          1           0        6.644588   -1.251479   -0.606590
     23          1           0        4.216173   -1.864921   -0.687646
     24          1           0        3.166246    2.059397    0.697508
     25          1           0        5.591238    2.685639    0.783082
     26          7           0        2.159268   -0.294059   -0.047665
     27          8           0        1.344292    0.563483    0.285615
     28          8           0        1.878062   -1.431592   -0.418580
 ---------------------------------------------------------------------

 SCF Done:  E(RHF) =  -868.340354996     A.U. after   16 cycles
 E2 =    -0.2598705675D+01 EUMP2 =    -0.87093906067119D+03

 The electronic state is 1-A.
 Alpha  occ. eigenvalues --  -20.61799 -20.61754 -20.59699 -20.59692 -15.86787
 Alpha  occ. eigenvalues --  -15.84743 -11.31875 -11.29783 -11.28424 -11.28387
 Alpha  occ. eigenvalues --  -11.28094 -11.27364 -11.27339 -11.26384 -11.26317
 Alpha  occ. eigenvalues --  -11.25833 -11.25271 -11.25140  -1.60836  -1.58782
 Alpha  occ. eigenvalues --   -1.40395  -1.38345  -1.20020  -1.17911  -1.09468
 Alpha  occ. eigenvalues --   -1.07321  -1.05378  -1.03291  -0.96349  -0.94222
 Alpha  occ. eigenvalues --   -0.86789  -0.84681  -0.83189  -0.81095  -0.78267
 Alpha  occ. eigenvalues --   -0.76219  -0.73019  -0.72136  -0.71120  -0.70972
 Alpha  occ. eigenvalues --   -0.70101  -0.68934  -0.65674  -0.65375  -0.63556
 Alpha  occ. eigenvalues --   -0.63288  -0.62726  -0.60677  -0.55888  -0.53732
 Alpha  occ. eigenvalues --   -0.53663  -0.53461  -0.51621  -0.51385  -0.49789
 Alpha  occ. eigenvalues --   -0.49718  -0.47742  -0.47695  -0.45859  -0.43826
 Alpha  occ. eigenvalues --   -0.37982  -0.36968  -0.35758  -0.34893
 Alpha virt. eigenvalues --    0.04237   0.06336   0.10690   0.12785   0.15793
 Alpha virt. eigenvalues --    0.17947   0.20870   0.22962   0.26801   0.27741
 Alpha virt. eigenvalues --    0.28694   0.29897   0.30490   0.31945   0.32607

 Mulliken charges:
               1
     1  C   -0.161049
     2  C   -0.220534
     3  C   -0.172225
     4  C    0.156776
     5  C   -0.172768
     6  C   -0.212329
     7  H    0.236773
     8  H    0.217833
     9  H    0.270092
    10  H    0.270364
    11  H    0.225000
    12  N    0.488392
    13  O   -0.464418
    14  O   -0.464958
    15  C   -0.169735
    16  C   -0.218535
    17  C   -0.170876
    18  C    0.157457
    19  C   -0.170403
    20  C   -0.218574
    21  H    0.228024
    22  H    0.225079
    23  H    0.274425
    24  H    0.277605
    25  H    0.226136
    26  N    0.488995
    27  O   -0.454451
    28  O   -0.472097
 Sum of Mulliken charges =  -0.00000

 Dipole moment (field-independent basis, Debye):
    X=              9.7262    Y=             -2.0135    Z=              0.5458  Tot=              9.9474
 Quadrupole moment (field-independent basis, Debye-Ang):
   XX=           -102.3529   YY=           -101.1626   ZZ=           -100.9585
   XY=             18.1226   XZ=             -2.6329   YZ=              0.9096

 Normal termination of Gaussian 16 at Thu May  6 00:20:06 2021.
