 Gaussian 16, Revision A.03,
 Gaussian 16:  EM64L-G16RevA.03 25-Dec-2016

 -------------
 #p 6-31g* mp2
 -------------

 ------------------------------------------------------
 Input file generated by CHIRIPA (05-May-2021 14:53:12)
 ------------------------------------------------------
 Symbolic Z-matrix:
 Charge =  0 Multiplicity = 1

                         Standard orientation:
 ---------------------------------------------------------------------
 Center     Atomic      Atomic             Coordinates (Angstroms)
 Number     Number       Type             X           Y           Z
 ---------------------------------------------------------------------
      1          6           0        4.016031   -0.284687    0.184056
      2          6           0        3.837998   -1.802831    0.144981
      3          6           0        4.946206   -2.547368    0.890189
      4          1           0        4.990869   -0.024895   -0.250851
      5          1           0        4.042347    0.047584    1.231099
      6          1           0        3.810638   -2.131975   -0.901695
      7          1           0        2.863388   -2.059024    0.579856
      8          1           0        4.971343   -2.247491    1.942825
      9          1           0        5.923975   -2.320856    0.452855
     10          1           0        4.799258   -3.631167    0.849602
     11          6           0        2.915945    0.473548   -0.556634
     12          6           0        3.093978    1.991692   -0.517559
     13          6           0        1.985771    2.736229   -1.262767
     14          1           0        2.889630    0.141277   -1.603676
     15          1           0        1.941107    0.213756   -0.121727
     16          1           0        4.068588    2.247885   -0.952434
     17          1           0        3.121338    2.320836    0.529118
     18          1           0        1.008001    2.509717   -0.825433
     19          1           0        1.960633    2.436352   -2.315403
     20          1           0        2.132718    3.820028   -1.222180
     21          6           0       -1.975445    1.470429    2.001613
     22          6           0       -2.740129    0.336573    2.295121
     23          6           0       -3.151483   -0.526038    1.274709
     24          6           0       -2.778604   -0.223062   -0.033900
     25          6           0       -2.017355    0.898812   -0.358225
     26          6           0       -1.617130    1.747442    0.678209
     27          1           0       -1.660219    2.135096    2.800516
     28          1           0       -3.019870    0.118944    3.321974
     29          1           0       -3.744025   -1.410728    1.473790
     30          1           0       -1.753971    1.089459   -1.391521
     31          1           0       -1.023324    2.627288    0.447318
     32          7           0       -3.208195   -1.128868   -1.122646
     33          8           0       -2.866625   -0.839746   -2.267362
     34          8           0       -3.878344   -2.110810   -0.810673
 ---------------------------------------------------------------------

 SCF Done:  E(RHF) =  -669.535541786     A.U. after   15 cycles
 E2 =    -0.2091517283D+01 EUMP2 =    -0.67162705906921D+03

 The electronic state is 1-A.
 Alpha  occ. eigenvalues --  -20.60775 -20.60769 -15.85830 -11.31214 -11.27797
 Alpha  occ. eigenvalues --  -11.27788 -11.27540 -11.26810 -11.26792 -11.22102
 Alpha  occ. eigenvalues --  -11.21792 -11.21726 -11.21685 -11.21596 -11.21179
 Alpha  occ. eigenvalues --   -1.59850  -1.39403  -1.19396  -1.08787  -1.08734
 Alpha  occ. eigenvalues --   -1.04805  -1.03875  -0.96339  -0.95615  -0.87364
 Alpha  occ. eigenvalues --   -0.86196  -0.82452  -0.79942  -0.78516  -0.77491
 Alpha  occ. eigenvalues --   -0.72047  -0.71174  -0.70499  -0.65391  -0.65047
 Alpha  occ. eigenvalues --   -0.64806  -0.62202  -0.61242  -0.59708  -0.57927
 Alpha  occ. eigenvalues --   -0.55667  -0.55282  -0.53136  -0.53053  -0.52943
 Alpha  occ. eigenvalues --   -0.52691  -0.50278  -0.48808  -0.48800  -0.48251
 Alpha  occ. eigenvalues --   -0.46963  -0.46066  -0.45971  -0.44804  -0.44107
 Alpha  occ. eigenvalues --   -0.37376  -0.36390
 Alpha virt. eigenvalues --    0.05021   0.11225   0.16377   0.20356   0.22753
 Alpha virt. eigenvalues --    0.23961   0.25687   0.26586   0.27381   0.28150
 Alpha virt. eigenvalues --    0.28948   0.30231   0.31271   0.31680   0.32370

 Mulliken charges:
               1
     1  C   -0.298381
     2  C   -0.300153
     3  C   -0.475915
     4  H    0.150234
     5  H    0.147903
     6  H    0.154340
     7  H    0.152837
     8  H    0.154051
     9  H    0.155369
    10  H    0.161789
    11  C   -0.300311
    12  C   -0.298842
    13  C   -0.480456
    14  H    0.152837
    15  H    0.150623
    16  H    0.154871
    17  H    0.149608
    18  H    0.145983
    19  H    0.160910
    20  H    0.160856
    21  C   -0.171434
    22  C   -0.218740
    23  C   -0.170716
    24  C    0.158146
    25  C   -0.171182
    26  C   -0.221768
    27  H    0.225931
    28  H    0.223563
    29  H    0.275812
    30  H    0.276941
    31  H    0.227640
    32  N    0.488161
    33  O   -0.459989
    34  O   -0.460514
 Sum of Mulliken charges =  -0.00000

 Dipole moment (field-independent basis, Debye):
    X=              1.5757    Y=              3.1241    Z=              3.8038  Tot=              5.1684
 Quadrupole moment (field-independent basis, Debye-Ang):
   XX=           -102.7013   YY=            -95.5228   ZZ=            -92.5159
   XY=             -7.2925   XZ=            -13.6622   YZ=             -2.7977

 Normal termination of Gaussian 16 at Thu May  6 16:59:08 2021.
