 Gaussian 16, Revision A.03,
 Gaussian 16:  EM64L-G16RevA.03 25-Dec-2016

 -------------
 #p 6-31g* mp2
 -------------

 ------------------------------------------------------
 Input file generated by CHIRIPA (05-May-2021 14:53:16)
 ------------------------------------------------------
 Symbolic Z-matrix:
 Charge =  0 Multiplicity = 1

                         Standard orientation:
 ---------------------------------------------------------------------
 Center     Atomic      Atomic             Coordinates (Angstroms)
 Number     Number       Type             X           Y           Z
 ---------------------------------------------------------------------
      1          6           0        3.324991   -0.649838   -0.109937
      2          6           0        3.392006   -1.661117    1.034968
      3          6           0        2.629396   -2.950767    0.729972
      4          1           0        2.273004   -0.414152   -0.321410
      5          1           0        3.731359   -1.110478   -1.021019
      6          1           0        2.986906   -1.198242    1.943954
      7          1           0        4.443963   -1.894277    1.243868
      8          1           0        3.037324   -3.437860   -0.161620
      9          1           0        1.571989   -2.737869    0.542444
     10          1           0        2.690446   -3.659538    1.561703
     11          6           0        4.082661    0.644611    0.180007
     12          6           0        4.015645    1.655891   -0.964898
     13          6           0        4.778256    2.945541   -0.659902
     14          1           0        3.676292    1.105251    1.091089
     15          1           0        5.134647    0.408926    0.391481
     16          1           0        2.963689    1.889051   -1.173798
     17          1           0        4.420745    1.193015   -1.873884
     18          1           0        5.835662    2.732642   -0.472373
     19          1           0        4.370327    3.432633    0.231690
     20          1           0        4.717205    3.654311   -1.491633
     21          6           0       -4.035129    2.109956    0.759751
     22          6           0       -2.809109    1.728759    1.314806
     23          6           0       -2.167603    0.562813    0.886338
     24          6           0       -2.783256   -0.201744   -0.103468
     25          6           0       -4.004261    0.151537   -0.675858
     26          6           0       -4.627747    1.321518   -0.232061
     27          1           0       -4.526468    3.017258    1.098550
     28          1           0       -2.346543    2.339129    2.085211
     29          1           0       -1.218011    0.244307    1.298947
     30          1           0       -4.440798   -0.477361   -1.442240
     31          1           0       -5.579843    1.615108   -0.664916
     32          7           0       -2.113660   -1.438215   -0.565182
     33          8           0       -2.676798   -2.094525   -1.438549
     34          8           0       -1.038372   -1.727639   -0.044963
 ---------------------------------------------------------------------

 SCF Done:  E(RHF) =  -669.536233916     A.U. after   15 cycles
 E2 =    -0.2091056003D+01 EUMP2 =    -0.67162728991899D+03

 The electronic state is 1-A.
 Alpha  occ. eigenvalues --  -20.60985 -20.60974 -15.86025 -11.31326 -11.27891
 Alpha  occ. eigenvalues --  -11.27883 -11.27621 -11.26892 -11.26882 -11.21307
 Alpha  occ. eigenvalues --  -11.20963 -11.20897 -11.20793 -11.20650 -11.19762
 Alpha  occ. eigenvalues --   -1.60041  -1.39600  -1.19493  -1.08899  -1.07866
 Alpha  occ. eigenvalues --   -1.04888  -1.02904  -0.95746  -0.95330  -0.86343
 Alpha  occ. eigenvalues --   -0.86287  -0.82582  -0.79007  -0.77674  -0.77592
 Alpha  occ. eigenvalues --   -0.72252  -0.71354  -0.70602  -0.65153  -0.64890
 Alpha  occ. eigenvalues --   -0.64506  -0.62236  -0.60299  -0.58762  -0.56935
 Alpha  occ. eigenvalues --   -0.55391  -0.54604  -0.53220  -0.52980  -0.52037
 Alpha  occ. eigenvalues --   -0.51735  -0.49302  -0.48998  -0.48943  -0.47287
 Alpha  occ. eigenvalues --   -0.46049  -0.45191  -0.45138  -0.44923  -0.43172
 Alpha  occ. eigenvalues --   -0.37470  -0.36489
 Alpha virt. eigenvalues --    0.04890   0.11165   0.16387   0.21142   0.23248
 Alpha virt. eigenvalues --    0.24813   0.26741   0.27371   0.27832   0.28526
 Alpha virt. eigenvalues --    0.28795   0.30826   0.31815   0.32218   0.32469

 Mulliken charges:
               1
     1  C   -0.299805
     2  C   -0.297445
     3  C   -0.487884
     4  H    0.155436
     5  H    0.149733
     6  H    0.145620
     7  H    0.147504
     8  H    0.152126
     9  H    0.185252
    10  H    0.154245
    11  C   -0.297327
    12  C   -0.298832
    13  C   -0.475063
    14  H    0.144637
    15  H    0.148711
    16  H    0.150061
    17  H    0.152986
    18  H    0.155304
    19  H    0.152431
    20  H    0.158922
    21  C   -0.170555
    22  C   -0.218466
    23  C   -0.170881
    24  C    0.157461
    25  C   -0.170438
    26  C   -0.218560
    27  H    0.226161
    28  H    0.223958
    29  H    0.275266
    30  H    0.276007
    31  H    0.223968
    32  N    0.496472
    33  O   -0.458167
    34  O   -0.468837
 Sum of Mulliken charges =  -0.00000

 Dipole moment (field-independent basis, Debye):
    X=             -2.6536    Y=              4.2883    Z=              1.5402  Tot=              5.2729
 Quadrupole moment (field-independent basis, Debye-Ang):
   XX=            -79.3432   YY=            -98.0369   ZZ=            -93.5530
   XY=            -12.0373   XZ=             -2.2081   YZ=              0.2235

 Normal termination of Gaussian 16 at Thu May  6 05:56:52 2021.
