 Gaussian 16, Revision A.03,
 Gaussian 16:  EM64L-G16RevA.03 25-Dec-2016

 -------------
 #p 6-31g* mp2
 -------------

 ------------------------------------------------------
 Input file generated by CHIRIPA (05-May-2021 14:55:23)
 ------------------------------------------------------
 Symbolic Z-matrix:
 Charge =  0 Multiplicity = 1

                         Standard orientation:
 ---------------------------------------------------------------------
 Center     Atomic      Atomic             Coordinates (Angstroms)
 Number     Number       Type             X           Y           Z
 ---------------------------------------------------------------------
      1          6           0        3.017537    2.446532    0.931295
      2          6           0        2.231314    1.489195    1.580818
      3          6           0        2.033500    0.227837    1.011263
      4          6           0        2.639557   -0.043599   -0.214423
      5          6           0        3.428389    0.889084   -0.886091
      6          6           0        3.612517    2.143954   -0.297919
      7          1           0        3.165888    3.423866    1.380969
      8          1           0        1.768018    1.721404    2.535533
      9          1           0        1.429683   -0.531951    1.492457
     10          1           0        3.877298    0.628341   -1.836833
     11          1           0        4.223617    2.885480   -0.804617
     12          7           0        2.437385   -1.375508   -0.827239
     13          8           0        2.982236   -1.589935   -1.907885
     14          8           0        1.737899   -2.179812   -0.215315
     15          6           0       -3.127674   -0.929789    0.172390
     16          6           0       -2.006250   -1.080104    1.200883
     17          6           0       -1.428999   -2.495293    1.243503
     18          1           0       -3.927327   -1.646683    0.403827
     19          1           0       -2.743393   -1.200105   -0.820914
     20          1           0       -2.392157   -0.808256    2.191737
     21          1           0       -1.209259   -0.362637    0.967083
     22          1           0       -1.017871   -2.773197    0.267622
     23          1           0       -2.207490   -3.221347    1.499233
     24          1           0       -0.628872   -2.580328    1.985408
     25          6           0       -3.714893    0.479444    0.117974
     26          6           0       -4.836317    0.629759   -0.910519
     27          6           0       -5.413568    2.044947   -0.953138
     28          1           0       -4.099173    0.749760    1.111278
     29          1           0       -2.915240    1.196338   -0.113462
     30          1           0       -5.633309   -0.087708   -0.676719
     31          1           0       -4.450410    0.357911   -1.901372
     32          1           0       -4.635076    2.771002   -1.208869
     33          1           0       -5.824697    2.322852    0.022742
     34          1           0       -6.213695    2.129983   -1.695045
 ---------------------------------------------------------------------

 SCF Done:  E(RHF) =  -669.535667894     A.U. after   15 cycles
 E2 =    -0.2092263649D+01 EUMP2 =    -0.67162793154312D+03

 The electronic state is 1-A.
 Alpha  occ. eigenvalues --  -20.60877 -20.60871 -15.85911 -11.31255 -11.27822
 Alpha  occ. eigenvalues --  -11.27799 -11.27557 -11.26835 -11.26822 -11.21479
 Alpha  occ. eigenvalues --  -11.21331 -11.21251 -11.21094 -11.21022 -11.20273
 Alpha  occ. eigenvalues --   -1.59946  -1.39500  -1.19427  -1.08826  -1.08210
 Alpha  occ. eigenvalues --   -1.04824  -1.03256  -0.95729  -0.95601  -0.86670
 Alpha  occ. eigenvalues --   -0.86222  -0.82497  -0.79333  -0.78039  -0.77548
 Alpha  occ. eigenvalues --   -0.72143  -0.71266  -0.70532  -0.65085  -0.64897
 Alpha  occ. eigenvalues --   -0.64765  -0.62190  -0.60619  -0.59068  -0.57307
 Alpha  occ. eigenvalues --   -0.55326  -0.54913  -0.53157  -0.52912  -0.52343
 Alpha  occ. eigenvalues --   -0.52087  -0.49595  -0.48896  -0.48859  -0.47646
 Alpha  occ. eigenvalues --   -0.46367  -0.45582  -0.45489  -0.44857  -0.43516
 Alpha  occ. eigenvalues --   -0.37405  -0.36414
 Alpha virt. eigenvalues --    0.04928   0.11162   0.16429   0.20746   0.23092
 Alpha virt. eigenvalues --    0.23978   0.26465   0.26991   0.27591   0.27855
 Alpha virt. eigenvalues --    0.29310   0.30956   0.31550   0.31797   0.31995

 Mulliken charges:
               1
     1  C   -0.170480
     2  C   -0.220311
     3  C   -0.172846
     4  C    0.156546
     5  C   -0.170652
     6  C   -0.218560
     7  H    0.225950
     8  H    0.224583
     9  H    0.282011
    10  H    0.275678
    11  H    0.223697
    12  N    0.489742
    13  O   -0.459775
    14  O   -0.461628
    15  C   -0.298142
    16  C   -0.303431
    17  C   -0.475660
    18  H    0.150102
    19  H    0.153711
    20  H    0.146460
    21  H    0.144390
    22  H    0.177513
    23  H    0.150273
    24  H    0.155061
    25  C   -0.297870
    26  C   -0.299639
    27  C   -0.475462
    28  H    0.147354
    29  H    0.147424
    30  H    0.152350
    31  H    0.153265
    32  H    0.153870
    33  H    0.154161
    34  H    0.160315
 Sum of Mulliken charges =  -0.00000

 Dipole moment (field-independent basis, Debye):
    X=              0.8402    Y=              4.5847    Z=              2.0388  Tot=              5.0874
 Quadrupole moment (field-independent basis, Debye-Ang):
   XX=            -89.9711   YY=            -95.9954   ZZ=            -92.7252
   XY=             14.3261   XZ=              2.7366   YZ=             -2.0898

 Normal termination of Gaussian 16 at Thu May  6 06:18:44 2021.
