 Gaussian 16, Revision A.03,
 Gaussian 16:  EM64L-G16RevA.03 25-Dec-2016

 -------------
 #p 6-31g* mp2
 -------------

 ------------------------------------------------------
 Input file generated by CHIRIPA (05-May-2021 14:57:25)
 ------------------------------------------------------
 Symbolic Z-matrix:
 Charge =  0 Multiplicity = 1

                         Standard orientation:
 ---------------------------------------------------------------------
 Center     Atomic      Atomic             Coordinates (Angstroms)
 Number     Number       Type             X           Y           Z
 ---------------------------------------------------------------------
      1          6           0       -2.602063    2.302600    0.492350
      2          6           0       -3.583302    1.739199    1.314706
      3          6           0       -4.107853    0.474881    1.030286
      4          6           0       -3.626119   -0.201182   -0.089607
      5          6           0       -2.649197    0.333473   -0.928092
      6          6           0       -2.138959    1.599179   -0.624456
      7          1           0       -2.200139    3.285291    0.720758
      8          1           0       -3.944836    2.283194    2.182697
      9          1           0       -4.868122    0.015179    1.650030
     10          1           0       -2.308617   -0.232949   -1.786339
     11          1           0       -1.376981    2.034256   -1.264880
     12          7           0       -4.173861   -1.540394   -0.400882
     13          8           0       -3.732725   -2.115624   -1.393427
     14          8           0       -5.033946   -1.989479    0.353581
     15          6           0        2.349108    2.153352   -0.447632
     16          6           0        1.627795    1.052533    0.026107
     17          6           0        2.274938   -0.156366    0.298716
     18          6           0        3.650574   -0.229603    0.085284
     19          6           0        4.396877    0.849454   -0.385842
     20          6           0        3.728914    2.048484   -0.651734
     21          1           0        1.838304    3.088621   -0.656792
     22          1           0        0.556136    1.131086    0.185547
     23          1           0        1.740913   -1.024216    0.666237
     24          1           0        5.464283    0.740696   -0.534958
     25          1           0        4.291651    2.901756   -1.019565
     26          7           0        4.346697   -1.504187    0.370327
     27          8           0        5.559374   -1.542999    0.174001
     28          8           0        3.666458   -2.440258    0.784674
 ---------------------------------------------------------------------

 SCF Done:  E(RHF) =  -868.336555747     A.U. after   16 cycles
 E2 =    -0.2600961138D+01 EUMP2 =    -0.87093751688486D+03

 The electronic state is 1-A.
 Alpha  occ. eigenvalues --  -20.61348 -20.61343 -20.60970 -20.60960 -15.86413
 Alpha  occ. eigenvalues --  -15.86023 -11.32019 -11.31517 -11.28671 -11.28595
 Alpha  occ. eigenvalues --  -11.28477 -11.28093 -11.28072 -11.27953 -11.27772
 Alpha  occ. eigenvalues --  -11.27632 -11.27171 -11.27090  -1.60420  -1.60040
 Alpha  occ. eigenvalues --   -1.39966  -1.39590  -1.20248  -1.19708  -1.09603
 Alpha  occ. eigenvalues --   -1.09103  -1.05688  -1.05115  -0.96379  -0.95912
 Alpha  occ. eigenvalues --   -0.87091  -0.86517  -0.83206  -0.82726  -0.78211
 Alpha  occ. eigenvalues --   -0.77731  -0.72624  -0.72240  -0.71749  -0.71365
 Alpha  occ. eigenvalues --   -0.71336  -0.70872  -0.65894  -0.65803  -0.65361
 Alpha  occ. eigenvalues --   -0.65063  -0.63023  -0.62422  -0.56182  -0.55705
 Alpha  occ. eigenvalues --   -0.54091  -0.53782  -0.53451  -0.53081  -0.49403
 Alpha  occ. eigenvalues --   -0.49363  -0.49010  -0.48986  -0.45317  -0.44966
 Alpha  occ. eigenvalues --   -0.38248  -0.37747  -0.37286  -0.36705
 Alpha virt. eigenvalues --    0.04336   0.04784   0.10181   0.10883   0.15715
 Alpha virt. eigenvalues --    0.16254   0.19495   0.21789   0.25581   0.27300
 Alpha virt. eigenvalues --    0.27502   0.28639   0.30148   0.30971   0.31763

 Mulliken charges:
               1
     1  C   -0.172517
     2  C   -0.217806
     3  C   -0.168649
     4  C    0.159166
     5  C   -0.171732
     6  C   -0.229687
     7  H    0.225674
     8  H    0.227085
     9  H    0.279460
    10  H    0.279853
    11  H    0.222556
    12  N    0.488004
    13  O   -0.457453
    14  O   -0.457369
    15  C   -0.175051
    16  C   -0.227935
    17  C   -0.172770
    18  C    0.159581
    19  C   -0.170929
    20  C   -0.217666
    21  H    0.218526
    22  H    0.229711
    23  H    0.279118
    24  H    0.276876
    25  H    0.223743
    26  N    0.487842
    27  O   -0.459746
    28  O   -0.457884
 Sum of Mulliken charges =  -0.00000

 Dipole moment (field-independent basis, Debye):
    X=             -0.7622    Y=              8.9991    Z=              0.1609  Tot=              9.0327
 Quadrupole moment (field-independent basis, Debye-Ang):
   XX=           -130.2311   YY=           -109.2609   ZZ=           -102.5265
   XY=              1.2236   XZ=            -12.3962   YZ=             -0.2891

 Normal termination of Gaussian 16 at Fri May  7 03:31:21 2021.
