 Gaussian 16, Revision A.03,
 Gaussian 16:  EM64L-G16RevA.03 25-Dec-2016

 -------------
 #p 6-31g* mp2
 -------------

 ------------------------------------------------------
 Input file generated by CHIRIPA (05-May-2021 14:55:21)
 ------------------------------------------------------
 Symbolic Z-matrix:
 Charge =  0 Multiplicity = 1

                         Standard orientation:
 ---------------------------------------------------------------------
 Center     Atomic      Atomic             Coordinates (Angstroms)
 Number     Number       Type             X           Y           Z
 ---------------------------------------------------------------------
      1          6           0       -5.566986   -0.377904   -0.793107
      2          6           0       -4.862468    0.827450   -0.878528
      3          6           0       -3.557151    0.923266   -0.387088
      4          6           0       -2.984432   -0.211072    0.186113
      5          6           0       -3.660523   -1.426083    0.285807
      6          6           0       -4.964827   -1.498848   -0.212236
      7          1           0       -6.580594   -0.443383   -1.177434
      8          1           0       -5.327595    1.699609   -1.329128
      9          1           0       -2.988939    1.843981   -0.440348
     10          1           0       -3.170327   -2.278426    0.740381
     11          1           0       -5.509575   -2.436245   -0.144548
     12          7           0       -1.603088   -0.121838    0.709874
     13          8           0       -1.120925   -1.135602    1.210311
     14          8           0       -1.028709    0.960179    0.610043
     15          6           0        4.320163   -0.443067   -0.064759
     16          6           0        5.748500   -0.709549   -0.541024
     17          6           0        6.151355   -2.178566   -0.408784
     18          1           0        4.225230   -0.757852    0.983498
     19          1           0        3.625660   -1.068167   -0.642952
     20          1           0        6.439976   -0.083111    0.036949
     21          1           0        5.840095   -0.393914   -1.588211
     22          1           0        5.484928   -2.815454   -0.999419
     23          1           0        6.088217   -2.502885    0.634974
     24          1           0        7.175981   -2.346585   -0.754864
     25          6           0        3.902799    1.021062   -0.190707
     26          6           0        2.474462    1.287543    0.285558
     27          6           0        2.071606    2.756561    0.153319
     28          1           0        4.597302    1.646163    0.387487
     29          1           0        3.997731    1.335848   -1.238964
     30          1           0        2.382867    0.971908    1.332745
     31          1           0        1.782986    0.661106   -0.292414
     32          1           0        2.134745    3.080880   -0.890440
     33          1           0        2.738033    3.393449    0.743954
     34          1           0        1.046980    2.924580    0.499398
 ---------------------------------------------------------------------

 SCF Done:  E(RHF) =  -669.535958950     A.U. after   15 cycles
 E2 =    -0.2091609351D+01 EUMP2 =    -0.67162756830179D+03

 The electronic state is 1-A.
 Alpha  occ. eigenvalues --  -20.60995 -20.60988 -15.86022 -11.31331 -11.27891
 Alpha  occ. eigenvalues --  -11.27888 -11.27626 -11.26894 -11.26885 -11.20735
 Alpha  occ. eigenvalues --  -11.20344 -11.20260 -11.20055 -11.19755 -11.19397
 Alpha  occ. eigenvalues --   -1.60049  -1.39608  -1.19497  -1.08904  -1.07193
 Alpha  occ. eigenvalues --   -1.04891  -1.02239  -0.95751  -0.94739  -0.86292
 Alpha  occ. eigenvalues --   -0.85783  -0.82584  -0.78351  -0.77637  -0.76909
 Alpha  occ. eigenvalues --   -0.72251  -0.71365  -0.70605  -0.65155  -0.64893
 Alpha  occ. eigenvalues --   -0.63846  -0.62238  -0.59661  -0.58140  -0.56278
 Alpha  occ. eigenvalues --   -0.55389  -0.54079  -0.53223  -0.52981  -0.51435
 Alpha  occ. eigenvalues --   -0.51165  -0.49001  -0.48963  -0.48748  -0.46640
 Alpha  occ. eigenvalues --   -0.45430  -0.45037  -0.44459  -0.44317  -0.42501
 Alpha  occ. eigenvalues --   -0.37475  -0.36491
 Alpha virt. eigenvalues --    0.04876   0.11164   0.16376   0.21279   0.23982
 Alpha virt. eigenvalues --    0.25564   0.27218   0.27829   0.28066   0.28752
 Alpha virt. eigenvalues --    0.29244   0.30850   0.32258   0.32561   0.32864

 Mulliken charges:
               1
     1  C   -0.170540
     2  C   -0.218541
     3  C   -0.170685
     4  C    0.157379
     5  C   -0.170532
     6  C   -0.218603
     7  H    0.226133
     8  H    0.223998
     9  H    0.275735
    10  H    0.275972
    11  H    0.223945
    12  N    0.493275
    13  O   -0.458355
    14  O   -0.463701
    15  C   -0.296723
    16  C   -0.298544
    17  C   -0.474849
    18  H    0.150751
    19  H    0.149442
    20  H    0.149990
    21  H    0.149298
    22  H    0.154115
    23  H    0.154920
    24  H    0.156934
    25  C   -0.299192
    26  C   -0.290998
    27  C   -0.479967
    28  H    0.144452
    29  H    0.143802
    30  H    0.155612
    31  H    0.159238
    32  H    0.144834
    33  H    0.145828
    34  H    0.175576
 Sum of Mulliken charges =  -0.00000

 Dipole moment (field-independent basis, Debye):
    X=             -5.3156    Y=             -0.4022    Z=             -1.7399  Tot=              5.6076
 Quadrupole moment (field-independent basis, Debye-Ang):
   XX=            -68.0149   YY=            -91.6202   ZZ=            -95.0486
   XY=              2.4491   XZ=              5.3797   YZ=             -0.9527

 Normal termination of Gaussian 16 at Thu May  6 01:25:50 2021.
