 Gaussian 16, Revision A.03,
 Gaussian 16:  EM64L-G16RevA.03 25-Dec-2016

 -------------
 #p 6-31g* mp2
 -------------

 ------------------------------------------------------
 Input file generated by CHIRIPA (05-May-2021 14:51:08)
 ------------------------------------------------------
 Symbolic Z-matrix:
 Charge =  0 Multiplicity = 1

                         Standard orientation:
 ---------------------------------------------------------------------
 Center     Atomic      Atomic             Coordinates (Angstroms)
 Number     Number       Type             X           Y           Z
 ---------------------------------------------------------------------
      1          6           0       -2.292718   -0.665563   -0.170668
      2          6           0       -1.697155   -2.013936   -0.577090
      3          6           0       -0.182402   -1.955074   -0.776727
      4          1           0       -2.051509    0.081299   -0.939407
      5          1           0       -1.812598   -0.325274    0.757278
      6          1           0       -2.179236   -2.352238   -1.503247
      7          1           0       -1.939973   -2.757719    0.192613
      8          1           0        0.315935   -1.641738    0.146355
      9          1           0        0.075313   -1.233953   -1.559139
     10          1           0        0.222467   -2.929631   -1.066866
     11          6           0       -3.806180   -0.708335    0.032634
     12          6           0       -4.401743    0.640038    0.439057
     13          6           0       -5.916495    0.581176    0.638693
     14          1           0       -4.286299   -1.048624   -0.895312
     15          1           0       -4.047389   -1.455197    0.801374
     16          1           0       -4.158924    1.383821   -0.330646
     17          1           0       -3.919662    0.978340    1.365213
     18          1           0       -6.174210   -0.139945    1.421105
     19          1           0       -6.414832    0.267840   -0.284389
     20          1           0       -6.321364    1.555733    0.928832
     21          6           0        3.306854   -0.004659   -0.128093
     22          6           0        4.314026   -0.582945    0.866481
     23          6           0        4.819813   -1.966942    0.458405
     24          1           0        2.456799   -0.694225   -0.222179
     25          1           0        3.774133    0.052755   -1.120942
     26          1           0        3.845438   -0.637962    1.857448
     27          1           0        5.161690    0.108169    0.958355
     28          1           0        5.311732   -1.924644   -0.518748
     29          1           0        3.988001   -2.675015    0.385454
     30          1           0        5.538632   -2.361507    1.183303
     31          6           0        2.792044    1.378557    0.266127
     32          6           0        1.784872    1.956843   -0.728447
     33          6           0        1.279084    3.340840   -0.320371
     34          1           0        2.324764    1.321143    1.258976
     35          1           0        3.642098    2.068122    0.360212
     36          1           0        0.937207    1.265729   -0.820320
     37          1           0        2.253459    2.011859   -1.719414
     38          1           0        2.110896    4.048913   -0.247420
     39          1           0        0.787166    3.298543    0.656782
     40          1           0        0.560265    3.735405   -1.045269
 ---------------------------------------------------------------------

 SCF Done:  E(RHF) =  -470.732783392     A.U. after   11 cycles
 E2 =    -0.1583730068D+01 EUMP2 =    -0.47231651346008D+03

 The electronic state is 1-A.
 Alpha  occ. eigenvalues --  -11.21682 -11.21638 -11.21514 -11.21505 -11.21477
 Alpha  occ. eigenvalues --  -11.21412 -11.21295 -11.21179 -11.21174 -11.21099
 Alpha  occ. eigenvalues --  -11.21012 -11.21002  -1.08501  -1.08328  -1.03600
 Alpha  occ. eigenvalues --   -1.03447  -0.96066  -0.95887  -0.87086  -0.86907
 Alpha  occ. eigenvalues --   -0.79691  -0.79511  -0.78355  -0.78083  -0.65132
 Alpha  occ. eigenvalues --   -0.64977  -0.61022  -0.60828  -0.59427  -0.59252
 Alpha  occ. eigenvalues --   -0.57707  -0.57478  -0.55387  -0.55155  -0.52760
 Alpha  occ. eigenvalues --   -0.52634  -0.52497  -0.52281  -0.50044  -0.49797
 Alpha  occ. eigenvalues --   -0.48085  -0.47832  -0.46755  -0.46489  -0.46063
 Alpha  occ. eigenvalues --   -0.45764  -0.45653  -0.45215  -0.43849  -0.43688
 Alpha virt. eigenvalues --    0.21032   0.22976   0.23681   0.24563   0.25781
 Alpha virt. eigenvalues --    0.26344   0.27187   0.27518   0.28040   0.29601
 Alpha virt. eigenvalues --    0.30533   0.31553   0.31694   0.32033   0.32174

 Mulliken charges:
               1
     1  C   -0.299444
     2  C   -0.300242
     3  C   -0.480075
     4  H    0.150648
     5  H    0.149298
     6  H    0.152354
     7  H    0.152163
     8  H    0.155868
     9  H    0.159092
    10  H    0.161019
    11  C   -0.298356
    12  C   -0.299692
    13  C   -0.475769
    14  H    0.149771
    15  H    0.149842
    16  H    0.152221
    17  H    0.151955
    18  H    0.155202
    19  H    0.155255
    20  H    0.160466
    21  C   -0.309109
    22  C   -0.298965
    23  C   -0.475634
    24  H    0.163315
    25  H    0.148474
    26  H    0.150812
    27  H    0.151491
    28  H    0.155054
    29  H    0.155182
    30  H    0.159757
    31  C   -0.297273
    32  C   -0.304876
    33  C   -0.475207
    34  H    0.148209
    35  H    0.149202
    36  H    0.157316
    37  H    0.151143
    38  H    0.154905
    39  H    0.155035
    40  H    0.159592
 Sum of Mulliken charges =  -0.00000

 Dipole moment (field-independent basis, Debye):
    X=             -0.0728    Y=             -0.0477    Z=             -0.0256  Tot=              0.0908
 Quadrupole moment (field-independent basis, Debye-Ang):
   XX=            -85.7854   YY=            -85.6262   ZZ=            -83.5915
   XY=              0.8396   XZ=             -0.0327   YZ=             -0.6062

 Normal termination of Gaussian 16 at Thu May  6 10:01:11 2021.
