 Gaussian 16, Revision A.03,
 Gaussian 16:  EM64L-G16RevA.03 25-Dec-2016

 -------------
 #p 6-31g* mp2
 -------------

 ------------------------------------------------------
 Input file generated by CHIRIPA (05-May-2021 14:57:24)
 ------------------------------------------------------
 Symbolic Z-matrix:
 Charge =  0 Multiplicity = 1

                         Standard orientation:
 ---------------------------------------------------------------------
 Center     Atomic      Atomic             Coordinates (Angstroms)
 Number     Number       Type             X           Y           Z
 ---------------------------------------------------------------------
      1          6           0        4.621992    2.369832    0.062201
      2          6           0        3.244048    2.188440   -0.095560
      3          6           0        2.700747    0.902226   -0.166456
      4          6           0        3.568458   -0.185033   -0.075711
      5          6           0        4.945612   -0.036871    0.081722
      6          6           0        5.466887    1.258557    0.150184
      7          1           0        5.035486    3.372573    0.116329
      8          1           0        2.585495    3.049628   -0.164174
      9          1           0        1.637761    0.733065   -0.288367
     10          1           0        5.576828   -0.914771    0.147113
     11          1           0        6.537411    1.396416    0.272727
     12          7           0        3.004949   -1.551567   -0.149477
     13          8           0        3.790731   -2.493044   -0.066991
     14          8           0        1.788158   -1.655304   -0.288384
     15          6           0       -5.250118    1.908847   -0.143670
     16          6           0       -5.728390    0.599962   -0.264488
     17          6           0       -4.857173   -0.487581   -0.151435
     18          6           0       -3.507733   -0.228614    0.083587
     19          6           0       -3.000833    1.063936    0.208718
     20          6           0       -3.890264    2.136256    0.092132
     21          1           0       -5.933974    2.747764   -0.232864
     22          1           0       -6.783969    0.420357   -0.447623
     23          1           0       -5.200625   -1.511046   -0.240771
     24          1           0       -1.943301    1.211404    0.391190
     25          1           0       -3.516021    3.151687    0.186400
     26          7           0       -2.575775   -1.371889    0.205141
     27          8           0       -1.391371   -1.117085    0.412269
     28          8           0       -3.047355   -2.501145    0.090987
 ---------------------------------------------------------------------

 SCF Done:  E(RHF) =  -868.334874282     A.U. after   16 cycles
 E2 =    -0.2600757860D+01 EUMP2 =    -0.87093563214252D+03

 The electronic state is 1-A.
 Alpha  occ. eigenvalues --  -20.60234 -20.60181 -20.59830 -20.59712 -15.85268
 Alpha  occ. eigenvalues --  -15.84823 -11.30982 -11.30596 -11.27647 -11.27555
 Alpha  occ. eigenvalues --  -11.27378 -11.27227 -11.27208 -11.27066 -11.26709
 Alpha  occ. eigenvalues --  -11.26643 -11.26359 -11.26322  -1.59275  -1.58856
 Alpha  occ. eigenvalues --   -1.38823  -1.38389  -1.19182  -1.18819  -1.08507
 Alpha  occ. eigenvalues --   -1.08144  -1.04643  -1.04285  -0.95286  -0.94901
 Alpha  occ. eigenvalues --   -0.86023  -0.85661  -0.82127  -0.81720  -0.77130
 Alpha  occ. eigenvalues --   -0.76691  -0.71522  -0.70953  -0.70612  -0.70291
 Alpha  occ. eigenvalues --   -0.70201  -0.69921  -0.64827  -0.64652  -0.64454
 Alpha  occ. eigenvalues --   -0.64302  -0.61999  -0.61623  -0.55121  -0.54784
 Alpha  occ. eigenvalues --   -0.52943  -0.52746  -0.52591  -0.52387  -0.48252
 Alpha  occ. eigenvalues --   -0.48222  -0.47826  -0.47756  -0.44146  -0.43703
 Alpha  occ. eigenvalues --   -0.37169  -0.36827  -0.36260  -0.35908
 Alpha virt. eigenvalues --    0.05431   0.05833   0.11390   0.11744   0.16863
 Alpha virt. eigenvalues --    0.17244   0.20950   0.21949   0.26077   0.27658
 Alpha virt. eigenvalues --    0.28070   0.29178   0.30470   0.31580   0.32132

 Mulliken charges:
               1
     1  C   -0.171761
     2  C   -0.218613
     3  C   -0.172483
     4  C    0.158470
     5  C   -0.171221
     6  C   -0.218728
     7  H    0.222563
     8  H    0.217467
     9  H    0.280313
    10  H    0.275267
    11  H    0.221494
    12  N    0.486686
    13  O   -0.466070
    14  O   -0.444055
    15  C   -0.171698
    16  C   -0.218159
    17  C   -0.170892
    18  C    0.160185
    19  C   -0.170743
    20  C   -0.217986
    21  H    0.224329
    22  H    0.223157
    23  H    0.276719
    24  H    0.269146
    25  H    0.219840
    26  N    0.488502
    27  O   -0.452357
    28  O   -0.459371
 Sum of Mulliken charges =  -0.00000

 Dipole moment (field-independent basis, Debye):
    X=             -1.4546    Y=              8.5409    Z=             -0.1723  Tot=              8.6656
 Quadrupole moment (field-independent basis, Debye-Ang):
   XX=            -62.2296   YY=           -107.0411   ZZ=           -106.6002
   XY=              4.2168   XZ=              3.2876   YZ=              0.3357

 Normal termination of Gaussian 16 at Thu May  6 08:12:55 2021.
