 Gaussian 16, Revision A.03,
 Gaussian 16:  EM64L-G16RevA.03 25-Dec-2016

 -------------
 #p 6-31g* mp2
 -------------

 ------------------------------------------------------
 Input file generated by CHIRIPA (05-May-2021 14:51:12)
 ------------------------------------------------------
 Symbolic Z-matrix:
 Charge =  0 Multiplicity = 1

                         Standard orientation:
 ---------------------------------------------------------------------
 Center     Atomic      Atomic             Coordinates (Angstroms)
 Number     Number       Type             X           Y           Z
 ---------------------------------------------------------------------
      1          6           0       -2.170452    1.278701   -0.220767
      2          6           0       -2.282504    2.626025    0.493478
      3          6           0       -1.127949    3.570679    0.158179
      4          1           0       -1.216890    0.805300    0.050446
      5          1           0       -2.137666    1.448438   -1.305898
      6          1           0       -2.316463    2.453709    1.576885
      7          1           0       -3.235997    3.096186    0.220684
      8          1           0       -1.094807    3.771910   -0.917464
      9          1           0       -0.170049    3.125782    0.446443
     10          1           0       -1.228026    4.527816    0.679460
     11          6           0       -3.317405    0.323438    0.104351
     12          6           0       -3.205353   -1.023886   -0.609894
     13          6           0       -4.359908   -1.968540   -0.274595
     14          1           0       -3.350191    0.153701    1.189482
     15          1           0       -4.270967    0.796839   -0.166861
     16          1           0       -2.251860   -1.494047   -0.337099
     17          1           0       -3.171394   -0.851570   -1.693301
     18          1           0       -5.317808   -1.523643   -0.562858
     19          1           0       -4.393050   -2.169771    0.801049
     20          1           0       -4.259832   -2.925677   -0.795876
     21          6           0        3.348633   -0.486954   -0.286895
     22          6           0        3.654971    0.930464    0.197943
     23          6           0        4.867406    1.545470   -0.501746
     24          1           0        4.229784   -1.122236   -0.122777
     25          1           0        3.175726   -0.466528   -1.371829
     26          1           0        3.825887    0.907588    1.281862
     27          1           0        2.772923    1.562400    0.032827
     28          1           0        4.702934    1.597461   -1.582878
     29          1           0        5.761881    0.938928   -0.326747
     30          1           0        5.068462    2.558690   -0.140056
     31          6           0        2.139224   -1.115184    0.403310
     32          6           0        1.832886   -2.532603   -0.081527
     33          6           0        0.620451   -3.147609    0.618162
     34          1           0        2.312131   -1.135610    1.488244
     35          1           0        1.258073   -0.479902    0.239192
     36          1           0        2.714934   -3.164539    0.083588
     37          1           0        1.661970   -2.509727   -1.165446
     38          1           0       -0.274023   -2.541067    0.443162
     39          1           0        0.784923   -3.199600    1.699294
     40          1           0        0.419394   -4.160829    0.256472
 ---------------------------------------------------------------------

 SCF Done:  E(RHF) =  -470.733397741     A.U. after   11 cycles
 E2 =    -0.1583642484D+01 EUMP2 =    -0.47231704022556D+03

 The electronic state is 1-A.
 Alpha  occ. eigenvalues --  -11.21633 -11.21628 -11.21620 -11.21619 -11.21445
 Alpha  occ. eigenvalues --  -11.21436 -11.21381 -11.21373 -11.21105 -11.21097
 Alpha  occ. eigenvalues --  -11.21074 -11.21073  -1.08474  -1.08446  -1.03569
 Alpha  occ. eigenvalues --   -1.03538  -0.96015  -0.95991  -0.87042  -0.86997
 Alpha  occ. eigenvalues --   -0.79665  -0.79574  -0.78348  -0.78206  -0.65216
 Alpha  occ. eigenvalues --   -0.64973  -0.61082  -0.60836  -0.59384  -0.59356
 Alpha  occ. eigenvalues --   -0.57658  -0.57573  -0.55383  -0.55205  -0.52695
 Alpha  occ. eigenvalues --   -0.52692  -0.52489  -0.52374  -0.50094  -0.49813
 Alpha  occ. eigenvalues --   -0.48049  -0.47846  -0.46825  -0.46517  -0.46132
 Alpha  occ. eigenvalues --   -0.45778  -0.45765  -0.45306  -0.43810  -0.43806
 Alpha virt. eigenvalues --    0.19581   0.22441   0.23586   0.24311   0.25224
 Alpha virt. eigenvalues --    0.26992   0.27113   0.27393   0.27453   0.29417
 Alpha virt. eigenvalues --    0.31058   0.31420   0.31662   0.31726   0.31904

 Mulliken charges:
               1
     1  C   -0.303831
     2  C   -0.299405
     3  C   -0.476840
     4  H    0.153487
     5  H    0.149533
     6  H    0.152348
     7  H    0.152253
     8  H    0.155122
     9  H    0.155744
    10  H    0.160631
    11  C   -0.297459
    12  C   -0.309405
    13  C   -0.475069
    14  H    0.149815
    15  H    0.149963
    16  H    0.160079
    17  H    0.151976
    18  H    0.155188
    19  H    0.155460
    20  H    0.160499
    21  C   -0.298045
    22  C   -0.300767
    23  C   -0.475689
    24  H    0.149874
    25  H    0.149934
    26  H    0.151868
    27  H    0.152592
    28  H    0.155404
    29  H    0.155174
    30  H    0.160471
    31  C   -0.303732
    32  C   -0.298920
    33  C   -0.484087
    34  H    0.149507
    35  H    0.153618
    36  H    0.152207
    37  H    0.152360
    38  H    0.162107
    39  H    0.155293
    40  H    0.160739
 Sum of Mulliken charges =  -0.00000

 Dipole moment (field-independent basis, Debye):
    X=             -0.0038    Y=             -0.0025    Z=             -0.0015  Tot=              0.0048
 Quadrupole moment (field-independent basis, Debye-Ang):
   XX=            -85.3412   YY=            -85.4300   ZZ=            -83.8150
   XY=             -1.5515   XZ=              1.3061   YZ=             -0.2076

 Normal termination of Gaussian 16 at Wed May  5 18:18:34 2021.
