 Gaussian 16, Revision A.03,
 Gaussian 16:  EM64L-G16RevA.03 25-Dec-2016

 -------------
 #p 6-31g* mp2
 -------------

 ------------------------------------------------------
 Input file generated by CHIRIPA (05-May-2021 14:55:25)
 ------------------------------------------------------
 Symbolic Z-matrix:
 Charge =  0 Multiplicity = 1

                         Standard orientation:
 ---------------------------------------------------------------------
 Center     Atomic      Atomic             Coordinates (Angstroms)
 Number     Number       Type             X           Y           Z
 ---------------------------------------------------------------------
      1          6           0       -5.368435   -1.513229    0.101424
      2          6           0       -4.849634   -1.082165   -1.123953
      3          6           0       -3.802623   -0.156646   -1.165560
      4          6           0       -3.296026    0.319249    0.042817
      5          6           0       -3.791554   -0.090963    1.279533
      6          6           0       -4.838673   -1.017127    1.297149
      7          1           0       -6.181820   -2.232445    0.124427
      8          1           0       -5.259091   -1.465744   -2.054145
      9          1           0       -3.382132    0.194071   -2.100227
     10          1           0       -3.362710    0.309324    2.190181
     11          1           0       -5.239605   -1.350115    2.250258
     12          7           0       -2.187545    1.299396    0.011469
     13          8           0       -1.758689    1.703532    1.090076
     14          8           0       -1.768564    1.644939   -1.091115
     15          6           0        3.818457    0.222767   -0.033460
     16          6           0        2.554585   -0.549412   -0.413392
     17          6           0        1.293896    0.313590   -0.352702
     18          1           0        3.700357    0.631148    0.979567
     19          1           0        3.929815    1.084045   -0.706659
     20          1           0        2.446391   -1.409764    0.259442
     21          1           0        2.675785   -0.956164   -1.425559
     22          1           0        1.376100    1.164315   -1.036888
     23          1           0        1.145403    0.708137    0.657686
     24          1           0        0.402262   -0.258284   -0.628036
     25          6           0        5.087057   -0.626501   -0.089377
     26          6           0        6.350930    0.145679    0.290556
     27          6           0        7.611619   -0.717324    0.229864
     28          1           0        4.975700   -1.487777    0.583822
     29          1           0        5.205158   -1.034881   -1.102403
     30          1           0        6.229730    0.552430    1.302721
     31          1           0        6.459124    1.006030   -0.382279
     32          1           0        7.760112   -1.111871   -0.780523
     33          1           0        7.529415   -1.568048    0.914050
     34          1           0        8.503253   -0.145449    0.505199
 ---------------------------------------------------------------------

 SCF Done:  E(RHF) =  -669.535602009     A.U. after   15 cycles
 E2 =    -0.2091975620D+01 EUMP2 =    -0.67162757762918D+03

 The electronic state is 1-A.
 Alpha  occ. eigenvalues --  -20.60840 -20.60831 -15.85850 -11.31239 -11.27806
 Alpha  occ. eigenvalues --  -11.27802 -11.27550 -11.26822 -11.26812 -11.21070
 Alpha  occ. eigenvalues --  -11.20756 -11.20647 -11.20614 -11.20536 -11.19590
 Alpha  occ. eigenvalues --   -1.59885  -1.39443  -1.19409  -1.08802  -1.07683
 Alpha  occ. eigenvalues --   -1.04812  -1.02712  -0.95641  -0.95126  -0.86210
 Alpha  occ. eigenvalues --   -0.86138  -0.82471  -0.78799  -0.77517  -0.77475
 Alpha  occ. eigenvalues --   -0.72086  -0.71200  -0.70516  -0.65063  -0.64814
 Alpha  occ. eigenvalues --   -0.64322  -0.62159  -0.60110  -0.58566  -0.56754
 Alpha  occ. eigenvalues --   -0.55314  -0.54408  -0.53148  -0.52904  -0.51835
 Alpha  occ. eigenvalues --   -0.51546  -0.49093  -0.48836  -0.48810  -0.47075
 Alpha  occ. eigenvalues --   -0.45877  -0.45029  -0.44984  -0.44694  -0.42944
 Alpha  occ. eigenvalues --   -0.37388  -0.36415
 Alpha virt. eigenvalues --    0.04981   0.11235   0.16454   0.21371   0.23561
 Alpha virt. eigenvalues --    0.25120   0.27283   0.27378   0.28176   0.28201
 Alpha virt. eigenvalues --    0.28907   0.30889   0.32198   0.32334   0.32491

 Mulliken charges:
               1
     1  C   -0.170693
     2  C   -0.218543
     3  C   -0.171302
     4  C    0.158604
     5  C   -0.170833
     6  C   -0.218576
     7  H    0.225785
     8  H    0.223643
     9  H    0.275844
    10  H    0.275691
    11  H    0.223613
    12  N    0.488708
    13  O   -0.459353
    14  O   -0.457411
    15  C   -0.297693
    16  C   -0.301831
    17  C   -0.470685
    18  H    0.150101
    19  H    0.150212
    20  H    0.145788
    21  H    0.147265
    22  H    0.164659
    23  H    0.164347
    24  H    0.148232
    25  C   -0.297367
    26  C   -0.299163
    27  C   -0.475249
    28  H    0.147398
    29  H    0.147940
    30  H    0.151733
    31  H    0.151944
    32  H    0.154235
    33  H    0.154009
    34  H    0.158948
 Sum of Mulliken charges =  -0.00000

 Dipole moment (field-independent basis, Debye):
    X=             -4.1493    Y=             -3.2870    Z=              0.1198  Tot=              5.2949
 Quadrupole moment (field-independent basis, Debye-Ang):
   XX=            -71.6037   YY=            -97.9575   ZZ=            -88.7431
   XY=             11.3135   XZ=             -0.6360   YZ=             -0.2915

 Normal termination of Gaussian 16 at Thu May  6 16:04:37 2021.
