 Gaussian 16, Revision A.03,
 Gaussian 16:  EM64L-G16RevA.03 25-Dec-2016

 -------------
 #p 6-31g* mp2
 -------------

 ------------------------------------------------------
 Input file generated by CHIRIPA (05-May-2021 14:51:08)
 ------------------------------------------------------
 Symbolic Z-matrix:
 Charge =  0 Multiplicity = 1

                         Standard orientation:
 ---------------------------------------------------------------------
 Center     Atomic      Atomic             Coordinates (Angstroms)
 Number     Number       Type             X           Y           Z
 ---------------------------------------------------------------------
      1          6           0        3.965162   -0.297643    0.368305
      2          6           0        5.114700   -0.007867   -0.597394
      3          6           0        6.302355    0.672153    0.084400
      4          1           0        3.635594    0.643686    0.828990
      5          1           0        4.333358   -0.933408    1.185391
      6          1           0        4.744112    0.626024   -1.413153
      7          1           0        5.441443   -0.949970   -1.055977
      8          1           0        6.699290    0.041177    0.886218
      9          1           0        5.997997    1.626125    0.527013
     10          1           0        7.112647    0.870092   -0.624194
     11          6           0        2.770536   -0.977346   -0.298479
     12          6           0        1.620998   -1.267122    0.667220
     13          6           0        0.433344   -1.947142   -0.014574
     14          1           0        2.402340   -0.341581   -1.115565
     15          1           0        3.100104   -1.918675   -0.759164
     16          1           0        1.294255   -0.325019    1.125803
     17          1           0        1.991586   -1.901013    1.482979
     18          1           0        0.737701   -2.901114   -0.457187
     19          1           0        0.036408   -1.316166   -0.816392
     20          1           0       -0.376949   -2.145081    0.694020
     21          6           0       -2.960151    1.185583    0.306869
     22          6           0       -1.742297    1.630216   -0.503758
     23          6           0       -0.936755    2.727172    0.193083
     24          1           0       -3.605946    2.054633    0.493005
     25          1           0       -2.626309    0.827806    1.290707
     26          1           0       -2.078210    1.985755   -1.486291
     27          1           0       -1.099424    0.759970   -0.688151
     28          1           0       -0.573734    2.379668    1.165738
     29          1           0       -1.558082    3.612418    0.363063
     30          1           0       -0.070791    3.030001   -0.403792
     31          6           0       -3.775546    0.089406   -0.376694
     32          6           0       -4.993401   -0.355228    0.433931
     33          6           0       -5.798943   -1.452182   -0.262909
     34          1           0       -4.109390    0.447183   -1.360534
     35          1           0       -3.129753   -0.779644   -0.562831
     36          1           0       -5.636274    0.515019    0.618324
     37          1           0       -4.657488   -0.710767    1.416465
     38          1           0       -5.177617   -2.337429   -0.432889
     39          1           0       -6.161964   -1.104679   -1.235564
     40          1           0       -6.664908   -1.755012    0.333965
 ---------------------------------------------------------------------

 SCF Done:  E(RHF) =  -470.733257704     A.U. after   11 cycles
 E2 =    -0.1583221490D+01 EUMP2 =    -0.47231647919417D+03

 The electronic state is 1-A.
 Alpha  occ. eigenvalues --  -11.21664 -11.21615 -11.21580 -11.21577 -11.21435
 Alpha  occ. eigenvalues --  -11.21381 -11.21373 -11.21318 -11.21152 -11.21106
 Alpha  occ. eigenvalues --  -11.21079 -11.21048  -1.08471  -1.08407  -1.03588
 Alpha  occ. eigenvalues --   -1.03507  -0.96025  -0.95971  -0.87051  -0.86979
 Alpha  occ. eigenvalues --   -0.79659  -0.79565  -0.78285  -0.78214  -0.65221
 Alpha  occ. eigenvalues --   -0.64942  -0.61180  -0.60720  -0.59391  -0.59338
 Alpha  occ. eigenvalues --   -0.57637  -0.57577  -0.55344  -0.55237  -0.52726
 Alpha  occ. eigenvalues --   -0.52665  -0.52461  -0.52384  -0.50087  -0.49831
 Alpha  occ. eigenvalues --   -0.48020  -0.47840  -0.46811  -0.46492  -0.45871
 Alpha  occ. eigenvalues --   -0.45770  -0.45733  -0.45523  -0.43822  -0.43772
 Alpha virt. eigenvalues --    0.19941   0.23045   0.23829   0.24689   0.26023
 Alpha virt. eigenvalues --    0.26412   0.26794   0.27814   0.28393   0.29536
 Alpha virt. eigenvalues --    0.30274   0.30871   0.31743   0.31945   0.32314

 Mulliken charges:
               1
     1  C   -0.298496
     2  C   -0.299690
     3  C   -0.475754
     4  H    0.150127
     5  H    0.149512
     6  H    0.152009
     7  H    0.151933
     8  H    0.155177
     9  H    0.155332
    10  H    0.160308
    11  C   -0.298313
    12  C   -0.301560
    13  C   -0.480474
    14  H    0.149641
    15  H    0.149795
    16  H    0.153385
    17  H    0.152345
    18  H    0.156077
    19  H    0.158964
    20  H    0.160070
    21  C   -0.297391
    22  C   -0.307670
    23  C   -0.475828
    24  H    0.149501
    25  H    0.149318
    26  H    0.151649
    27  H    0.160126
    28  H    0.155139
    29  H    0.155478
    30  H    0.159484
    31  C   -0.300341
    32  C   -0.299570
    33  C   -0.475744
    34  H    0.149246
    35  H    0.152007
    36  H    0.151824
    37  H    0.151722
    38  H    0.155422
    39  H    0.155119
    40  H    0.160120
 Sum of Mulliken charges =  -0.00000

 Dipole moment (field-independent basis, Debye):
    X=              0.0236    Y=             -0.0185    Z=             -0.0051  Tot=              0.0304
 Quadrupole moment (field-independent basis, Debye-Ang):
   XX=            -85.6586   YY=            -84.3273   ZZ=            -84.8075
   XY=             -1.7833   XZ=             -0.2192   YZ=             -0.9875

 Normal termination of Gaussian 16 at Thu May  6 05:16:00 2021.
