 Gaussian 16, Revision A.03,
 Gaussian 16:  EM64L-G16RevA.03 25-Dec-2016

 -------------
 #p 6-31g* mp2
 -------------

 ------------------------------------------------------
 Input file generated by CHIRIPA (05-May-2021 14:57:27)
 ------------------------------------------------------
 Symbolic Z-matrix:
 Charge =  0 Multiplicity = 1

                         Standard orientation:
 ---------------------------------------------------------------------
 Center     Atomic      Atomic             Coordinates (Angstroms)
 Number     Number       Type             X           Y           Z
 ---------------------------------------------------------------------
      1          6           0       -4.738172    1.809706    0.139143
      2          6           0       -3.610958    1.724395    0.962934
      3          6           0       -2.803340    0.583348    0.945247
      4          6           0       -3.153935   -0.458298    0.087724
      5          6           0       -4.270598   -0.403236   -0.744936
      6          6           0       -5.063820    0.747491   -0.710665
      7          1           0       -5.359958    2.699858    0.159324
      8          1           0       -3.355638    2.547784    1.623909
      9          1           0       -1.925035    0.490889    1.572503
     10          1           0       -4.499636   -1.240273   -1.393264
     11          1           0       -5.938637    0.810975   -1.351532
     12          7           0       -2.306566   -1.671396    0.060221
     13          8           0       -2.636952   -2.575375   -0.704177
     14          8           0       -1.328057   -1.695274    0.803582
     15          6           0        3.844928   -2.188691    0.179534
     16          6           0        2.517129   -1.785677    0.003316
     17          6           0        2.200001   -0.432534   -0.148277
     18          6           0        3.240291    0.494936   -0.118532
     19          6           0        4.572957    0.124722    0.055344
     20          6           0        4.866802   -1.233889    0.204941
     21          1           0        4.082237   -3.241969    0.296520
     22          1           0        1.721478   -2.524987   -0.016824
     23          1           0        1.180665   -0.092900   -0.286193
     24          1           0        5.344494    0.884919    0.071103
     25          1           0        5.898888   -1.543978    0.341637
     26          7           0        2.916886    1.930343   -0.277960
     27          8           0        3.851625    2.727844   -0.248108
     28          8           0        1.734785    2.230733   -0.429753
 ---------------------------------------------------------------------

 SCF Done:  E(RHF) =  -868.341363646     A.U. after   16 cycles
 E2 =    -0.2598493294D+01 EUMP2 =    -0.87093985693980D+03

 The electronic state is 1-A.
 Alpha  occ. eigenvalues --  -20.61466 -20.61416 -20.60357 -20.60339 -15.86440
 Alpha  occ. eigenvalues --  -15.85389 -11.31369 -11.30449 -11.27905 -11.27864
 Alpha  occ. eigenvalues --  -11.27554 -11.27029 -11.26847 -11.26832 -11.26767
 Alpha  occ. eigenvalues --  -11.26644 -11.26018 -11.25712  -1.60498  -1.59429
 Alpha  occ. eigenvalues --   -1.40063  -1.38992  -1.19503  -1.18580  -1.08983
 Alpha  occ. eigenvalues --   -1.08040  -1.04835  -1.03899  -0.95888  -0.94926
 Alpha  occ. eigenvalues --   -0.86261  -0.85328  -0.82740  -0.81744  -0.77829
 Alpha  occ. eigenvalues --   -0.76825  -0.72678  -0.71793  -0.71617  -0.70745
 Alpha  occ. eigenvalues --   -0.70612  -0.69694  -0.65161  -0.64838  -0.64216
 Alpha  occ. eigenvalues --   -0.63871  -0.62190  -0.61226  -0.55364  -0.54450
 Alpha  occ. eigenvalues --   -0.53186  -0.52925  -0.52295  -0.51962  -0.49449
 Alpha  occ. eigenvalues --   -0.49395  -0.48386  -0.48342  -0.45551  -0.44465
 Alpha  occ. eigenvalues --   -0.37460  -0.36578  -0.36407  -0.35495
 Alpha virt. eigenvalues --    0.04629   0.05646   0.11230   0.12138   0.16197
 Alpha virt. eigenvalues --    0.17219   0.21309   0.22404   0.27113   0.27743
 Alpha virt. eigenvalues --    0.28673   0.29123   0.31067   0.31866   0.32235

 Mulliken charges:
               1
     1  C   -0.169122
     2  C   -0.216613
     3  C   -0.168498
     4  C    0.156506
     5  C   -0.170510
     6  C   -0.218489
     7  H    0.227678
     8  H    0.227941
     9  H    0.276644
    10  H    0.274747
    11  H    0.224185
    12  N    0.488909
    13  O   -0.457731
    14  O   -0.471087
    15  C   -0.171959
    16  C   -0.221611
    17  C   -0.172382
    18  C    0.157690
    19  C   -0.173136
    20  C   -0.218887
    21  H    0.224750
    22  H    0.242816
    23  H    0.276008
    24  H    0.271981
    25  H    0.220230
    26  N    0.488397
    27  O   -0.462780
    28  O   -0.465678
 Sum of Mulliken charges =  -0.00000

 Dipole moment (field-independent basis, Debye):
    X=             -2.2816    Y=             -0.8442    Z=              0.6796  Tot=              2.5259
 Quadrupole moment (field-independent basis, Debye-Ang):
   XX=            -72.8205   YY=           -113.5654   ZZ=           -103.8145
   XY=            -26.4921   XZ=              4.0355   YZ=              3.1403

 Normal termination of Gaussian 16 at Thu May  6 00:28:36 2021.
