 Gaussian 16, Revision A.03,
 Gaussian 16:  EM64L-G16RevA.03 25-Dec-2016

 -------------
 #p 6-31g* mp2
 -------------

 ------------------------------------------------------
 Input file generated by CHIRIPA (05-May-2021 14:57:27)
 ------------------------------------------------------
 Symbolic Z-matrix:
 Charge =  0 Multiplicity = 1

                         Standard orientation:
 ---------------------------------------------------------------------
 Center     Atomic      Atomic             Coordinates (Angstroms)
 Number     Number       Type             X           Y           Z
 ---------------------------------------------------------------------
      1          6           0       -4.695495    1.797314    0.478781
      2          6           0       -5.079160    0.522048    0.906588
      3          6           0       -4.275837   -0.589482    0.635073
      4          6           0       -3.090021   -0.388522   -0.069730
      5          6           0       -2.680542    0.869412   -0.509297
      6          6           0       -3.499519    1.966627   -0.226553
      7          1           0       -5.325616    2.655217    0.694062
      8          1           0       -6.007438    0.387573    1.454551
      9          1           0       -4.548837   -1.587907    0.954504
     10          1           0       -1.749571    0.972016   -1.053524
     11          1           0       -3.199041    2.955846   -0.560027
     12          7           0       -2.231293   -1.557672   -0.363115
     13          8           0       -1.191331   -1.354076   -0.985743
     14          8           0       -2.614444   -2.655509    0.035114
     15          6           0        3.484946   -2.303202    0.259153
     16          6           0        4.313242   -1.443162    0.987698
     17          6           0        4.181743   -0.056832    0.863822
     18          6           0        3.207053    0.437430   -0.001611
     19          6           0        2.366739   -0.393559   -0.740950
     20          6           0        2.516046   -1.776585   -0.601328
     21          1           0        3.594015   -3.378854    0.361498
     22          1           0        5.066567   -1.849327    1.656709
     23          1           0        4.809691    0.631830    1.415949
     24          1           0        1.624902    0.040975   -1.399947
     25          1           0        1.871388   -2.442109   -1.168372
     26          7           0        3.058415    1.903326   -0.141087
     27          8           0        2.192016    2.313741   -0.910211
     28          8           0        3.811124    2.614125    0.521356
 ---------------------------------------------------------------------

 SCF Done:  E(RHF) =  -868.341189775     A.U. after   16 cycles
 E2 =    -0.2598672506D+01 EUMP2 =    -0.87093986228059D+03

 The electronic state is 1-A.
 Alpha  occ. eigenvalues --  -20.61319 -20.61295 -20.60369 -20.60343 -15.86334
 Alpha  occ. eigenvalues --  -15.85395 -11.31330 -11.30406 -11.27881 -11.27811
 Alpha  occ. eigenvalues --  -11.27541 -11.26988 -11.26827 -11.26801 -11.26739
 Alpha  occ. eigenvalues --  -11.26593 -11.25968 -11.25673  -1.60364  -1.59436
 Alpha  occ. eigenvalues --   -1.39932  -1.39001  -1.19470  -1.18537  -1.08937
 Alpha  occ. eigenvalues --   -1.08006  -1.04811  -1.03850  -0.95834  -0.94899
 Alpha  occ. eigenvalues --   -0.86232  -0.85283  -0.82688  -0.81721  -0.77765
 Alpha  occ. eigenvalues --   -0.76804  -0.72591  -0.71659  -0.71625  -0.70750
 Alpha  occ. eigenvalues --   -0.70579  -0.69649  -0.65129  -0.64809  -0.64174
 Alpha  occ. eigenvalues --   -0.63831  -0.62157  -0.61179  -0.55339  -0.54404
 Alpha  occ. eigenvalues --   -0.53170  -0.52895  -0.52244  -0.51923  -0.49334
 Alpha  occ. eigenvalues --   -0.49286  -0.48395  -0.48344  -0.45413  -0.44484
 Alpha  occ. eigenvalues --   -0.37440  -0.36533  -0.36397  -0.35422
 Alpha virt. eigenvalues --    0.04720   0.05679   0.11257   0.12197   0.16291
 Alpha virt. eigenvalues --    0.17263   0.21116   0.22409   0.26428   0.27662
 Alpha virt. eigenvalues --    0.28697   0.29398   0.31001   0.31702   0.32185

 Mulliken charges:
               1
     1  C   -0.169894
     2  C   -0.218846
     3  C   -0.170957
     4  C    0.157338
     5  C   -0.170287
     6  C   -0.218960
     7  H    0.227189
     8  H    0.223678
     9  H    0.274504
    10  H    0.279092
    11  H    0.229407
    12  N    0.492229
    13  O   -0.473105
    14  O   -0.459228
    15  C   -0.172203
    16  C   -0.219119
    17  C   -0.173314
    18  C    0.156199
    19  C   -0.169921
    20  C   -0.216410
    21  H    0.224834
    22  H    0.219993
    23  H    0.271615
    24  H    0.278246
    25  H    0.239058
    26  N    0.488702
    27  O   -0.467165
    28  O   -0.462676
 Sum of Mulliken charges =  -0.00000

 Dipole moment (field-independent basis, Debye):
    X=             -2.8568    Y=             -1.1301    Z=              1.4543  Tot=              3.3990
 Quadrupole moment (field-independent basis, Debye-Ang):
   XX=            -79.1669   YY=           -111.4332   ZZ=           -102.9532
   XY=            -26.2139   XZ=             -0.7788   YZ=             -1.4310

 Normal termination of Gaussian 16 at Thu May  6 16:31:55 2021.
