 Gaussian 16, Revision A.03,
 Gaussian 16:  EM64L-G16RevA.03 25-Dec-2016

 -------------
 #p 6-31g* mp2
 -------------

 ------------------------------------------------------
 Input file generated by CHIRIPA (05-May-2021 14:51:09)
 ------------------------------------------------------
 Symbolic Z-matrix:
 Charge =  0 Multiplicity = 1

                         Standard orientation:
 ---------------------------------------------------------------------
 Center     Atomic      Atomic             Coordinates (Angstroms)
 Number     Number       Type             X           Y           Z
 ---------------------------------------------------------------------
      1          6           0       -2.316589   -0.996110    0.731593
      2          6           0       -1.058743   -1.831606    0.491268
      3          6           0       -0.830693   -2.882730    1.577972
      4          1           0       -2.240097   -0.503048    1.710360
      5          1           0       -3.187341   -1.664164    0.785341
      6          1           0       -0.190802   -1.162048    0.436610
      7          1           0       -1.138153   -2.322585   -0.487124
      8          1           0       -1.678181   -3.573911    1.629294
      9          1           0       -0.725448   -2.406781    2.558276
     10          1           0        0.073735   -3.468539    1.386403
     11          6           0       -2.558106    0.059057   -0.346377
     12          6           0       -3.815952    0.894552   -0.106052
     13          6           0       -4.044002    1.945677   -1.192755
     14          1           0       -1.687354    0.727110   -0.400124
     15          1           0       -2.634598   -0.434006   -1.325143
     16          1           0       -3.736542    1.385531    0.872340
     17          1           0       -4.683892    0.224995   -0.051393
     18          1           0       -4.149247    1.469727   -2.173060
     19          1           0       -3.196514    2.636858   -1.244078
     20          1           0       -4.948430    2.531485   -1.001187
     21          6           0        2.548685    0.971013    0.371788
     22          6           0        2.144434    2.398373    0.001371
     23          6           0        2.373083    3.392068    1.140706
     24          1           0        1.980167    0.653636    1.256664
     25          1           0        3.608670    0.960958    0.661139
     26          1           0        1.085885    2.405489   -0.288523
     27          1           0        2.713841    2.712319   -0.882840
     28          1           0        3.429810    3.414500    1.426057
     29          1           0        1.792603    3.105926    2.023751
     30          1           0        2.077401    4.406179    0.854332
     31          6           0        2.326010   -0.033959   -0.757005
     32          6           0        2.730261   -1.461320   -0.386588
     33          6           0        2.501612   -2.455014   -1.525922
     34          1           0        1.266024   -0.023904   -1.046355
     35          1           0        2.894528    0.283417   -1.641880
     36          1           0        2.160854   -1.775265    0.497624
     37          1           0        3.788811   -1.468435   -0.096693
     38          1           0        3.082091   -2.168872   -2.408967
     39          1           0        1.444885   -2.477446   -1.811274
     40          1           0        2.797294   -3.469126   -1.239549
 ---------------------------------------------------------------------

 SCF Done:  E(RHF) =  -470.732397364     A.U. after   11 cycles
 E2 =    -0.1585218879D+01 EUMP2 =    -0.47231761624271D+03

 The electronic state is 1-A.
 Alpha  occ. eigenvalues --  -11.21655 -11.21653 -11.21626 -11.21555 -11.21477
 Alpha  occ. eigenvalues --  -11.21426 -11.21414 -11.21334 -11.21130 -11.21113
 Alpha  occ. eigenvalues --  -11.21108 -11.21027  -1.08546  -1.08406  -1.03645
 Alpha  occ. eigenvalues --   -1.03485  -0.96047  -0.95979  -0.87058  -0.87001
 Alpha  occ. eigenvalues --   -0.79670  -0.79602  -0.78366  -0.78224  -0.65465
 Alpha  occ. eigenvalues --   -0.64829  -0.61206  -0.60804  -0.59368  -0.59321
 Alpha  occ. eigenvalues --   -0.57639  -0.57582  -0.55332  -0.55271  -0.52729
 Alpha  occ. eigenvalues --   -0.52677  -0.52465  -0.52407  -0.50083  -0.49853
 Alpha  occ. eigenvalues --   -0.48058  -0.47843  -0.46736  -0.46584  -0.46193
 Alpha  occ. eigenvalues --   -0.45824  -0.45695  -0.45318  -0.43841  -0.43792
 Alpha virt. eigenvalues --    0.19662   0.21943   0.23671   0.24654   0.25300
 Alpha virt. eigenvalues --    0.26053   0.26717   0.27600   0.28799   0.30014
 Alpha virt. eigenvalues --    0.30760   0.30981   0.31430   0.31832   0.32407

 Mulliken charges:
               1
     1  C   -0.297492
     2  C   -0.309762
     3  C   -0.477444
     4  H    0.149374
     5  H    0.149798
     6  H    0.162927
     7  H    0.152295
     8  H    0.155714
     9  H    0.154891
    10  H    0.162024
    11  C   -0.300911
    12  C   -0.299641
    13  C   -0.475765
    14  H    0.150435
    15  H    0.149865
    16  H    0.152084
    17  H    0.152335
    18  H    0.155352
    19  H    0.155189
    20  H    0.160504
    21  C   -0.299343
    22  C   -0.300668
    23  C   -0.475676
    24  H    0.149134
    25  H    0.150202
    26  H    0.151911
    27  H    0.152527
    28  H    0.155505
    29  H    0.154925
    30  H    0.160393
    31  C   -0.304416
    32  C   -0.303762
    33  C   -0.477604
    34  H    0.153260
    35  H    0.151001
    36  H    0.155959
    37  H    0.152225
    38  H    0.154954
    39  H    0.158155
    40  H    0.159551
 Sum of Mulliken charges =  -0.00000

 Dipole moment (field-independent basis, Debye):
    X=             -0.0155    Y=             -0.0065    Z=             -0.0039  Tot=              0.0172
 Quadrupole moment (field-independent basis, Debye-Ang):
   XX=            -83.6701   YY=            -85.6355   ZZ=            -85.4094
   XY=              0.7452   XZ=             -0.2987   YZ=              0.2547

 Normal termination of Gaussian 16 at Wed May  5 16:38:07 2021.
