 Gaussian 16, Revision A.03,
 Gaussian 16:  EM64L-G16RevA.03 25-Dec-2016

 -------------
 #p 6-31g* mp2
 -------------

 ------------------------------------------------------
 Input file generated by CHIRIPA (05-May-2021 14:53:13)
 ------------------------------------------------------
 Symbolic Z-matrix:
 Charge =  0 Multiplicity = 1

                         Standard orientation:
 ---------------------------------------------------------------------
 Center     Atomic      Atomic             Coordinates (Angstroms)
 Number     Number       Type             X           Y           Z
 ---------------------------------------------------------------------
      1          6           0       -4.588900   -0.318110    0.014751
      2          6           0       -4.221721   -1.802196   -0.010791
      3          6           0       -5.419729   -2.712345    0.261601
      4          1           0       -5.023775   -0.071293    0.992968
      5          1           0       -5.372038   -0.128389   -0.732307
      6          1           0       -3.438526   -1.988801    0.735132
      7          1           0       -3.787492   -2.045466   -0.988994
      8          1           0       -6.201310   -2.555313   -0.488781
      9          1           0       -5.850361   -2.498326    1.245142
     10          1           0       -5.134719   -3.768803    0.238636
     11          6           0       -3.401715    0.604436   -0.255858
     12          6           0       -3.768894    2.088522   -0.230316
     13          6           0       -2.570886    2.998672   -0.502709
     14          1           0       -2.618576    0.414715    0.491199
     15          1           0       -2.966840    0.357619   -1.234076
     16          1           0       -4.203122    2.331792    0.747887
     17          1           0       -4.552089    2.275127   -0.976239
     18          1           0       -2.140253    2.784652   -1.486249
     19          1           0       -1.789304    2.841639    0.247673
     20          1           0       -2.855896    4.055129   -0.479744
     21          6           0        0.737827    0.396154    0.747447
     22          6           0        1.034018   -0.013769   -0.556683
     23          6           0        2.351065   -0.297910   -0.929774
     24          6           0        3.351763   -0.160958    0.031027
     25          6           0        3.088475    0.245389    1.338258
     26          6           0        1.764192    0.524199    1.689095
     27          1           0       -0.288098    0.614811    1.028630
     28          1           0        0.238954   -0.114078   -1.290070
     29          1           0        2.608438   -0.617085   -1.932423
     30          1           0        3.902371    0.336243    2.047296
     31          1           0        1.537108    0.842359    2.702630
     32          7           0        4.749892   -0.458943   -0.352168
     33          8           0        5.613492   -0.330572    0.512906
     34          8           0        4.955672   -0.815232   -1.510334
 ---------------------------------------------------------------------

 SCF Done:  E(RHF) =  -669.535465089     A.U. after   15 cycles
 E2 =    -0.2091791424D+01 EUMP2 =    -0.67162725651277D+03

 The electronic state is 1-A.
 Alpha  occ. eigenvalues --  -20.60708 -20.60703 -15.85761 -11.31113 -11.27681
 Alpha  occ. eigenvalues --  -11.27671 -11.27380 -11.26693 -11.26666 -11.22694
 Alpha  occ. eigenvalues --  -11.22619 -11.22440 -11.22320 -11.22121 -11.21727
 Alpha  occ. eigenvalues --   -1.59784  -1.39338  -1.19280  -1.09468  -1.08673
 Alpha  occ. eigenvalues --   -1.04682  -1.04462  -0.96922  -0.95516  -0.87931
 Alpha  occ. eigenvalues --   -0.86076  -0.82354  -0.80535  -0.79308  -0.77398
 Alpha  occ. eigenvalues --   -0.71979  -0.71107  -0.70410  -0.66095  -0.64929
 Alpha  occ. eigenvalues --   -0.64683  -0.62031  -0.61853  -0.60293  -0.58534
 Alpha  occ. eigenvalues --   -0.56228  -0.55208  -0.53561  -0.53357  -0.52999
 Alpha  occ. eigenvalues --   -0.52771  -0.50867  -0.48837  -0.48738  -0.48734
 Alpha  occ. eigenvalues --   -0.47567  -0.46805  -0.46737  -0.44747  -0.44746
 Alpha  occ. eigenvalues --   -0.37250  -0.36287
 Alpha virt. eigenvalues --    0.05116   0.11360   0.16553   0.18943   0.22572
 Alpha virt. eigenvalues --    0.23754   0.24015   0.25562   0.27032   0.27904
 Alpha virt. eigenvalues --    0.29579   0.30053   0.30981   0.31299   0.31686

 Mulliken charges:
               1
     1  C   -0.298031
     2  C   -0.300471
     3  C   -0.476305
     4  H    0.151968
     5  H    0.153490
     6  H    0.150688
     7  H    0.151963
     8  H    0.156942
     9  H    0.156378
    10  H    0.162930
    11  C   -0.303774
    12  C   -0.300509
    13  C   -0.477610
    14  H    0.142022
    15  H    0.148451
    16  H    0.154389
    17  H    0.156803
    18  H    0.156109
    19  H    0.149937
    20  H    0.166211
    21  C   -0.176342
    22  C   -0.221988
    23  C   -0.171108
    24  C    0.158430
    25  C   -0.170779
    26  C   -0.220109
    27  H    0.234899
    28  H    0.224922
    29  H    0.275291
    30  H    0.275212
    31  H    0.223280
    32  N    0.488012
    33  O   -0.460652
    34  O   -0.460649
 Sum of Mulliken charges =  -0.00000

 Dipole moment (field-independent basis, Debye):
    X=             -5.2133    Y=              1.0707    Z=              1.3065  Tot=              5.4802
 Quadrupole moment (field-independent basis, Debye-Ang):
   XX=           -127.4022   YY=            -95.8446   ZZ=            -89.4745
   XY=              4.0633   XZ=              6.4599   YZ=              1.1173

 Normal termination of Gaussian 16 at Wed May  5 23:25:12 2021.
