 Gaussian 16, Revision A.03,
 Gaussian 16:  EM64L-G16RevA.03 25-Dec-2016

 -------------
 #p 6-31g* mp2
 -------------

 ------------------------------------------------------
 Input file generated by CHIRIPA (05-May-2021 14:53:12)
 ------------------------------------------------------
 Symbolic Z-matrix:
 Charge =  0 Multiplicity = 1

                         Standard orientation:
 ---------------------------------------------------------------------
 Center     Atomic      Atomic             Coordinates (Angstroms)
 Number     Number       Type             X           Y           Z
 ---------------------------------------------------------------------
      1          6           0       -3.705877   -0.432315    0.050651
      2          6           0       -2.778666   -1.543699   -0.442391
      3          6           0       -3.342867   -2.941458   -0.185995
      4          1           0       -3.886812   -0.564646    1.126149
      5          1           0       -4.681535   -0.531509   -0.444977
      6          1           0       -1.804605   -1.441609    0.052986
      7          1           0       -2.599764   -1.408596   -1.516801
      8          1           0       -4.304531   -3.067831   -0.693768
      9          1           0       -3.504854   -3.101031    0.884938
     10          1           0       -2.664015   -3.720713   -0.546248
     11          6           0       -3.155595    0.970824   -0.198581
     12          6           0       -4.082807    2.082208    0.294461
     13          6           0       -3.518605    3.479967    0.038066
     14          1           0       -2.179937    1.070018    0.297048
     15          1           0       -2.974660    1.103155   -1.274079
     16          1           0       -4.261708    1.947105    1.368872
     17          1           0       -5.056868    1.980118   -0.200916
     18          1           0       -3.356618    3.639540   -1.032867
     19          1           0       -2.556941    3.606340    0.545839
     20          1           0       -4.197457    4.259222    0.398319
     21          6           0        0.907306   -1.957203    0.471392
     22          6           0        1.514930   -1.307300    1.550716
     23          6           0        2.498446   -0.337761    1.333375
     24          6           0        2.851666   -0.041476    0.017799
     25          6           0        2.264678   -0.671553   -1.078440
     26          6           0        1.283456   -1.637818   -0.837434
     27          1           0        0.144178   -2.709092    0.649419
     28          1           0        1.224799   -1.553310    2.568238
     29          1           0        2.985086    0.180757    2.150528
     30          1           0        2.574895   -0.404949   -2.081488
     31          1           0        0.813270   -2.140928   -1.677583
     32          7           0        3.891656    0.983199   -0.224817
     33          8           0        4.185113    1.226184   -1.393353
     34          8           0        4.393649    1.523950    0.758151
 ---------------------------------------------------------------------

 SCF Done:  E(RHF) =  -669.534758722     A.U. after   15 cycles
 E2 =    -0.2092558564D+01 EUMP2 =    -0.67162731728582D+03

 The electronic state is 1-A.
 Alpha  occ. eigenvalues --  -20.60781 -20.60776 -15.85836 -11.31213 -11.27789
 Alpha  occ. eigenvalues --  -11.27773 -11.27504 -11.26807 -11.26783 -11.22376
 Alpha  occ. eigenvalues --  -11.22026 -11.21982 -11.21917 -11.21779 -11.21266
 Alpha  occ. eigenvalues --   -1.59857  -1.39410  -1.19393  -1.08991  -1.08779
 Alpha  occ. eigenvalues --   -1.04792  -1.04103  -0.96542  -0.95621  -0.87551
 Alpha  occ. eigenvalues --   -0.86190  -0.82453  -0.80190  -0.78754  -0.77487
 Alpha  occ. eigenvalues --   -0.72053  -0.71180  -0.70534  -0.65618  -0.65042
 Alpha  occ. eigenvalues --   -0.64791  -0.62137  -0.61510  -0.59960  -0.58151
 Alpha  occ. eigenvalues --   -0.55849  -0.55255  -0.53280  -0.53150  -0.52933
 Alpha  occ. eigenvalues --   -0.52881  -0.50467  -0.48814  -0.48808  -0.48482
 Alpha  occ. eigenvalues --   -0.47211  -0.46297  -0.46195  -0.44813  -0.44334
 Alpha  occ. eigenvalues --   -0.37295  -0.36394
 Alpha virt. eigenvalues --    0.05001   0.11233   0.16388   0.20079   0.22666
 Alpha virt. eigenvalues --    0.23904   0.26022   0.26433   0.27050   0.27523
 Alpha virt. eigenvalues --    0.29400   0.30530   0.30956   0.31209   0.31772

 Mulliken charges:
               1
     1  C   -0.297340
     2  C   -0.308414
     3  C   -0.477466
     4  H    0.149171
     5  H    0.151213
     6  H    0.153257
     7  H    0.151448
     8  H    0.160814
     9  H    0.155398
    10  H    0.153540
    11  C   -0.299226
    12  C   -0.300120
    13  C   -0.476119
    14  H    0.151738
    15  H    0.150372
    16  H    0.151594
    17  H    0.152244
    18  H    0.156233
    19  H    0.156807
    20  H    0.161320
    21  C   -0.172093
    22  C   -0.221014
    23  C   -0.170947
    24  C    0.158653
    25  C   -0.171083
    26  C   -0.216309
    27  H    0.229378
    28  H    0.223592
    29  H    0.275650
    30  H    0.275751
    31  H    0.224595
    32  N    0.488074
    33  O   -0.460263
    34  O   -0.460448
 Sum of Mulliken charges =  -0.00000

 Dipole moment (field-independent basis, Debye):
    X=             -3.7152    Y=             -3.5226    Z=              0.8426  Tot=              5.1886
 Quadrupole moment (field-independent basis, Debye-Ang):
   XX=           -116.0688   YY=            -96.3043   ZZ=            -89.0276
   XY=            -10.5999   XZ=              3.4063   YZ=              0.7666

 Normal termination of Gaussian 16 at Thu May  6 10:25:05 2021.
