 Gaussian 16, Revision A.03,
 Gaussian 16:  EM64L-G16RevA.03 25-Dec-2016

 -------------
 #p 6-31g* mp2
 -------------

 ------------------------------------------------------
 Input file generated by CHIRIPA (05-May-2021 14:55:22)
 ------------------------------------------------------
 Symbolic Z-matrix:
 Charge =  0 Multiplicity = 1

                         Standard orientation:
 ---------------------------------------------------------------------
 Center     Atomic      Atomic             Coordinates (Angstroms)
 Number     Number       Type             X           Y           Z
 ---------------------------------------------------------------------
      1          6           0        2.120127    1.723207    1.822618
      2          6           0        3.375350    1.399185    1.297314
      3          6           0        3.510946    0.360468    0.371448
      4          6           0        2.365103   -0.336545   -0.008691
      5          6           0        1.100800   -0.037552    0.496710
      6          6           0        0.988852    1.005071    1.421347
      7          1           0        2.023978    2.531625    2.541375
      8          1           0        4.255645    1.955190    1.607128
      9          1           0        4.470616    0.088586   -0.051083
     10          1           0        0.241528   -0.609819    0.168715
     11          1           0        0.012763    1.254506    1.827643
     12          7           0        2.496134   -1.438256   -0.988214
     13          8           0        1.471237   -2.037117   -1.306943
     14          8           0        3.621253   -1.682056   -1.418686
     15          6           0       -2.931510    0.958062   -0.235983
     16          6           0       -2.323379    1.443021   -1.552409
     17          6           0       -2.193425    2.965047   -1.618308
     18          1           0       -3.920585    1.417959   -0.104944
     19          1           0       -2.309899    1.310403    0.598795
     20          1           0       -2.945189    1.088703   -2.384532
     21          1           0       -1.335718    0.981767   -1.680422
     22          1           0       -1.555789    3.332691   -0.807840
     23          1           0       -3.174404    3.440235   -1.515950
     24          1           0       -1.756489    3.289934   -2.567727
     25          6           0       -3.067869   -0.561339   -0.155046
     26          6           0       -3.675999   -1.046297    1.161380
     27          6           0       -3.805954   -2.568323    1.227279
     28          1           0       -3.689479   -0.913679   -0.989823
     29          1           0       -2.078793   -1.021235   -0.286085
     30          1           0       -4.663659   -0.585044    1.289393
     31          1           0       -3.054190   -0.691978    1.993503
     32          1           0       -2.824975   -3.043511    1.124921
     33          1           0       -4.443589   -2.935968    0.416811
     34          1           0       -4.242890   -2.893210    2.176697
 ---------------------------------------------------------------------

 SCF Done:  E(RHF) =  -669.535302184     A.U. after   15 cycles
 E2 =    -0.2093058914D+01 EUMP2 =    -0.67162836109821D+03

 The electronic state is 1-A.
 Alpha  occ. eigenvalues --  -20.60805 -20.60799 -15.85856 -11.31223 -11.27794
 Alpha  occ. eigenvalues --  -11.27783 -11.27535 -11.26812 -11.26802 -11.22036
 Alpha  occ. eigenvalues --  -11.22004 -11.21926 -11.21844 -11.21418 -11.21266
 Alpha  occ. eigenvalues --   -1.59879  -1.39433  -1.19399  -1.08909  -1.08792
 Alpha  occ. eigenvalues --   -1.04804  -1.03896  -0.96355  -0.95627  -0.87360
 Alpha  occ. eigenvalues --   -0.86204  -0.82461  -0.79958  -0.78721  -0.77515
 Alpha  occ. eigenvalues --   -0.72076  -0.71201  -0.70524  -0.65632  -0.65035
 Alpha  occ. eigenvalues --   -0.64814  -0.62114  -0.61297  -0.59710  -0.57955
 Alpha  occ. eigenvalues --   -0.55679  -0.55270  -0.53128  -0.53024  -0.52906
 Alpha  occ. eigenvalues --   -0.52757  -0.50292  -0.48835  -0.48831  -0.48263
 Alpha  occ. eigenvalues --   -0.47008  -0.46233  -0.46173  -0.44836  -0.44190
 Alpha  occ. eigenvalues --   -0.37376  -0.36394
 Alpha virt. eigenvalues --    0.04997   0.11184   0.16421   0.18423   0.23190
 Alpha virt. eigenvalues --    0.23762   0.24766   0.25197   0.27421   0.28470
 Alpha virt. eigenvalues --    0.30671   0.31071   0.31258   0.31606   0.31688

 Mulliken charges:
               1
     1  C   -0.170738
     2  C   -0.218758
     3  C   -0.169781
     4  C    0.157732
     5  C   -0.179789
     6  C   -0.225777
     7  H    0.226113
     8  H    0.223706
     9  H    0.275841
    10  H    0.288530
    11  H    0.227346
    12  N    0.486905
    13  O   -0.461111
    14  O   -0.459990
    15  C   -0.301263
    16  C   -0.301778
    17  C   -0.475331
    18  H    0.153129
    19  H    0.138853
    20  H    0.156561
    21  H    0.155403
    22  H    0.150992
    23  H    0.155484
    24  H    0.163679
    25  C   -0.306903
    26  C   -0.299035
    27  C   -0.476489
    28  H    0.156733
    29  H    0.153394
    30  H    0.153628
    31  H    0.144819
    32  H    0.159116
    33  H    0.158101
    34  H    0.160679
 Sum of Mulliken charges =  -0.00000

 Dipole moment (field-independent basis, Debye):
    X=             -0.5514    Y=              3.8111    Z=              3.3291  Tot=              5.0904
 Quadrupole moment (field-independent basis, Debye-Ang):
   XX=            -90.5582   YY=            -98.9815   ZZ=            -95.3102
   XY=             10.4527   XZ=              8.7627   YZ=             -1.0590

 Normal termination of Gaussian 16 at Wed May  5 17:29:11 2021.
