 Gaussian 16, Revision A.03,
 Gaussian 16:  EM64L-G16RevA.03 25-Dec-2016

 -------------
 #p 6-31g* mp2
 -------------

 ------------------------------------------------------
 Input file generated by CHIRIPA (05-May-2021 14:55:20)
 ------------------------------------------------------
 Symbolic Z-matrix:
 Charge =  0 Multiplicity = 1

                         Standard orientation:
 ---------------------------------------------------------------------
 Center     Atomic      Atomic             Coordinates (Angstroms)
 Number     Number       Type             X           Y           Z
 ---------------------------------------------------------------------
      1          6           0       -2.757512    1.786167    0.794188
      2          6           0       -2.348823    1.613521   -0.532345
      3          6           0       -1.952972    0.355132   -0.995278
      4          6           0       -1.978171   -0.713524   -0.100498
      5          6           0       -2.380224   -0.573438    1.226912
      6          6           0       -2.771883    0.694062    1.668042
      7          1           0       -3.063390    2.767253    1.145336
      8          1           0       -2.336656    2.459866   -1.213224
      9          1           0       -1.632050    0.193304   -2.017158
     10          1           0       -2.381750   -1.436059    1.882123
     11          1           0       -3.088801    0.825189    2.698776
     12          7           0       -1.561321   -2.050547   -0.579043
     13          8           0       -1.592473   -2.976041    0.229119
     14          8           0       -1.211335   -2.147694   -1.753228
     15          6           0        3.057239    0.188212    0.470366
     16          6           0        3.271866   -1.214473   -0.099190
     17          6           0        4.148616   -2.088915    0.797722
     18          1           0        4.033137    0.671548    0.615121
     19          1           0        2.598440    0.106096    1.465431
     20          1           0        3.728854   -1.129692   -1.093469
     21          1           0        2.295333   -1.694454   -0.242785
     22          1           0        3.694254   -2.203146    1.787221
     23          1           0        5.135920   -1.635174    0.931704
     24          1           0        4.289028   -3.087191    0.371588
     25          6           0        2.182755    1.074293   -0.414997
     26          6           0        1.968130    2.476979    0.154558
     27          6           0        1.091379    3.351421   -0.742354
     28          1           0        2.641556    1.156409   -1.410063
     29          1           0        1.206857    0.590958   -0.559752
     30          1           0        2.944661    2.956960    0.298154
     31          1           0        1.511141    2.392197    1.148836
     32          1           0        0.104074    2.897680   -0.876337
     33          1           0        1.545739    3.465651   -1.731853
     34          1           0        0.950967    4.349696   -0.316219
 ---------------------------------------------------------------------

 SCF Done:  E(RHF) =  -669.534951245     A.U. after   15 cycles
 E2 =    -0.2093960152D+01 EUMP2 =    -0.67162891139718D+03

 The electronic state is 1-A.
 Alpha  occ. eigenvalues --  -20.60900 -20.60891 -15.85952 -11.31344 -11.27903
 Alpha  occ. eigenvalues --  -11.27897 -11.27636 -11.26914 -11.26899 -11.21732
 Alpha  occ. eigenvalues --  -11.21354 -11.21308 -11.21209 -11.21151 -11.20661
 Alpha  occ. eigenvalues --   -1.59973  -1.39524  -1.19521  -1.08904  -1.08315
 Alpha  occ. eigenvalues --   -1.04928  -1.03420  -0.95902  -0.95730  -0.86940
 Alpha  occ. eigenvalues --   -0.86304  -0.82564  -0.79510  -0.78098  -0.77604
 Alpha  occ. eigenvalues --   -0.72162  -0.71301  -0.70600  -0.65163  -0.65013
 Alpha  occ. eigenvalues --   -0.64877  -0.62279  -0.60826  -0.59290  -0.57491
 Alpha  occ. eigenvalues --   -0.55413  -0.55219  -0.53264  -0.53026  -0.52593
 Alpha  occ. eigenvalues --   -0.52301  -0.49855  -0.48927  -0.48918  -0.47809
 Alpha  occ. eigenvalues --   -0.46527  -0.45648  -0.45555  -0.44899  -0.43673
 Alpha  occ. eigenvalues --   -0.37466  -0.36435
 Alpha virt. eigenvalues --    0.04912   0.11007   0.16322   0.21018   0.22921
 Alpha virt. eigenvalues --    0.24477   0.26198   0.26839   0.27444   0.28314
 Alpha virt. eigenvalues --    0.28655   0.30438   0.31618   0.32034   0.32159

 Mulliken charges:
               1
     1  C   -0.171070
     2  C   -0.218294
     3  C   -0.171000
     4  C    0.158927
     5  C   -0.170994
     6  C   -0.218492
     7  H    0.226964
     8  H    0.226273
     9  H    0.277283
    10  H    0.276138
    11  H    0.224208
    12  N    0.487728
    13  O   -0.460066
    14  O   -0.459631
    15  C   -0.298512
    16  C   -0.301020
    17  C   -0.475498
    18  H    0.148329
    19  H    0.147840
    20  H    0.152184
    21  H    0.159368
    22  H    0.154538
    23  H    0.152436
    24  H    0.163324
    25  C   -0.301262
    26  C   -0.296981
    27  C   -0.481853
    28  H    0.149881
    29  H    0.151088
    30  H    0.152394
    31  H    0.150354
    32  H    0.153086
    33  H    0.155591
    34  H    0.156739
 Sum of Mulliken charges =  -0.00000

 Dipole moment (field-independent basis, Debye):
    X=             -1.5811    Y=              4.5671    Z=              1.6849  Tot=              5.1183
 Quadrupole moment (field-independent basis, Debye-Ang):
   XX=            -89.1396   YY=           -102.1027   ZZ=            -91.1251
   XY=             -7.6277   XZ=             -5.0391   YZ=             -3.2927

 Normal termination of Gaussian 16 at Thu May  6 07:42:44 2021.
