 Gaussian 16, Revision A.03,
 Gaussian 16:  EM64L-G16RevA.03 25-Dec-2016

 -------------
 #p 6-31g* mp2
 -------------

 ------------------------------------------------------
 Input file generated by CHIRIPA (05-May-2021 14:55:19)
 ------------------------------------------------------
 Symbolic Z-matrix:
 Charge =  0 Multiplicity = 1

                         Standard orientation:
 ---------------------------------------------------------------------
 Center     Atomic      Atomic             Coordinates (Angstroms)
 Number     Number       Type             X           Y           Z
 ---------------------------------------------------------------------
      1          6           0       -1.362441    1.484807    2.006550
      2          6           0       -2.573680    1.705889    1.342815
      3          6           0       -3.077213    0.756055    0.449048
      4          6           0       -2.340156   -0.408889    0.241818
      5          6           0       -1.130320   -0.658124    0.887935
      6          6           0       -0.645890    0.305585    1.777395
      7          1           0       -0.978704    2.228050    2.699176
      8          1           0       -3.132303    2.620768    1.518829
      9          1           0       -4.012223    0.901650   -0.078186
     10          1           0       -0.596007   -1.579812    0.691929
     11          1           0        0.295056    0.131211    2.291457
     12          7           0       -2.863112   -1.421780   -0.702094
     13          8           0       -2.194727   -2.439915   -0.867317
     14          8           0       -3.931489   -1.178370   -1.258834
     15          6           0        2.205838    0.448276   -0.829376
     16          6           0        2.045729    1.890558   -1.311219
     17          6           0        0.681688    2.152271   -1.950512
     18          1           0        2.060357   -0.233539   -1.678440
     19          1           0        1.410940    0.220416   -0.105766
     20          1           0        2.841516    2.116067   -2.032665
     21          1           0        2.191797    2.569025   -0.460948
     22          1           0       -0.123273    1.954586   -1.235278
     23          1           0        0.530137    1.499054   -2.815926
     24          1           0        0.588731    3.189310   -2.287808
     25          6           0        3.564317    0.171121   -0.187932
     26          6           0        3.724427   -1.271161    0.293911
     27          6           0        5.088467   -1.532874    0.933204
     28          1           0        4.359215    0.398981   -0.911542
     29          1           0        3.709798    0.852936    0.661132
     30          1           0        3.578358   -1.949628   -0.556360
     31          1           0        2.928640   -1.496669    1.015357
     32          1           0        5.240018   -0.879657    1.798618
     33          1           0        5.893429   -1.335189    0.217971
     34          1           0        5.181424   -2.569912    1.270499
 ---------------------------------------------------------------------

 SCF Done:  E(RHF) =  -669.534475339     A.U. after   15 cycles
 E2 =    -0.2094517136D+01 EUMP2 =    -0.67162899247507D+03

 The electronic state is 1-A.
 Alpha  occ. eigenvalues --  -20.60813 -20.60808 -15.85870 -11.31278 -11.27863
 Alpha  occ. eigenvalues --  -11.27848 -11.27618 -11.26892 -11.26875 -11.22064
 Alpha  occ. eigenvalues --  -11.21822 -11.21751 -11.21536 -11.21443 -11.21128
 Alpha  occ. eigenvalues --   -1.59888  -1.39439  -1.19480  -1.08863  -1.08742
 Alpha  occ. eigenvalues --   -1.04897  -1.03814  -0.96246  -0.95680  -0.87262
 Alpha  occ. eigenvalues --   -0.86273  -0.82523  -0.79894  -0.78585  -0.77537
 Alpha  occ. eigenvalues --   -0.72088  -0.71211  -0.70568  -0.65469  -0.65108
 Alpha  occ. eigenvalues --   -0.64857  -0.62222  -0.61238  -0.59624  -0.57861
 Alpha  occ. eigenvalues --   -0.55544  -0.55370  -0.53288  -0.52967  -0.52936
 Alpha  occ. eigenvalues --   -0.52668  -0.50200  -0.48851  -0.48838  -0.48181
 Alpha  occ. eigenvalues --   -0.46931  -0.46077  -0.46023  -0.44832  -0.44067
 Alpha  occ. eigenvalues --   -0.37455  -0.36360
 Alpha virt. eigenvalues --    0.04967   0.11118   0.16315   0.19822   0.22948
 Alpha virt. eigenvalues --    0.23875   0.25322   0.26613   0.27400   0.28172
 Alpha virt. eigenvalues --    0.29815   0.30604   0.31440   0.31591   0.32087

 Mulliken charges:
               1
     1  C   -0.171829
     2  C   -0.218586
     3  C   -0.171385
     4  C    0.159162
     5  C   -0.168844
     6  C   -0.219884
     7  H    0.226389
     8  H    0.224349
     9  H    0.276397
    10  H    0.277691
    11  H    0.225289
    12  N    0.488183
    13  O   -0.459873
    14  O   -0.460149
    15  C   -0.307024
    16  C   -0.297583
    17  C   -0.480672
    18  H    0.154051
    19  H    0.151798
    20  H    0.152987
    21  H    0.146633
    22  H    0.159226
    23  H    0.158565
    24  H    0.158575
    25  C   -0.298116
    26  C   -0.298558
    27  C   -0.475663
    28  H    0.152142
    29  H    0.145017
    30  H    0.157320
    31  H    0.141501
    32  H    0.153373
    33  H    0.157626
    34  H    0.161893
 Sum of Mulliken charges =  -0.00000

 Dipole moment (field-independent basis, Debye):
    X=              1.7621    Y=              3.5204    Z=              3.2779  Tot=              5.1228
 Quadrupole moment (field-independent basis, Debye-Ang):
   XX=           -101.0180   YY=            -96.6121   ZZ=            -93.0161
   XY=            -11.8800   XZ=             -7.6146   YZ=             -0.4642

 Normal termination of Gaussian 16 at Thu May  6 07:41:19 2021.
