 Gaussian 16, Revision A.03,
 Gaussian 16:  EM64L-G16RevA.03 25-Dec-2016

 -------------
 #p 6-31g* mp2
 -------------

 ------------------------------------------------------
 Input file generated by CHIRIPA (05-May-2021 14:55:24)
 ------------------------------------------------------
 Symbolic Z-matrix:
 Charge =  0 Multiplicity = 1

                         Standard orientation:
 ---------------------------------------------------------------------
 Center     Atomic      Atomic             Coordinates (Angstroms)
 Number     Number       Type             X           Y           Z
 ---------------------------------------------------------------------
      1          6           0       -5.541821   -1.111293    0.409846
      2          6           0       -4.523833   -1.929500   -0.090911
      3          6           0       -3.257218   -1.402550   -0.360277
      4          6           0       -3.042430   -0.046996   -0.116087
      5          6           0       -4.036239    0.793911    0.382422
      6          6           0       -5.295210    0.245409    0.644501
      7          1           0       -6.522789   -1.529012    0.616265
      8          1           0       -4.712495   -2.983488   -0.274109
      9          1           0       -2.451091   -2.013296   -0.748307
     10          1           0       -3.818040    1.840837    0.554909
     11          1           0       -6.083903    0.883217    1.033358
     12          7           0       -1.705568    0.522271   -0.397395
     13          8           0       -1.541778    1.719674   -0.173707
     14          8           0       -0.846838   -0.239720   -0.836246
     15          6           0        3.635690    0.592870   -0.258428
     16          6           0        3.293119    1.887813    0.478967
     17          6           0        2.209933    2.702353   -0.228865
     18          1           0        3.964714    0.835157   -1.278225
     19          1           0        2.725894   -0.014932   -0.359642
     20          1           0        4.203571    2.492370    0.579979
     21          1           0        2.965056    1.642427    1.497189
     22          1           0        1.286307    2.121111   -0.316465
     23          1           0        2.531861    2.975883   -1.238887
     24          1           0        1.980569    3.623829    0.315318
     25          6           0        4.716979   -0.232376    0.436921
     26          6           0        5.059550   -1.527319   -0.300474
     27          6           0        6.142736   -2.341860    0.407357
     28          1           0        5.626775    0.375425    0.538134
     29          1           0        4.387955   -0.474663    1.456718
     30          1           0        5.387614   -1.281934   -1.318697
     31          1           0        4.149098   -2.131876   -0.401486
     32          1           0        5.820809   -2.615390    1.417380
     33          1           0        7.066362   -1.760617    0.494957
     34          1           0        6.372100   -3.263335   -0.136825
 ---------------------------------------------------------------------

 SCF Done:  E(RHF) =  -669.537046810     A.U. after   15 cycles
 E2 =    -0.2091577685D+01 EUMP2 =    -0.67162862449544D+03

 The electronic state is 1-A.
 Alpha  occ. eigenvalues --  -20.61157 -20.61146 -15.86137 -11.31404 -11.27952
 Alpha  occ. eigenvalues --  -11.27948 -11.27678 -11.26943 -11.26933 -11.20745
 Alpha  occ. eigenvalues --  -11.20405 -11.20340 -11.20104 -11.19949 -11.19015
 Alpha  occ. eigenvalues --   -1.60182  -1.39739  -1.19560  -1.08977  -1.07228
 Alpha  occ. eigenvalues --   -1.04944  -1.02277  -0.95828  -0.94702  -0.86348
 Alpha  occ. eigenvalues --   -0.85713  -0.82662  -0.78395  -0.77726  -0.76971
 Alpha  occ. eigenvalues --   -0.72340  -0.71482  -0.70667  -0.65214  -0.64947
 Alpha  occ. eigenvalues --   -0.63866  -0.62291  -0.59678  -0.58164  -0.56312
 Alpha  occ. eigenvalues --   -0.55456  -0.53986  -0.53280  -0.53034  -0.51421
 Alpha  occ. eigenvalues --   -0.51135  -0.49299  -0.49113  -0.48442  -0.46654
 Alpha  occ. eigenvalues --   -0.45416  -0.45157  -0.44535  -0.44334  -0.42535
 Alpha  occ. eigenvalues --   -0.37535  -0.36541
 Alpha virt. eigenvalues --    0.04801   0.11115   0.16314   0.21256   0.23980
 Alpha virt. eigenvalues --    0.25638   0.27183   0.27808   0.28154   0.28685
 Alpha virt. eigenvalues --    0.29371   0.30831   0.32371   0.32654   0.32805

 Mulliken charges:
               1
     1  C   -0.170329
     2  C   -0.218620
     3  C   -0.170671
     4  C    0.158942
     5  C   -0.170581
     6  C   -0.218597
     7  H    0.226406
     8  H    0.224207
     9  H    0.275981
    10  H    0.276279
    11  H    0.224255
    12  N    0.488531
    13  O   -0.456987
    14  O   -0.460067
    15  C   -0.301304
    16  C   -0.297741
    17  C   -0.487033
    18  H    0.146344
    19  H    0.162602
    20  H    0.144018
    21  H    0.147484
    22  H    0.188054
    23  H    0.146936
    24  H    0.152011
    25  C   -0.297133
    26  C   -0.298809
    27  C   -0.474917
    28  H    0.146057
    29  H    0.146960
    30  H    0.150745
    31  H    0.152462
    32  H    0.153448
    33  H    0.153747
    34  H    0.157324
 Sum of Mulliken charges =  -0.00000

 Dipole moment (field-independent basis, Debye):
    X=             -5.2533    Y=             -2.0835    Z=              0.9310  Tot=              5.7276
 Quadrupole moment (field-independent basis, Debye-Ang):
   XX=            -67.7036   YY=            -91.5150   ZZ=            -95.3771
   XY=              5.4389   XZ=             -4.0643   YZ=              1.7745

 Normal termination of Gaussian 16 at Thu May  6 04:46:40 2021.
