 Gaussian 16, Revision A.03,
 Gaussian 16:  EM64L-G16RevA.03 25-Dec-2016

 -------------
 #p 6-31g* mp2
 -------------

 ------------------------------------------------------
 Input file generated by CHIRIPA (05-May-2021 14:51:14)
 ------------------------------------------------------
 Symbolic Z-matrix:
 Charge =  0 Multiplicity = 1

                         Standard orientation:
 ---------------------------------------------------------------------
 Center     Atomic      Atomic             Coordinates (Angstroms)
 Number     Number       Type             X           Y           Z
 ---------------------------------------------------------------------
      1          6           0        2.960892   -1.151152   -0.094664
      2          6           0        1.461415   -1.449166   -0.067382
      3          6           0        1.152782   -2.941127   -0.196190
      4          1           0        3.387744   -1.535836   -1.031018
      5          1           0        3.451595   -1.699808    0.721169
      6          1           0        0.973486   -0.899021   -0.882171
      7          1           0        1.038047   -1.063558    0.868931
      8          1           0        1.613184   -3.501943    0.623637
      9          1           0        1.548256   -3.336472   -1.137415
     10          1           0        0.075225   -3.131532   -0.174353
     11          6           0        3.285379    0.336163    0.033124
     12          6           0        4.784855    0.634177    0.005842
     13          6           0        5.093489    2.126138    0.134650
     14          1           0        2.794676    0.884819   -0.782708
     15          1           0        2.858527    0.720847    0.969478
     16          1           0        5.208223    0.248568   -0.930471
     17          1           0        5.272784    0.084032    0.820631
     18          1           0        4.698015    2.521482    1.075875
     19          1           0        4.633087    2.686954   -0.685177
     20          1           0        6.171046    2.316543    0.112813
     21          6           0       -3.219080    1.060325   -0.353989
     22          6           0       -2.908080    2.305418    0.477281
     23          6           0       -3.104676    3.603592   -0.306227
     24          1           0       -2.577381    1.052862   -1.245679
     25          1           0       -4.255252    1.118437   -0.715048
     26          1           0       -1.873238    2.244314    0.837817
     27          1           0       -3.550459    2.309819    1.367195
     28          1           0       -4.139390    3.691312   -0.653031
     29          1           0       -2.452640    3.625435   -1.185416
     30          1           0       -2.876857    4.481043    0.306992
     31          6           0       -3.027191   -0.245336    0.415528
     32          6           0       -3.338191   -1.490428   -0.415741
     33          6           0       -3.141595   -2.788603    0.367767
     34          1           0       -1.991019   -0.303447    0.776587
     35          1           0       -3.668889   -0.237873    1.307219
     36          1           0       -2.695812   -1.494830   -1.305655
     37          1           0       -4.373032   -1.429325   -0.776277
     38          1           0       -3.793630   -2.810446    1.246956
     39          1           0       -2.106880   -2.876323    0.714570
     40          1           0       -3.369413   -3.666054   -0.245452
 ---------------------------------------------------------------------

 SCF Done:  E(RHF) =  -470.733333554     A.U. after   11 cycles
 E2 =    -0.1582962008D+01 EUMP2 =    -0.47231629556158D+03

 The electronic state is 1-A.
 Alpha  occ. eigenvalues --  -11.21682 -11.21635 -11.21597 -11.21582 -11.21456
 Alpha  occ. eigenvalues --  -11.21396 -11.21384 -11.21324 -11.21097 -11.21095
 Alpha  occ. eigenvalues --  -11.21067 -11.21058  -1.08483  -1.08412  -1.03588
 Alpha  occ. eigenvalues --   -1.03511  -0.96040  -0.95955  -0.87067  -0.86961
 Alpha  occ. eigenvalues --   -0.79645  -0.79579  -0.78301  -0.78219  -0.65110
 Alpha  occ. eigenvalues --   -0.65054  -0.60991  -0.60966  -0.59391  -0.59320
 Alpha  occ. eigenvalues --   -0.57675  -0.57545  -0.55311  -0.55272  -0.52758
 Alpha  occ. eigenvalues --   -0.52657  -0.52495  -0.52309  -0.49968  -0.49897
 Alpha  occ. eigenvalues --   -0.47967  -0.47866  -0.46685  -0.46601  -0.45890
 Alpha  occ. eigenvalues --   -0.45774  -0.45746  -0.45627  -0.43813  -0.43772
 Alpha virt. eigenvalues --    0.20189   0.23123   0.23579   0.25157   0.25866
 Alpha virt. eigenvalues --    0.26365   0.26948   0.27410   0.28383   0.28974
 Alpha virt. eigenvalues --    0.30698   0.31132   0.31643   0.31775   0.31918

 Mulliken charges:
               1
     1  C   -0.298319
     2  C   -0.300732
     3  C   -0.483082
     4  H    0.149989
     5  H    0.149870
     6  H    0.151629
     7  H    0.152246
     8  H    0.155477
     9  H    0.155551
    10  H    0.167389
    11  C   -0.298339
    12  C   -0.299697
    13  C   -0.475751
    14  H    0.149360
    15  H    0.149601
    16  H    0.152041
    17  H    0.152071
    18  H    0.155247
    19  H    0.155202
    20  H    0.160405
    21  C   -0.298061
    22  C   -0.299786
    23  C   -0.475654
    24  H    0.149491
    25  H    0.149383
    26  H    0.152320
    27  H    0.151788
    28  H    0.155092
    29  H    0.155105
    30  H    0.160224
    31  C   -0.300670
    32  C   -0.299865
    33  C   -0.481030
    34  H    0.152383
    35  H    0.149394
    36  H    0.152136
    37  H    0.152063
    38  H    0.155532
    39  H    0.159733
    40  H    0.160266
 Sum of Mulliken charges =  -0.00000

 Dipole moment (field-independent basis, Debye):
    X=              0.0176    Y=             -0.0075    Z=              0.0035  Tot=              0.0195
 Quadrupole moment (field-independent basis, Debye-Ang):
   XX=            -83.9754   YY=            -86.9047   ZZ=            -83.8299
   XY=             -0.3409   XZ=             -0.3501   YZ=              0.2703

 Normal termination of Gaussian 16 at Wed May  5 21:37:17 2021.
