 Gaussian 16, Revision A.03,
 Gaussian 16:  EM64L-G16RevA.03 25-Dec-2016

 -------------
 #p 6-31g* mp2
 -------------

 ------------------------------------------------------
 Input file generated by CHIRIPA (05-May-2021 14:51:09)
 ------------------------------------------------------
 Symbolic Z-matrix:
 Charge =  0 Multiplicity = 1

                         Standard orientation:
 ---------------------------------------------------------------------
 Center     Atomic      Atomic             Coordinates (Angstroms)
 Number     Number       Type             X           Y           Z
 ---------------------------------------------------------------------
      1          6           0       -2.927369    0.364138    0.273705
      2          6           0       -3.971773   -0.133161   -0.726244
      3          6           0       -4.768414   -1.328922   -0.203451
      4          1           0       -2.240401   -0.458199    0.516153
      5          1           0       -3.429538    0.638757    1.211685
      6          1           0       -3.467951   -0.405456   -1.662532
      7          1           0       -4.656219    0.690509   -0.966487
      8          1           0       -5.296822   -1.066294    0.718727
      9          1           0       -4.101802   -2.168485    0.018727
     10          1           0       -5.509288   -1.668138   -0.934134
     11          6           0       -2.122855    1.559198   -0.234545
     12          6           0       -1.078451    2.056498    0.765404
     13          6           0       -0.281810    3.252259    0.242610
     14          1           0       -1.620687    1.284580   -1.172525
     15          1           0       -2.809823    2.381536   -0.476994
     16          1           0       -0.394005    1.232828    1.005647
     17          1           0       -1.582274    2.328792    1.701692
     18          1           0       -0.948422    4.091822    0.020433
     19          1           0        0.246598    2.989630   -0.679568
     20          1           0        0.459063    3.591474    0.973294
     21          6           0        2.259546   -1.648968    0.181731
     22          6           0        0.745975   -1.787050    0.014333
     23          6           0        0.229731   -3.167558    0.421130
     24          1           0        2.760368   -2.420822   -0.418572
     25          1           0        2.525102   -1.846654    1.229488
     26          1           0        0.483198   -1.587805   -1.032503
     27          1           0        0.248704   -1.014656    0.614955
     28          1           0        0.463199   -3.372166    1.471000
     29          1           0        0.699025   -3.948571   -0.185817
     30          1           0       -0.854555   -3.244337    0.293507
     31          6           0        2.790679   -0.274369   -0.220891
     32          6           0        4.304249   -0.136286   -0.053492
     33          6           0        4.820493    1.244222   -0.460290
     34          1           0        2.525122   -0.076682   -1.268647
     35          1           0        2.289856    0.497485    0.379413
     36          1           0        4.801519   -0.908680   -0.654114
     37          1           0        4.567026   -0.335532    0.993343
     38          1           0        4.351199    2.025234    0.146658
     39          1           0        4.587025    1.448830   -1.510161
     40          1           0        5.904780    1.321000   -0.332667
 ---------------------------------------------------------------------

 SCF Done:  E(RHF) =  -470.732928498     A.U. after   11 cycles
 E2 =    -0.1584525790D+01 EUMP2 =    -0.47231745428770D+03

 The electronic state is 1-A.
 Alpha  occ. eigenvalues --  -11.21673 -11.21636 -11.21582 -11.21573 -11.21463
 Alpha  occ. eigenvalues --  -11.21403 -11.21365 -11.21303 -11.21160 -11.21086
 Alpha  occ. eigenvalues --  -11.21070 -11.21054  -1.08511  -1.08388  -1.03591
 Alpha  occ. eigenvalues --   -1.03513  -0.96041  -0.95954  -0.87053  -0.86974
 Alpha  occ. eigenvalues --   -0.79679  -0.79572  -0.78398  -0.78137  -0.65283
 Alpha  occ. eigenvalues --   -0.64906  -0.61020  -0.60885  -0.59406  -0.59331
 Alpha  occ. eigenvalues --   -0.57680  -0.57548  -0.55352  -0.55205  -0.52738
 Alpha  occ. eigenvalues --   -0.52657  -0.52461  -0.52384  -0.49985  -0.49896
 Alpha  occ. eigenvalues --   -0.48051  -0.47876  -0.46905  -0.46579  -0.46142
 Alpha  occ. eigenvalues --   -0.45819  -0.45696  -0.45095  -0.43841  -0.43759
 Alpha virt. eigenvalues --    0.20088   0.21748   0.23673   0.24362   0.25731
 Alpha virt. eigenvalues --    0.26219   0.27129   0.27269   0.27876   0.29536
 Alpha virt. eigenvalues --    0.30855   0.31345   0.31669   0.31863   0.32769

 Mulliken charges:
               1
     1  C   -0.304473
     2  C   -0.299321
     3  C   -0.476059
     4  H    0.156219
     5  H    0.149044
     6  H    0.151856
     7  H    0.151879
     8  H    0.155287
     9  H    0.154874
    10  H    0.160294
    11  C   -0.297584
    12  C   -0.307536
    13  C   -0.475555
    14  H    0.150136
    15  H    0.149561
    16  H    0.158228
    17  H    0.151607
    18  H    0.155147
    19  H    0.156464
    20  H    0.159259
    21  C   -0.297681
    22  C   -0.308968
    23  C   -0.476808
    24  H    0.149958
    25  H    0.149591
    26  H    0.151573
    27  H    0.160564
    28  H    0.155752
    29  H    0.155859
    30  H    0.160469
    31  C   -0.301932
    32  C   -0.299648
    33  C   -0.475790
    34  H    0.149142
    35  H    0.153283
    36  H    0.152114
    37  H    0.152031
    38  H    0.155666
    39  H    0.155150
    40  H    0.160346
 Sum of Mulliken charges =  -0.00000

 Dipole moment (field-independent basis, Debye):
    X=              0.0317    Y=             -0.0110    Z=             -0.0002  Tot=              0.0335
 Quadrupole moment (field-independent basis, Debye-Ang):
   XX=            -85.0186   YY=            -85.9536   ZZ=            -83.8176
   XY=             -1.5628   XZ=             -0.1045   YZ=              0.9909

 Normal termination of Gaussian 16 at Wed May  5 16:40:04 2021.
