 Gaussian 16, Revision A.03,
 Gaussian 16:  EM64L-G16RevA.03 25-Dec-2016

 -------------
 #p 6-31g* mp2
 -------------

 ------------------------------------------------------
 Input file generated by CHIRIPA (05-May-2021 14:53:12)
 ------------------------------------------------------
 Symbolic Z-matrix:
 Charge =  0 Multiplicity = 1

                         Standard orientation:
 ---------------------------------------------------------------------
 Center     Atomic      Atomic             Coordinates (Angstroms)
 Number     Number       Type             X           Y           Z
 ---------------------------------------------------------------------
      1          6           0       -2.605899    1.104279    0.040058
      2          6           0       -2.909896    2.454936   -0.609016
      3          6           0       -1.727715    3.422299   -0.542312
      4          1           0       -2.320178    1.264594    1.088680
      5          1           0       -1.734613    0.654723   -0.456083
      6          1           0       -3.781198    2.901179   -0.112712
      7          1           0       -3.195111    2.291371   -1.656161
      8          1           0       -0.856280    3.001547   -1.054337
      9          1           0       -1.445696    3.614821    0.497882
     10          1           0       -1.966842    4.381465   -1.012076
     11          6           0       -3.778082    0.126392   -0.018692
     12          6           0       -3.474084   -1.224265    0.630382
     13          6           0       -4.656266   -2.191627    0.563678
     14          1           0       -4.649368    0.575948    0.477449
     15          1           0       -4.063802   -0.033923   -1.067314
     16          1           0       -3.188869   -1.060699    1.677528
     17          1           0       -2.602783   -1.670508    0.134078
     18          1           0       -4.938284   -2.384149   -0.476516
     19          1           0       -5.527700   -1.770875    1.075704
     20          1           0       -4.417138   -3.150793    1.033442
     21          6           0        4.402766    0.969548    0.777938
     22          6           0        3.311787    0.731159    1.620230
     23          6           0        2.248463   -0.070794    1.195070
     24          6           0        2.309185   -0.620939   -0.084361
     25          6           0        3.382271   -0.401993   -0.946822
     26          6           0        4.434470    0.403210   -0.500646
     27          1           0        5.224460    1.593788    1.116375
     28          1           0        3.284470    1.169680    2.613708
     29          1           0        1.391614   -0.271731    1.826617
     30          1           0        3.381108   -0.852886   -1.931766
     31          1           0        5.280454    0.586629   -1.156934
     32          7           0        1.189381   -1.471651   -0.545583
     33          8           0        1.266848   -1.944717   -1.677327
     34          8           0        0.255413   -1.649266    0.233387
 ---------------------------------------------------------------------

 SCF Done:  E(RHF) =  -669.536365050     A.U. after   15 cycles
 E2 =    -0.2091772899D+01 EUMP2 =    -0.67162813794884D+03

 The electronic state is 1-A.
 Alpha  occ. eigenvalues --  -20.61036 -20.61003 -15.86031 -11.31308 -11.27869
 Alpha  occ. eigenvalues --  -11.27858 -11.27598 -11.26865 -11.26853 -11.21043
 Alpha  occ. eigenvalues --  -11.20761 -11.20548 -11.20397 -11.20172 -11.19990
 Alpha  occ. eigenvalues --   -1.60074  -1.39630  -1.19473  -1.08888  -1.07536
 Alpha  occ. eigenvalues --   -1.04861  -1.02669  -0.95736  -0.95178  -0.86265
 Alpha  occ. eigenvalues --   -0.86202  -0.82573  -0.78747  -0.77648  -0.77259
 Alpha  occ. eigenvalues --   -0.72253  -0.71379  -0.70581  -0.65130  -0.64866
 Alpha  occ. eigenvalues --   -0.64166  -0.62208  -0.60066  -0.58570  -0.56755
 Alpha  occ. eigenvalues --   -0.55370  -0.54487  -0.53195  -0.52953  -0.51899
 Alpha  occ. eigenvalues --   -0.51598  -0.49188  -0.49016  -0.49012  -0.47054
 Alpha  occ. eigenvalues --   -0.45768  -0.45305  -0.44840  -0.44377  -0.42916
 Alpha  occ. eigenvalues --   -0.37449  -0.36458
 Alpha virt. eigenvalues --    0.04878   0.11192   0.16360   0.21296   0.23645
 Alpha virt. eigenvalues --    0.25122   0.27101   0.27597   0.27756   0.28556
 Alpha virt. eigenvalues --    0.28920   0.31027   0.32151   0.32306   0.32745

 Mulliken charges:
               1
     1  C   -0.298016
     2  C   -0.299069
     3  C   -0.474587
     4  H    0.143406
     5  H    0.156972
     6  H    0.149743
     7  H    0.152160
     8  H    0.153447
     9  H    0.151226
    10  H    0.158201
    11  C   -0.297684
    12  C   -0.308333
    13  C   -0.475207
    14  H    0.143746
    15  H    0.148510
    16  H    0.145366
    17  H    0.182276
    18  H    0.153559
    19  H    0.148935
    20  H    0.159485
    21  C   -0.170341
    22  C   -0.218459
    23  C   -0.170151
    24  C    0.157301
    25  C   -0.170636
    26  C   -0.218628
    27  H    0.226131
    28  H    0.223998
    29  H    0.276504
    30  H    0.275721
    31  H    0.223852
    32  N    0.489644
    33  O   -0.459065
    34  O   -0.460006
 Sum of Mulliken charges =  -0.00000

 Dipole moment (field-independent basis, Debye):
    X=              4.2378    Y=              2.8174    Z=              1.5655  Tot=              5.3242
 Quadrupole moment (field-independent basis, Debye-Ang):
   XX=            -77.4890   YY=           -100.1360   ZZ=            -90.6341
   XY=              3.8049   XZ=              1.1783   YZ=             -0.0731

 Normal termination of Gaussian 16 at Thu May  6 02:34:02 2021.
