 Gaussian 16, Revision A.03,
 Gaussian 16:  EM64L-G16RevA.03 25-Dec-2016

 -------------
 #p 6-31g* mp2
 -------------

 ------------------------------------------------------
 Input file generated by CHIRIPA (05-May-2021 14:53:15)
 ------------------------------------------------------
 Symbolic Z-matrix:
 Charge =  0 Multiplicity = 1

                         Standard orientation:
 ---------------------------------------------------------------------
 Center     Atomic      Atomic             Coordinates (Angstroms)
 Number     Number       Type             X           Y           Z
 ---------------------------------------------------------------------
      1          6           0       -3.427565   -0.638356    0.319637
      2          6           0       -2.680070   -1.929623   -0.014828
      3          6           0       -3.414237   -3.180173    0.469853
      4          1           0       -3.576780   -0.579568    1.406478
      5          1           0       -4.428700   -0.675007   -0.131782
      6          1           0       -1.680139   -1.889954    0.435927
      7          1           0       -2.532448   -1.985251   -1.100982
      8          1           0       -4.405691   -3.247208    0.010368
      9          1           0       -3.548539   -3.151370    1.556009
     10          1           0       -2.862326   -4.091755    0.220308
     11          6           0       -2.706141    0.620480   -0.158491
     12          6           0       -3.453635    1.911747    0.175974
     13          6           0       -2.719468    3.162297   -0.308708
     14          1           0       -1.705005    0.657131    0.292928
     15          1           0       -2.556925    0.561692   -1.245332
     16          1           0       -3.601257    1.967375    1.262127
     17          1           0       -4.453566    1.872078   -0.274781
     18          1           0       -2.585166    3.133494   -1.394863
     19          1           0       -1.728014    3.229333    0.150778
     20          1           0       -3.271379    4.073879   -0.059163
     21          6           0        2.200274    2.508781    0.199022
     22          6           0        1.169403    1.786002   -0.410418
     23          6           0        1.267087    0.399509   -0.560891
     24          6           0        2.414899   -0.234882   -0.088274
     25          6           0        3.458926    0.457442    0.523267
     26          6           0        3.339736    1.843368    0.663101
     27          1           0        2.116037    3.585622    0.311781
     28          1           0        0.283322    2.300129   -0.771776
     29          1           0        0.483975   -0.184569   -1.028871
     30          1           0        4.329999   -0.082914    0.873503
     31          1           0        4.141891    2.402116    1.136803
     32          7           0        2.529696   -1.702399   -0.241941
     33          8           0        3.551235   -2.237786    0.182864
     34          8           0        1.595963   -2.289466   -0.784280
 ---------------------------------------------------------------------

 SCF Done:  E(RHF) =  -669.535380681     A.U. after   15 cycles
 E2 =    -0.2093421603D+01 EUMP2 =    -0.67162880228453D+03

 The electronic state is 1-A.
 Alpha  occ. eigenvalues --  -20.60767 -20.60762 -15.85810 -11.31148 -11.27730
 Alpha  occ. eigenvalues --  -11.27668 -11.27452 -11.26740 -11.26647 -11.22243
 Alpha  occ. eigenvalues --  -11.22019 -11.21948 -11.21577 -11.21448 -11.20828
 Alpha  occ. eigenvalues --   -1.59837  -1.39390  -1.19323  -1.08809  -1.08718
 Alpha  occ. eigenvalues --   -1.04717  -1.03834  -0.96336  -0.95559  -0.87357
 Alpha  occ. eigenvalues --   -0.86113  -0.82401  -0.79966  -0.78595  -0.77397
 Alpha  occ. eigenvalues --   -0.72028  -0.71158  -0.70426  -0.65449  -0.64968
 Alpha  occ. eigenvalues --   -0.64734  -0.62080  -0.61205  -0.59733  -0.57910
 Alpha  occ. eigenvalues --   -0.55658  -0.55220  -0.53086  -0.53020  -0.52938
 Alpha  occ. eigenvalues --   -0.52563  -0.50290  -0.48801  -0.48781  -0.48217
 Alpha  occ. eigenvalues --   -0.46989  -0.46086  -0.45959  -0.44784  -0.44086
 Alpha  occ. eigenvalues --   -0.37309  -0.36279
 Alpha virt. eigenvalues --    0.05033   0.11226   0.16421   0.20424   0.22931
 Alpha virt. eigenvalues --    0.23529   0.25297   0.26318   0.26595   0.28642
 Alpha virt. eigenvalues --    0.29934   0.30787   0.31090   0.31390   0.32650

 Mulliken charges:
               1
     1  C   -0.297790
     2  C   -0.303139
     3  C   -0.476604
     4  H    0.150692
     5  H    0.150243
     6  H    0.159650
     7  H    0.153117
     8  H    0.153194
     9  H    0.154221
    10  H    0.167284
    11  C   -0.308198
    12  C   -0.297897
    13  C   -0.482020
    14  H    0.150793
    15  H    0.146438
    16  H    0.155139
    17  H    0.155708
    18  H    0.154244
    19  H    0.148896
    20  H    0.165264
    21  C   -0.173008
    22  C   -0.225164
    23  C   -0.174964
    24  C    0.157265
    25  C   -0.171122
    26  C   -0.218531
    27  H    0.225661
    28  H    0.234141
    29  H    0.280791
    30  H    0.275358
    31  H    0.223234
    32  N    0.488115
    33  O   -0.460387
    34  O   -0.460626
 Sum of Mulliken charges =  -0.00000

 Dipole moment (field-independent basis, Debye):
    X=             -0.5068    Y=              5.0502    Z=              0.5767  Tot=              5.1082
 Quadrupole moment (field-independent basis, Debye-Ang):
   XX=            -92.4301   YY=            -98.4901   ZZ=            -93.8921
   XY=             12.5222   XZ=              4.1185   YZ=             -0.1265

 Normal termination of Gaussian 16 at Thu May  6 12:11:09 2021.
