 Gaussian 16, Revision A.03,
 Gaussian 16:  EM64L-G16RevA.03 25-Dec-2016

 -------------
 #p 6-31g* mp2
 -------------

 ------------------------------------------------------
 Input file generated by CHIRIPA (05-May-2021 14:51:09)
 ------------------------------------------------------
 Symbolic Z-matrix:
 Charge =  0 Multiplicity = 1

                         Standard orientation:
 ---------------------------------------------------------------------
 Center     Atomic      Atomic             Coordinates (Angstroms)
 Number     Number       Type             X           Y           Z
 ---------------------------------------------------------------------
      1          6           0        2.734909    1.210257   -0.024460
      2          6           0        1.548224    1.954908    0.588122
      3          6           0        1.908524    3.369983    1.041489
      4          1           0        3.550165    1.164913    0.710556
      5          1           0        3.116964    1.784261   -0.879999
      6          1           0        1.167652    1.378980    1.441403
      7          1           0        0.735629    1.998317   -0.148370
      8          1           0        2.267923    3.965574    0.196087
      9          1           0        2.702401    3.342718    1.794893
     10          1           0        1.045707    3.884155    1.476270
     11          6           0        2.390452   -0.205815   -0.482520
     12          6           0        3.577137   -0.950466   -1.095102
     13          6           0        3.216837   -2.365541   -1.548469
     14          1           0        2.008398   -0.779819    0.373020
     15          1           0        1.575196   -0.160471   -1.217535
     16          1           0        4.389733   -0.993875   -0.358610
     17          1           0        3.957709   -0.374538   -1.948382
     18          1           0        2.422960   -2.338276   -2.301872
     19          1           0        2.857438   -2.961132   -0.703066
     20          1           0        4.079654   -2.879713   -1.983249
     21          6           0       -2.429302   -1.056479    0.761860
     22          6           0       -0.979662   -1.098891    1.246350
     23          6           0       -0.728491   -2.212983    2.262965
     24          1           0       -3.094300   -0.922956    1.626090
     25          1           0       -2.687909   -2.026640    0.315423
     26          1           0       -0.723438   -0.128477    1.690492
     27          1           0       -0.318026   -1.232138    0.380845
     28          1           0       -0.956929   -3.190944    1.827065
     29          1           0       -1.364644   -2.081014    3.144153
     30          1           0        0.314037   -2.225108    2.595905
     31          6           0       -2.696059    0.052037   -0.254881
     32          6           0       -4.145699    0.094449   -0.739370
     33          6           0       -4.396871    1.208541   -1.755985
     34          1           0       -2.437453    1.022198    0.191556
     35          1           0       -2.031061   -0.081487   -1.119112
     36          1           0       -4.807335    0.227696    0.126135
     37          1           0       -4.401923   -0.875965   -1.183513
     38          1           0       -3.760717    1.076572   -2.637174
     39          1           0       -4.168433    2.186502   -1.320086
     40          1           0       -5.439398    1.220666   -2.088925
 ---------------------------------------------------------------------

 SCF Done:  E(RHF) =  -470.732010886     A.U. after   11 cycles
 E2 =    -0.1584743804D+01 EUMP2 =    -0.47231675468922D+03

 The electronic state is 1-A.
 Alpha  occ. eigenvalues --  -11.21602 -11.21587 -11.21543 -11.21427 -11.21386
 Alpha  occ. eigenvalues --  -11.21366 -11.21324 -11.21293 -11.21099 -11.21070
 Alpha  occ. eigenvalues --  -11.21057 -11.21055  -1.08467  -1.08348  -1.03528
 Alpha  occ. eigenvalues --   -1.03494  -0.95993  -0.95945  -0.86998  -0.86970
 Alpha  occ. eigenvalues --   -0.79647  -0.79582  -0.78516  -0.77882  -0.65069
 Alpha  occ. eigenvalues --   -0.65021  -0.61020  -0.60821  -0.59373  -0.59308
 Alpha  occ. eigenvalues --   -0.57680  -0.57488  -0.55296  -0.55217  -0.52705
 Alpha  occ. eigenvalues --   -0.52626  -0.52423  -0.52377  -0.49978  -0.49850
 Alpha  occ. eigenvalues --   -0.48065  -0.47955  -0.46776  -0.46420  -0.46234
 Alpha  occ. eigenvalues --   -0.45745  -0.45527  -0.45033  -0.43783  -0.43721
 Alpha virt. eigenvalues --    0.21393   0.22970   0.23618   0.23847   0.24976
 Alpha virt. eigenvalues --    0.26074   0.26607   0.28030   0.28739   0.29928
 Alpha virt. eigenvalues --    0.30101   0.31272   0.31635   0.31859   0.32043

 Mulliken charges:
               1
     1  C   -0.297894
     2  C   -0.304296
     3  C   -0.475359
     4  H    0.149188
     5  H    0.149241
     6  H    0.156346
     7  H    0.153446
     8  H    0.155078
     9  H    0.154885
    10  H    0.159635
    11  C   -0.303275
    12  C   -0.298882
    13  C   -0.476291
    14  H    0.156302
    15  H    0.149238
    16  H    0.151811
    17  H    0.151768
    18  H    0.154624
    19  H    0.155245
    20  H    0.160619
    21  C   -0.297589
    22  C   -0.308979
    23  C   -0.476972
    24  H    0.148843
    25  H    0.148999
    26  H    0.155899
    27  H    0.160130
    28  H    0.155258
    29  H    0.155109
    30  H    0.158708
    31  C   -0.298912
    32  C   -0.299595
    33  C   -0.475665
    34  H    0.150251
    35  H    0.148952
    36  H    0.151998
    37  H    0.151926
    38  H    0.154852
    39  H    0.155097
    40  H    0.160262
 Sum of Mulliken charges =  -0.00000

 Dipole moment (field-independent basis, Debye):
    X=              0.0208    Y=              0.0044    Z=             -0.0055  Tot=              0.0220
 Quadrupole moment (field-independent basis, Debye-Ang):
   XX=            -84.9179   YY=            -86.0307   ZZ=            -84.1173
   XY=             -0.1543   XZ=             -0.2112   YZ=              0.3704

 Normal termination of Gaussian 16 at Thu May  6 03:43:35 2021.
