 Gaussian 16, Revision A.03,
 Gaussian 16:  EM64L-G16RevA.03 25-Dec-2016

 -------------
 #p 6-31g* mp2
 -------------

 ------------------------------------------------------
 Input file generated by CHIRIPA (05-May-2021 14:51:10)
 ------------------------------------------------------
 Symbolic Z-matrix:
 Charge =  0 Multiplicity = 1

                         Standard orientation:
 ---------------------------------------------------------------------
 Center     Atomic      Atomic             Coordinates (Angstroms)
 Number     Number       Type             X           Y           Z
 ---------------------------------------------------------------------
      1          6           0        2.761683   -0.074971    0.064033
      2          6           0        4.006766   -0.083106   -0.823484
      3          6           0        4.602881    1.311323   -1.018444
      4          1           0        2.007282    0.589116   -0.379603
      5          1           0        3.019810    0.354469    1.041963
      6          1           0        3.746693   -0.513677   -1.798977
      7          1           0        4.758218   -0.747400   -0.377784
      8          1           0        4.889952    1.745662   -0.055355
      9          1           0        3.872680    1.980713   -1.484624
     10          1           0        5.491982    1.282295   -1.656030
     11          6           0        2.154255   -1.461704    0.268310
     12          6           0        0.909172   -1.453569    1.155828
     13          6           0        0.313056   -2.847998    1.350787
     14          1           0        1.896127   -1.891144   -0.709620
     15          1           0        2.908656   -2.125791    0.711946
     16          1           0        0.157719   -0.789275    0.710127
     17          1           0        1.169244   -1.022998    2.131321
     18          1           0        1.043258   -3.517389    1.816967
     19          1           0        0.025985   -3.282338    0.387698
     20          1           0       -0.576045   -2.818970    1.988373
     21          6           0       -2.278350    1.241559    0.405869
     22          6           0       -1.583562    2.521081   -0.061121
     23          6           0       -1.230526    3.457666    1.094720
     24          1           0       -3.191274    1.507513    0.956125
     25          1           0       -1.625893    0.717207    1.117731
     26          1           0       -2.236551    3.042161   -0.772948
     27          1           0       -0.672286    2.252044   -0.610495
     28          1           0       -0.559563    2.960197    1.802488
     29          1           0       -2.132716    3.754803    1.639112
     30          1           0       -0.734723    4.365980    0.738342
     31          6           0       -2.637587    0.295115   -0.738212
     32          6           0       -3.332376   -0.984405   -0.271222
     33          6           0       -3.685412   -1.920990   -1.427063
     34          1           0       -3.290045    0.819468   -1.450074
     35          1           0       -1.724663    0.029161   -1.288468
     36          1           0       -4.243652   -0.715369    0.278153
     37          1           0       -2.679386   -1.505485    0.440605
     38          1           0       -2.783221   -2.218128   -1.971455
     39          1           0       -4.356374   -1.423523   -2.134830
     40          1           0       -4.181215   -2.829305   -1.070686
 ---------------------------------------------------------------------

 SCF Done:  E(RHF) =  -470.733105375     A.U. after   11 cycles
 E2 =    -0.1584357613D+01 EUMP2 =    -0.47231746298750D+03

 The electronic state is 1-A.
 Alpha  occ. eigenvalues --  -11.21666 -11.21650 -11.21616 -11.21591 -11.21476
 Alpha  occ. eigenvalues --  -11.21417 -11.21413 -11.21337 -11.21153 -11.21103
 Alpha  occ. eigenvalues --  -11.21077 -11.21059  -1.08524  -1.08420  -1.03599
 Alpha  occ. eigenvalues --   -1.03527  -0.96044  -0.95982  -0.87062  -0.86993
 Alpha  occ. eigenvalues --   -0.79693  -0.79570  -0.78350  -0.78224  -0.65419
 Alpha  occ. eigenvalues --   -0.64843  -0.61058  -0.60853  -0.59422  -0.59335
 Alpha  occ. eigenvalues --   -0.57659  -0.57589  -0.55337  -0.55275  -0.52739
 Alpha  occ. eigenvalues --   -0.52670  -0.52484  -0.52391  -0.49997  -0.49917
 Alpha  occ. eigenvalues --   -0.48023  -0.47893  -0.46809  -0.46534  -0.46069
 Alpha  occ. eigenvalues --   -0.45813  -0.45721  -0.45417  -0.43848  -0.43785
 Alpha virt. eigenvalues --    0.19196   0.22257   0.23540   0.24910   0.25644
 Alpha virt. eigenvalues --    0.26212   0.27145   0.27557   0.28746   0.29724
 Alpha virt. eigenvalues --    0.30724   0.31409   0.31794   0.31920   0.32422

 Mulliken charges:
               1
     1  C   -0.299983
     2  C   -0.299687
     3  C   -0.475764
     4  H    0.150240
     5  H    0.149810
     6  H    0.152018
     7  H    0.152226
     8  H    0.155352
     9  H    0.155267
    10  H    0.160451
    11  C   -0.297587
    12  C   -0.309838
    13  C   -0.476434
    14  H    0.149321
    15  H    0.150116
    16  H    0.161637
    17  H    0.151805
    18  H    0.155760
    19  H    0.155595
    20  H    0.160794
    21  C   -0.303628
    22  C   -0.300898
    23  C   -0.475750
    24  H    0.150231
    25  H    0.154286
    26  H    0.152091
    27  H    0.152056
    28  H    0.156005
    29  H    0.155097
    30  H    0.160214
    31  C   -0.299087
    32  C   -0.304033
    33  C   -0.475360
    34  H    0.150086
    35  H    0.148633
    36  H    0.151974
    37  H    0.156805
    38  H    0.154570
    39  H    0.155124
    40  H    0.160483
 Sum of Mulliken charges =  -0.00000

 Dipole moment (field-independent basis, Debye):
    X=              0.0147    Y=             -0.0118    Z=              0.0227  Tot=              0.0296
 Quadrupole moment (field-independent basis, Debye-Ang):
   XX=            -83.9443   YY=            -86.0367   ZZ=            -84.6743
   XY=             -1.2610   XZ=              0.4481   YZ=             -0.5140

 Normal termination of Gaussian 16 at Thu May  6 00:36:29 2021.
