 Gaussian 16, Revision A.03,
 Gaussian 16:  EM64L-G16RevA.03 25-Dec-2016

 -------------
 #p 6-31g* mp2
 -------------

 ------------------------------------------------------
 Input file generated by CHIRIPA (05-May-2021 14:53:13)
 ------------------------------------------------------
 Symbolic Z-matrix:
 Charge =  0 Multiplicity = 1

                         Standard orientation:
 ---------------------------------------------------------------------
 Center     Atomic      Atomic             Coordinates (Angstroms)
 Number     Number       Type             X           Y           Z
 ---------------------------------------------------------------------
      1          6           0       -3.508780    0.136299   -0.302076
      2          6           0       -2.289835   -0.580894    0.279124
      3          6           0       -0.967815    0.046351   -0.164297
      4          1           0       -3.445087    0.124029   -1.398770
      5          1           0       -3.483092    1.192259    0.000716
      6          1           0       -2.318546   -1.635500   -0.023526
      7          1           0       -2.356534   -0.567082    1.374558
      8          1           0       -0.913168    1.093282    0.151217
      9          1           0       -0.874965    0.018794   -1.254811
     10          1           0       -0.109639   -0.481906    0.262715
     11          6           0       -4.837850   -0.479139    0.132130
     12          6           0       -6.056795    0.238053   -0.449069
     13          6           0       -7.378815   -0.389191   -0.005649
     14          1           0       -4.863537   -1.535099   -0.170662
     15          1           0       -4.901543   -0.466869    1.228824
     16          1           0       -5.990096    0.224242   -1.544504
     17          1           0       -6.028084    1.292660   -0.146420
     18          1           0       -7.471665   -0.361634    1.084865
     19          1           0       -7.433462   -1.436122   -0.321163
     20          1           0       -8.236991    0.139066   -0.432661
     21          6           0        2.249542    2.427717    0.353769
     22          6           0        2.035226    1.441908    1.322670
     23          6           0        2.590425    0.167488    1.173826
     24          6           0        3.358129   -0.087834    0.038602
     25          6           0        3.589768    0.873255   -0.944221
     26          6           0        3.024763    2.140751   -0.774596
     27          1           0        1.814441    3.415028    0.477466
     28          1           0        1.433611    1.661940    2.199990
     29          1           0        2.440488   -0.614309    1.908490
     30          1           0        4.194037    0.624103   -1.808050
     31          1           0        3.192880    2.904392   -1.528673
     32          7           0        3.951083   -1.433340   -0.129974
     33          8           0        4.623590   -1.633109   -1.139163
     34          8           0        3.732108   -2.262702    0.750280
 ---------------------------------------------------------------------

 SCF Done:  E(RHF) =  -669.534297635     A.U. after   15 cycles
 E2 =    -0.2092659590D+01 EUMP2 =    -0.67162695722523D+03

 The electronic state is 1-A.
 Alpha  occ. eigenvalues --  -20.60771 -20.60765 -15.85824 -11.31191 -11.27732
 Alpha  occ. eigenvalues --  -11.27722 -11.27476 -11.26772 -11.26753 -11.21781
 Alpha  occ. eigenvalues --  -11.21776 -11.21610 -11.21537 -11.21214 -11.21206
 Alpha  occ. eigenvalues --   -1.59846  -1.39400  -1.19358  -1.08753  -1.08620
 Alpha  occ. eigenvalues --   -1.04770  -1.03707  -0.96159  -0.95589  -0.87179
 Alpha  occ. eigenvalues --   -0.86161  -0.82422  -0.79776  -0.78438  -0.77470
 Alpha  occ. eigenvalues --   -0.72042  -0.71170  -0.70466  -0.65259  -0.65012
 Alpha  occ. eigenvalues --   -0.64768  -0.62115  -0.61115  -0.59560  -0.57778
 Alpha  occ. eigenvalues --   -0.55475  -0.55260  -0.53545  -0.52858  -0.52584
 Alpha  occ. eigenvalues --   -0.52367  -0.50101  -0.48801  -0.48797  -0.48096
 Alpha  occ. eigenvalues --   -0.46818  -0.45977  -0.45909  -0.44806  -0.43967
 Alpha  occ. eigenvalues --   -0.37309  -0.36254
 Alpha virt. eigenvalues --    0.05044   0.11200   0.16532   0.21169   0.22719
 Alpha virt. eigenvalues --    0.24142   0.26412   0.27028   0.27261   0.28153
 Alpha virt. eigenvalues --    0.28307   0.30663   0.31212   0.31523   0.31782

 Mulliken charges:
               1
     1  C   -0.298011
     2  C   -0.300305
     3  C   -0.474745
     4  H    0.150364
     5  H    0.146392
     6  H    0.155150
     7  H    0.148628
     8  H    0.147086
     9  H    0.156071
    10  H    0.163718
    11  C   -0.298284
    12  C   -0.299608
    13  C   -0.475780
    14  H    0.151137
    15  H    0.149070
    16  H    0.152302
    17  H    0.150741
    18  H    0.155052
    19  H    0.156098
    20  H    0.160412
    21  C   -0.171092
    22  C   -0.210141
    23  C   -0.176002
    24  C    0.160917
    25  C   -0.171543
    26  C   -0.217503
    27  H    0.225261
    28  H    0.223404
    29  H    0.275350
    30  H    0.275453
    31  H    0.223441
    32  N    0.488041
    33  O   -0.460285
    34  O   -0.460791
 Sum of Mulliken charges =  -0.00000

 Dipole moment (field-independent basis, Debye):
    X=             -2.0559    Y=              4.7368    Z=              0.5708  Tot=              5.1952
 Quadrupole moment (field-independent basis, Debye-Ang):
   XX=           -109.8285   YY=            -95.5009   ZZ=            -90.5538
   XY=             16.7251   XZ=              0.1449   YZ=             -0.6918

 Normal termination of Gaussian 16 at Thu May  6 02:33:51 2021.
