 Gaussian 16, Revision A.03,
 Gaussian 16:  EM64L-G16RevA.03 25-Dec-2016

 -------------
 #p 6-31g* mp2
 -------------

 ------------------------------------------------------
 Input file generated by CHIRIPA (05-May-2021 14:57:26)
 ------------------------------------------------------
 Symbolic Z-matrix:
 Charge =  0 Multiplicity = 1

                         Standard orientation:
 ---------------------------------------------------------------------
 Center     Atomic      Atomic             Coordinates (Angstroms)
 Number     Number       Type             X           Y           Z
 ---------------------------------------------------------------------
      1          6           0        3.961655   -2.146388    0.016927
      2          6           0        4.727781   -1.223715   -0.702967
      3          6           0        4.374498    0.128784   -0.725021
      4          6           0        3.243831    0.525715   -0.012752
      5          6           0        2.460272   -0.369465    0.713868
      6          6           0        2.832337   -1.717075    0.721804
      7          1           0        4.243388   -3.195143    0.028575
      8          1           0        5.605333   -1.554276   -1.251307
      9          1           0        4.949740    0.864353   -1.274069
     10          1           0        1.590844   -0.009925    1.250752
     11          1           0        2.235480   -2.431406    1.281750
     12          7           0        2.859885    1.954958   -0.028627
     13          8           0        1.859241    2.279310    0.607096
     14          8           0        3.566862    2.723782   -0.676492
     15          6           0       -1.758694   -2.271706    0.214601
     16          6           0       -2.834175   -2.312989   -0.678796
     17          6           0       -3.698529   -1.220900   -0.800378
     18          6           0       -3.456805   -0.098590   -0.009632
     19          6           0       -2.393949   -0.027103    0.889544
     20          6           0       -1.542394   -1.130906    0.994544
     21          1           0       -1.092215   -3.124616    0.302607
     22          1           0       -3.004581   -3.197626   -1.285775
     23          1           0       -4.538783   -1.226076   -1.484019
     24          1           0       -2.249633    0.868680    1.481289
     25          1           0       -0.707964   -1.096037    1.689206
     26          7           0       -4.365083    1.063756   -0.129567
     27          8           0       -4.130550    2.040748    0.578330
     28          8           0       -5.294325    0.975799   -0.929197
 ---------------------------------------------------------------------

 SCF Done:  E(RHF) =  -868.336136262     A.U. after   16 cycles
 E2 =    -0.2600412155D+01 EUMP2 =    -0.87093654841662D+03

 The electronic state is 1-A.
 Alpha  occ. eigenvalues --  -20.61210 -20.61200 -20.60682 -20.60661 -15.86269
 Alpha  occ. eigenvalues --  -15.85737 -11.31789 -11.31262 -11.28476 -11.28335
 Alpha  occ. eigenvalues --  -11.28155 -11.27890 -11.27871 -11.27775 -11.27528
 Alpha  occ. eigenvalues --  -11.27367 -11.27056 -11.26941  -1.60277  -1.59747
 Alpha  occ. eigenvalues --   -1.39829  -1.39294  -1.19983  -1.19490  -1.09343
 Alpha  occ. eigenvalues --   -1.08876  -1.05433  -1.04926  -0.96155  -0.95667
 Alpha  occ. eigenvalues --   -0.86817  -0.86337  -0.83000  -0.82502  -0.78036
 Alpha  occ. eigenvalues --   -0.77491  -0.72485  -0.71955  -0.71601  -0.71104
 Alpha  occ. eigenvalues --   -0.71070  -0.70634  -0.65652  -0.65467  -0.65157
 Alpha  occ. eigenvalues --   -0.64992  -0.62837  -0.62206  -0.55910  -0.55491
 Alpha  occ. eigenvalues --   -0.53728  -0.53568  -0.53219  -0.53016  -0.49251
 Alpha  occ. eigenvalues --   -0.49231  -0.48732  -0.48692  -0.45200  -0.44663
 Alpha  occ. eigenvalues --   -0.37954  -0.37535  -0.37021  -0.36491
 Alpha virt. eigenvalues --    0.04537   0.05052   0.10575   0.11118   0.15980
 Alpha virt. eigenvalues --    0.16411   0.18255   0.22174   0.24836   0.26111
 Alpha virt. eigenvalues --    0.28070   0.29404   0.30549   0.30920   0.32827

 Mulliken charges:
               1
     1  C   -0.170440
     2  C   -0.218316
     3  C   -0.169317
     4  C    0.160101
     5  C   -0.170462
     6  C   -0.219449
     7  H    0.226240
     8  H    0.225789
     9  H    0.278226
    10  H    0.270653
    11  H    0.215317
    12  N    0.488253
    13  O   -0.460260
    14  O   -0.457193
    15  C   -0.169316
    16  C   -0.218721
    17  C   -0.169429
    18  C    0.158443
    19  C   -0.166471
    20  C   -0.219577
    21  H    0.219404
    22  H    0.223103
    23  H    0.276724
    24  H    0.282320
    25  H    0.213391
    26  N    0.488063
    27  O   -0.456212
    28  O   -0.460864
 Sum of Mulliken charges =  -0.00000

 Dipole moment (field-independent basis, Debye):
    X=              4.5723    Y=             -8.9040    Z=              0.3309  Tot=             10.0148
 Quadrupole moment (field-independent basis, Debye-Ang):
   XX=           -113.1789   YY=           -109.1004   ZZ=           -101.8184
   XY=              0.4414   XZ=             -2.2115   YZ=              1.5936

 Normal termination of Gaussian 16 at Fri May  7 11:14:54 2021.
