 Gaussian 16, Revision A.03,
 Gaussian 16:  EM64L-G16RevA.03 25-Dec-2016

 -------------
 #p 6-31g* mp2
 -------------

 ------------------------------------------------------
 Input file generated by CHIRIPA (05-May-2021 14:51:14)
 ------------------------------------------------------
 Symbolic Z-matrix:
 Charge =  0 Multiplicity = 1

                         Standard orientation:
 ---------------------------------------------------------------------
 Center     Atomic      Atomic             Coordinates (Angstroms)
 Number     Number       Type             X           Y           Z
 ---------------------------------------------------------------------
      1          6           0        3.652735    0.718635   -0.293968
      2          6           0        2.141364    0.906909   -0.429234
      3          6           0        1.751714    2.350500   -0.748628
      4          1           0        4.029699    1.384639    0.494246
      5          1           0        4.139363    1.032722   -1.227744
      6          1           0        1.657614    0.591259    0.504022
      7          1           0        1.767925    0.240240   -1.217087
      8          1           0        2.207589    2.673243   -1.690231
      9          1           0        2.096651    3.026257    0.040657
     10          1           0        0.666914    2.462472   -0.840992
     11          6           0        4.057936   -0.719290    0.025267
     12          6           0        5.569307   -0.907564    0.160533
     13          6           0        5.958957   -2.351155    0.479927
     14          1           0        3.571308   -1.033377    0.959043
     15          1           0        3.680972   -1.385294   -0.762947
     16          1           0        5.942746   -0.240895    0.948386
     17          1           0        6.053057   -0.591915   -0.772723
     18          1           0        5.614020   -3.026913   -0.309358
     19          1           0        5.503082   -2.673899    1.421530
     20          1           0        7.043757   -2.463127    0.572291
     21          6           0       -4.081407   -0.585281   -0.300834
     22          6           0       -5.205795   -1.409152    0.327635
     23          6           0       -5.647195   -2.577100   -0.554896
     24          1           0       -4.415399   -0.204332   -1.275653
     25          1           0       -3.222467   -1.241228   -0.499200
     26          1           0       -6.061853   -0.751565    0.526028
     27          1           0       -4.869155   -1.788025    1.301157
     28          1           0       -4.809216   -3.256134   -0.742794
     29          1           0       -6.008689   -2.213786   -1.522328
     30          1           0       -6.451718   -3.152575   -0.086462
     31          6           0       -3.629263    0.585936    0.569536
     32          6           0       -2.504876    1.409807   -0.058934
     33          6           0       -2.063477    2.577755    0.823596
     34          1           0       -4.488205    1.241884    0.767902
     35          1           0       -3.295272    0.204987    1.544355
     36          1           0       -2.841515    1.788680   -1.032456
     37          1           0       -1.648818    0.752221   -0.257327
     38          1           0       -1.701981    2.214441    1.791028
     39          1           0       -2.901455    3.256789    1.011495
     40          1           0       -1.258953    3.153230    0.355162
 ---------------------------------------------------------------------

 SCF Done:  E(RHF) =  -470.733173848     A.U. after   11 cycles
 E2 =    -0.1582657966D+01 EUMP2 =    -0.47231583181358D+03

 The electronic state is 1-A.
 Alpha  occ. eigenvalues --  -11.21613 -11.21610 -11.21602 -11.21600 -11.21414
 Alpha  occ. eigenvalues --  -11.21405 -11.21354 -11.21345 -11.21080 -11.21070
 Alpha  occ. eigenvalues --  -11.21039 -11.21038  -1.08445  -1.08422  -1.03567
 Alpha  occ. eigenvalues --   -1.03497  -0.96038  -0.95923  -0.87054  -0.86940
 Alpha  occ. eigenvalues --   -0.79622  -0.79567  -0.78260  -0.78233  -0.65077
 Alpha  occ. eigenvalues --   -0.65049  -0.60971  -0.60897  -0.59705  -0.59102
 Alpha  occ. eigenvalues --   -0.57804  -0.57339  -0.55294  -0.55227  -0.52948
 Alpha  occ. eigenvalues --   -0.52541  -0.52458  -0.52163  -0.49933  -0.49900
 Alpha  occ. eigenvalues --   -0.47982  -0.47836  -0.46638  -0.46615  -0.45811
 Alpha  occ. eigenvalues --   -0.45772  -0.45720  -0.45694  -0.43901  -0.43652
 Alpha virt. eigenvalues --    0.21186   0.23082   0.23367   0.25280   0.26416
 Alpha virt. eigenvalues --    0.26639   0.26845   0.27297   0.27806   0.29011
 Alpha virt. eigenvalues --    0.30339   0.30978   0.31370   0.31672   0.32328

 Mulliken charges:
               1
     1  C   -0.298516
     2  C   -0.299506
     3  C   -0.482395
     4  H    0.149787
     5  H    0.149668
     6  H    0.151975
     7  H    0.151734
     8  H    0.154918
     9  H    0.155049
    10  H    0.167834
    11  C   -0.298276
    12  C   -0.299650
    13  C   -0.475708
    14  H    0.149363
    15  H    0.149586
    16  H    0.151992
    17  H    0.151987
    18  H    0.155167
    19  H    0.155132
    20  H    0.160301
    21  C   -0.298374
    22  C   -0.299660
    23  C   -0.475714
    24  H    0.149619
    25  H    0.149680
    26  H    0.151925
    27  H    0.151936
    28  H    0.155205
    29  H    0.155165
    30  H    0.160249
    31  C   -0.298146
    32  C   -0.302398
    33  C   -0.479522
    34  H    0.149644
    35  H    0.149650
    36  H    0.151760
    37  H    0.154217
    38  H    0.154994
    39  H    0.155232
    40  H    0.164093
 Sum of Mulliken charges =  -0.00000

 Dipole moment (field-independent basis, Debye):
    X=              0.0006    Y=              0.0039    Z=             -0.0022  Tot=              0.0045
 Quadrupole moment (field-independent basis, Debye-Ang):
   XX=            -84.7233   YY=            -86.1619   ZZ=            -83.8996
   XY=             -0.3774   XZ=             -0.0544   YZ=             -0.3056

 Normal termination of Gaussian 16 at Thu May  6 02:25:04 2021.
