 Gaussian 16, Revision A.03,
 Gaussian 16:  EM64L-G16RevA.03 25-Dec-2016

 -------------
 #p 6-31g* mp2
 -------------

 ------------------------------------------------------
 Input file generated by CHIRIPA (05-May-2021 14:57:24)
 ------------------------------------------------------
 Symbolic Z-matrix:
 Charge =  0 Multiplicity = 1

                         Standard orientation:
 ---------------------------------------------------------------------
 Center     Atomic      Atomic             Coordinates (Angstroms)
 Number     Number       Type             X           Y           Z
 ---------------------------------------------------------------------
      1          6           0       -3.547063   -2.341284    0.125864
      2          6           0       -4.718225   -1.694193   -0.281779
      3          6           0       -4.762256   -0.300203   -0.378745
      4          6           0       -3.611560    0.418782   -0.058979
      5          6           0       -2.429677   -0.196879    0.350169
      6          6           0       -2.408533   -1.591883    0.439983
      7          1           0       -3.521748   -3.424562    0.198412
      8          1           0       -5.603934   -2.273629   -0.526357
      9          1           0       -5.655673    0.226386   -0.691678
     10          1           0       -1.562693    0.407689    0.587348
     11          1           0       -1.497603   -2.091735    0.756842
     12          7           0       -3.646058    1.895073   -0.157847
     13          8           0       -2.618841    2.505741    0.129463
     14          8           0       -4.699662    2.413569   -0.520778
     15          6           0        5.574238    1.365248   -0.300320
     16          6           0        4.580122    1.695345    0.626659
     17          6           0        3.485041    0.849161    0.824955
     18          6           0        3.415581   -0.324422    0.075845
     19          6           0        4.389952   -0.680955   -0.855163
     20          6           0        5.476153    0.180241   -1.036974
     21          1           0        6.421474    2.028415   -0.447958
     22          1           0        4.653682    2.614982    1.200156
     23          1           0        2.701231    1.080313    1.536032
     24          1           0        4.289079   -1.604585   -1.412075
     25          1           0        6.246708   -0.078673   -1.757566
     26          7           0        2.260967   -1.228186    0.277047
     27          8           0        2.223028   -2.256299   -0.395398
     28          8           0        1.415786   -0.891330    1.103383
 ---------------------------------------------------------------------

 SCF Done:  E(RHF) =  -868.341629168     A.U. after   16 cycles
 E2 =    -0.2598405261D+01 EUMP2 =    -0.87094003442905D+03

 The electronic state is 1-A.
 Alpha  occ. eigenvalues --  -20.61666 -20.61646 -20.60024 -20.60019 -15.86648
 Alpha  occ. eigenvalues --  -15.85062 -11.31617 -11.30145 -11.28149 -11.28121
 Alpha  occ. eigenvalues --  -11.27817 -11.27079 -11.27044 -11.26741 -11.26513
 Alpha  occ. eigenvalues --  -11.26346 -11.25742 -11.25370  -1.60700  -1.59103
 Alpha  occ. eigenvalues --   -1.40264  -1.38664  -1.19753  -1.18275  -1.09226
 Alpha  occ. eigenvalues --   -1.07733  -1.05095  -1.03594  -0.96126  -0.94616
 Alpha  occ. eigenvalues --   -0.86514  -0.85020  -0.82976  -0.81429  -0.78059
 Alpha  occ. eigenvalues --   -0.76506  -0.72890  -0.71978  -0.71292  -0.70860
 Alpha  occ. eigenvalues --   -0.70420  -0.69393  -0.65412  -0.65097  -0.63909
 Alpha  occ. eigenvalues --   -0.63557  -0.62445  -0.60913  -0.55619  -0.54149
 Alpha  occ. eigenvalues --   -0.53444  -0.53182  -0.51999  -0.51652  -0.49651
 Alpha  occ. eigenvalues --   -0.49612  -0.48057  -0.48017  -0.45749  -0.44131
 Alpha  occ. eigenvalues --   -0.37712  -0.36675  -0.36281  -0.35199
 Alpha virt. eigenvalues --    0.04422   0.05957   0.10984   0.12436   0.15983
 Alpha virt. eigenvalues --    0.17525   0.21124   0.22702   0.27084   0.27824
 Alpha virt. eigenvalues --    0.28838   0.29373   0.30823   0.32238   0.32264

 Mulliken charges:
               1
     1  C   -0.172114
     2  C   -0.218947
     3  C   -0.173604
     4  C    0.158078
     5  C   -0.175378
     6  C   -0.224440
     7  H    0.223950
     8  H    0.219057
     9  H    0.271236
    10  H    0.280346
    11  H    0.246375
    12  N    0.488241
    13  O   -0.463692
    14  O   -0.464055
    15  C   -0.169303
    16  C   -0.218252
    17  C   -0.169256
    18  C    0.157440
    19  C   -0.170195
    20  C   -0.218624
    21  H    0.227875
    22  H    0.226773
    23  H    0.277044
    24  H    0.275419
    25  H    0.224863
    26  N    0.490596
    27  O   -0.458970
    28  O   -0.470463
 Sum of Mulliken charges =  -0.00000

 Dipole moment (field-independent basis, Debye):
    X=              4.8121    Y=             -2.0769    Z=             -0.3197  Tot=              5.2509
 Quadrupole moment (field-independent basis, Debye-Ang):
   XX=            -73.7999   YY=           -110.3102   ZZ=           -103.4085
   XY=             28.2166   XZ=             -3.6007   YZ=              3.5381

 Normal termination of Gaussian 16 at Fri May  7 11:05:31 2021.
