 Gaussian 16, Revision A.03,
 Gaussian 16:  EM64L-G16RevA.03 25-Dec-2016

 -------------
 #p 6-31g* mp2
 -------------

 ------------------------------------------------------
 Input file generated by CHIRIPA (05-May-2021 14:53:12)
 ------------------------------------------------------
 Symbolic Z-matrix:
 Charge =  0 Multiplicity = 1

                         Standard orientation:
 ---------------------------------------------------------------------
 Center     Atomic      Atomic             Coordinates (Angstroms)
 Number     Number       Type             X           Y           Z
 ---------------------------------------------------------------------
      1          6           0       -3.621116    0.257719   -0.243838
      2          6           0       -2.306423   -0.522503   -0.272472
      3          6           0       -1.088217    0.379107   -0.474628
      4          1           0       -3.728844    0.816835   -1.183375
      5          1           0       -3.578812    1.004428    0.561166
      6          1           0       -2.351730   -1.268452   -1.076291
      7          1           0       -2.201905   -1.079978    0.667163
      8          1           0       -1.015078    1.114660    0.332970
      9          1           0       -1.165755    0.925115   -1.420389
     10          1           0       -0.159183   -0.199215   -0.491946
     11          6           0       -4.848058   -0.629853   -0.042450
     12          6           0       -6.162752    0.150369   -0.013815
     13          6           0       -7.380958   -0.751241    0.188340
     14          1           0       -4.890362   -1.376562   -0.847453
     15          1           0       -4.740331   -1.188969    0.897087
     16          1           0       -6.267270    0.707844   -0.953450
     17          1           0       -6.117445    0.896318    0.790003
     18          1           0       -7.303420   -1.297249    1.134101
     19          1           0       -7.454097   -1.486794   -0.619258
     20          1           0       -8.309991   -0.172919    0.205658
     21          6           0        4.890639   -1.788193   -0.239438
     22          6           0        4.654642   -0.879530   -1.276337
     23          6           0        3.779888    0.195513   -1.092944
     24          6           0        3.155294    0.332294    0.145791
     25          6           0        3.369837   -0.556300    1.198245
     26          6           0        4.248615   -1.623967    0.992373
     27          1           0        5.571732   -2.620448   -0.390633
     28          1           0        5.151853   -1.004588   -2.234036
     29          1           0        3.579023    0.913731   -1.878587
     30          1           0        2.859505   -0.405478    2.141767
     31          1           0        4.429989   -2.328099    1.799433
     32          7           0        2.227101    1.466490    0.351840
     33          8           0        1.689232    1.564909    1.452589
     34          8           0        2.055026    2.235579   -0.591310
 ---------------------------------------------------------------------

 SCF Done:  E(RHF) =  -669.535743128     A.U. after   15 cycles
 E2 =    -0.2092041234D+01 EUMP2 =    -0.67162778436204D+03

 The electronic state is 1-A.
 Alpha  occ. eigenvalues --  -20.60802 -20.60784 -15.85817 -11.31219 -11.27787
 Alpha  occ. eigenvalues --  -11.27782 -11.27531 -11.26801 -11.26791 -11.21181
 Alpha  occ. eigenvalues --  -11.20905 -11.20891 -11.20738 -11.20734 -11.20032
 Alpha  occ. eigenvalues --   -1.59849  -1.39405  -1.19389  -1.08780  -1.07862
 Alpha  occ. eigenvalues --   -1.04792  -1.02926  -0.95614  -0.95359  -0.86378
 Alpha  occ. eigenvalues --   -0.86189  -0.82445  -0.79010  -0.77668  -0.77489
 Alpha  occ. eigenvalues --   -0.72054  -0.71168  -0.70494  -0.65041  -0.64794
 Alpha  occ. eigenvalues --   -0.64493  -0.62137  -0.60313  -0.58772  -0.56983
 Alpha  occ. eigenvalues --   -0.55295  -0.54623  -0.53125  -0.52883  -0.52080
 Alpha  occ. eigenvalues --   -0.51762  -0.49314  -0.48808  -0.48782  -0.47293
 Alpha  occ. eigenvalues --   -0.46055  -0.45202  -0.45154  -0.44709  -0.43208
 Alpha  occ. eigenvalues --   -0.37364  -0.36394
 Alpha virt. eigenvalues --    0.05014   0.11259   0.16481   0.21396   0.23417
 Alpha virt. eigenvalues --    0.24894   0.27224   0.27307   0.28046   0.28186
 Alpha virt. eigenvalues --    0.28591   0.30894   0.32006   0.32114   0.32413

 Mulliken charges:
               1
     1  C   -0.298343
     2  C   -0.300099
     3  C   -0.476663
     4  H    0.149486
     5  H    0.152421
     6  H    0.146732
     7  H    0.148995
     8  H    0.176016
     9  H    0.156867
    10  H    0.144773
    11  C   -0.297675
    12  C   -0.299386
    13  C   -0.475370
    14  H    0.147525
    15  H    0.148383
    16  H    0.151733
    17  H    0.152615
    18  H    0.154420
    19  H    0.154073
    20  H    0.159385
    21  C   -0.170657
    22  C   -0.218630
    23  C   -0.171177
    24  C    0.157176
    25  C   -0.171353
    26  C   -0.218584
    27  H    0.225721
    28  H    0.223584
    29  H    0.276026
    30  H    0.275841
    31  H    0.223561
    32  N    0.491517
    33  O   -0.460068
    34  O   -0.458846
 Sum of Mulliken charges =  -0.00000

 Dipole moment (field-independent basis, Debye):
    X=              3.4138    Y=             -3.8418    Z=             -0.6788  Tot=              5.1840
 Quadrupole moment (field-independent basis, Debye-Ang):
   XX=            -76.1571   YY=            -97.8443   ZZ=            -89.6738
   XY=            -12.3104   XZ=             -2.6805   YZ=             -2.3589

 Normal termination of Gaussian 16 at Wed May  5 23:23:01 2021.
