 Gaussian 16, Revision A.03,
 Gaussian 16:  EM64L-G16RevA.03 25-Dec-2016

 -------------
 #p 6-31g* mp2
 -------------

 ------------------------------------------------------
 Input file generated by CHIRIPA (05-May-2021 14:51:09)
 ------------------------------------------------------
 Symbolic Z-matrix:
 Charge =  0 Multiplicity = 1

                         Standard orientation:
 ---------------------------------------------------------------------
 Center     Atomic      Atomic             Coordinates (Angstroms)
 Number     Number       Type             X           Y           Z
 ---------------------------------------------------------------------
      1          6           0        3.491836    0.535589   -0.165402
      2          6           0        3.001802    1.948874    0.151583
      3          6           0        3.993646    3.029281   -0.280574
      4          1           0        4.457296    0.369015    0.331674
      5          1           0        3.677874    0.453096   -1.245207
      6          1           0        2.815423    2.028262    1.230275
      7          1           0        2.037304    2.112036   -0.346149
      8          1           0        4.172346    2.978841   -1.359520
      9          1           0        4.954886    2.894590    0.225861
     10          1           0        3.623354    4.031790   -0.044523
     11          6           0        2.511128   -0.555458    0.260693
     12          6           0        3.001161   -1.968743   -0.056292
     13          6           0        2.009317   -3.049150    0.375865
     14          1           0        2.325090   -0.472965    1.340498
     15          1           0        1.545668   -0.388883   -0.236383
     16          1           0        3.965660   -2.131905    0.441440
     17          1           0        3.187541   -2.048130   -1.134984
     18          1           0        1.048077   -2.914459   -0.130570
     19          1           0        1.830618   -2.998710    1.454811
     20          1           0        2.379610   -4.051658    0.139814
     21          6           0       -2.484008   -0.541649   -0.154458
     22          6           0       -3.076928   -1.949675   -0.092044
     23          6           0       -2.029338   -3.042331   -0.307576
     24          1           0       -1.997789   -0.398301   -1.129131
     25          1           0       -1.695177   -0.449523    0.604917
     26          1           0       -3.865353   -2.038677   -0.850384
     27          1           0       -3.561959   -2.089620    0.882520
     28          1           0       -1.247167   -2.982129    0.456091
     29          1           0       -1.552285   -2.930897   -1.286659
     30          1           0       -2.474843   -4.040839   -0.258930
     31          6           0       -3.518955    0.561518    0.059168
     32          6           0       -2.926036    1.969544   -0.003247
     33          6           0       -3.973626    3.062199    0.212284
     34          1           0       -4.307787    0.469392   -0.700209
     35          1           0       -4.005175    0.418170    1.033840
     36          1           0       -2.441004    2.109489   -0.977811
     37          1           0       -2.137611    2.058546    0.755093
     38          1           0       -4.450678    2.950766    1.191368
     39          1           0       -4.755797    3.001998   -0.551382
     40          1           0       -3.528121    4.060708    0.163640
 ---------------------------------------------------------------------

 SCF Done:  E(RHF) =  -470.733091777     A.U. after   11 cycles
 E2 =    -0.1583000650D+01 EUMP2 =    -0.47231609242655D+03

 The electronic state is 1-A.
 Alpha  occ. eigenvalues --  -11.21611 -11.21609 -11.21575 -11.21542 -11.21422
 Alpha  occ. eigenvalues --  -11.21368 -11.21363 -11.21307 -11.21078 -11.21053
 Alpha  occ. eigenvalues --  -11.21050 -11.20944  -1.08446  -1.08388  -1.03550
 Alpha  occ. eigenvalues --   -1.03474  -0.96021  -0.95906  -0.87065  -0.86899
 Alpha  occ. eigenvalues --   -0.79674  -0.79487  -0.78297  -0.78163  -0.65077
 Alpha  occ. eigenvalues --   -0.65017  -0.60962  -0.60869  -0.59376  -0.59284
 Alpha  occ. eigenvalues --   -0.57743  -0.57441  -0.55331  -0.55181  -0.52709
 Alpha  occ. eigenvalues --   -0.52644  -0.52603  -0.52142  -0.49987  -0.49808
 Alpha  occ. eigenvalues --   -0.48128  -0.47671  -0.46663  -0.46529  -0.45974
 Alpha  occ. eigenvalues --   -0.45754  -0.45680  -0.45440  -0.43796  -0.43739
 Alpha virt. eigenvalues --    0.21734   0.23246   0.23460   0.25008   0.25891
 Alpha virt. eigenvalues --    0.26466   0.26649   0.27105   0.28696   0.29425
 Alpha virt. eigenvalues --    0.31020   0.31203   0.31595   0.32000   0.32138

 Mulliken charges:
               1
     1  C   -0.298148
     2  C   -0.299774
     3  C   -0.475666
     4  H    0.149558
     5  H    0.149400
     6  H    0.151586
     7  H    0.152440
     8  H    0.155114
     9  H    0.155100
    10  H    0.160154
    11  C   -0.299834
    12  C   -0.299234
    13  C   -0.482774
    14  H    0.148708
    15  H    0.151536
    16  H    0.151468
    17  H    0.151550
    18  H    0.164507
    19  H    0.153427
    20  H    0.159906
    21  C   -0.299830
    22  C   -0.299553
    23  C   -0.480663
    24  H    0.148788
    25  H    0.151353
    26  H    0.151797
    27  H    0.152069
    28  H    0.161712
    29  H    0.154283
    30  H    0.160641
    31  C   -0.298196
    32  C   -0.299802
    33  C   -0.475709
    34  H    0.149566
    35  H    0.149812
    36  H    0.151510
    37  H    0.152488
    38  H    0.155245
    39  H    0.155156
    40  H    0.160310
 Sum of Mulliken charges =  -0.00000

 Dipole moment (field-independent basis, Debye):
    X=             -0.0389    Y=             -0.0115    Z=              0.0027  Tot=              0.0406
 Quadrupole moment (field-independent basis, Debye-Ang):
   XX=            -85.4719   YY=            -86.3926   ZZ=            -83.0017
   XY=              0.0642   XZ=              0.7730   YZ=              0.0356

 Normal termination of Gaussian 16 at Thu May  6 00:34:55 2021.
