 Gaussian 16, Revision A.03,
 Gaussian 16:  EM64L-G16RevA.03 25-Dec-2016

 -------------
 #p 6-31g* mp2
 -------------

 ------------------------------------------------------
 Input file generated by CHIRIPA (05-May-2021 14:53:13)
 ------------------------------------------------------
 Symbolic Z-matrix:
 Charge =  0 Multiplicity = 1

                         Standard orientation:
 ---------------------------------------------------------------------
 Center     Atomic      Atomic             Coordinates (Angstroms)
 Number     Number       Type             X           Y           Z
 ---------------------------------------------------------------------
      1          6           0        3.464361   -0.726407    0.759782
      2          6           0        2.032796   -0.775544    1.294753
      3          6           0        1.779874   -1.984084    2.196561
      4          1           0        3.673188   -1.650658    0.203817
      5          1           0        4.164321   -0.706087    1.606563
      6          1           0        1.335699   -0.794369    0.447218
      7          1           0        1.827289    0.149014    1.849347
      8          1           0        2.452050   -1.967421    3.060565
      9          1           0        1.957666   -2.916165    1.650469
     10          1           0        0.750427   -1.999496    2.567858
     11          6           0        3.732647    0.476120   -0.143367
     12          6           0        5.164211    0.525257   -0.678338
     13          6           0        5.417133    1.733797   -1.580145
     14          1           0        3.032687    0.455800   -0.990148
     15          1           0        3.523820    1.400371    0.412598
     16          1           0        5.369718   -0.399302   -1.232932
     17          1           0        5.861309    0.544082    0.169197
     18          1           0        5.239341    2.665878   -1.034054
     19          1           0        4.744957    1.717134   -2.444150
     20          1           0        6.446580    1.749209   -1.951442
     21          6           0       -3.559638    2.222660    0.895346
     22          6           0       -2.206351    1.868916    0.893748
     23          6           0       -1.780373    0.693882    0.267341
     24          6           0       -2.738988   -0.107658   -0.350625
     25          6           0       -4.094432    0.217641   -0.366094
     26          6           0       -4.497705    1.397348    0.266528
     27          1           0       -3.881728    3.137270    1.384368
     28          1           0       -1.475616    2.507945    1.381307
     29          1           0       -0.738997    0.396074    0.251050
     30          1           0       -4.799481   -0.439586   -0.860439
     31          1           0       -5.549345    1.669560    0.266192
     32          7           0       -2.300043   -1.354088   -1.017063
     33          8           0       -3.164325   -2.043182   -1.554465
     34          8           0       -1.100025   -1.618343   -0.989397
 ---------------------------------------------------------------------

 SCF Done:  E(RHF) =  -669.535939546     A.U. after   15 cycles
 E2 =    -0.2091916816D+01 EUMP2 =    -0.67162785636242D+03

 The electronic state is 1-A.
 Alpha  occ. eigenvalues --  -20.60853 -20.60846 -15.85893 -11.31189 -11.27766
 Alpha  occ. eigenvalues --  -11.27711 -11.27504 -11.26772 -11.26751 -11.21489
 Alpha  occ. eigenvalues --  -11.21427 -11.21287 -11.21179 -11.20996 -11.20756
 Alpha  occ. eigenvalues --   -1.59919  -1.39476  -1.19364  -1.08775  -1.08282
 Alpha  occ. eigenvalues --   -1.04757  -1.03367  -0.95804  -0.95616  -0.86820
 Alpha  occ. eigenvalues --   -0.86163  -0.82453  -0.79473  -0.78157  -0.77475
 Alpha  occ. eigenvalues --   -0.72120  -0.71234  -0.70478  -0.65037  -0.64908
 Alpha  occ. eigenvalues --   -0.64740  -0.62128  -0.60731  -0.59179  -0.57430
 Alpha  occ. eigenvalues --   -0.55271  -0.55069  -0.53094  -0.52865  -0.52492
 Alpha  occ. eigenvalues --   -0.52233  -0.49735  -0.48896  -0.48863  -0.47754
 Alpha  occ. eigenvalues --   -0.46447  -0.45659  -0.45533  -0.44888  -0.43624
 Alpha  occ. eigenvalues --   -0.37351  -0.36358
 Alpha virt. eigenvalues --    0.05018   0.11281   0.16523   0.20901   0.23115
 Alpha virt. eigenvalues --    0.24269   0.25963   0.26685   0.27806   0.28157
 Alpha virt. eigenvalues --    0.29310   0.30470   0.31592   0.31760   0.32153

 Mulliken charges:
               1
     1  C   -0.295984
     2  C   -0.318279
     3  C   -0.472481
     4  H    0.154701
     5  H    0.147997
     6  H    0.173910
     7  H    0.140129
     8  H    0.151804
     9  H    0.162156
    10  H    0.159087
    11  C   -0.299569
    12  C   -0.299541
    13  C   -0.475809
    14  H    0.152300
    15  H    0.144292
    16  H    0.154323
    17  H    0.151242
    18  H    0.153020
    19  H    0.156145
    20  H    0.160376
    21  C   -0.170208
    22  C   -0.222947
    23  C   -0.174132
    24  C    0.154732
    25  C   -0.169936
    26  C   -0.219207
    27  H    0.225624
    28  H    0.224323
    29  H    0.288621
    30  H    0.275471
    31  H    0.223395
    32  N    0.490193
    33  O   -0.459597
    34  O   -0.466151
 Sum of Mulliken charges =  -0.00000

 Dipole moment (field-independent basis, Debye):
    X=             -1.5718    Y=              4.2508    Z=              2.2511  Tot=              5.0604
 Quadrupole moment (field-independent basis, Debye-Ang):
   XX=            -81.8968   YY=            -96.3651   ZZ=            -96.9021
   XY=            -11.5044   XZ=             -4.3629   YZ=             -0.4294

 Normal termination of Gaussian 16 at Thu May  6 18:43:23 2021.
