 Gaussian 16, Revision A.03,
 Gaussian 16:  EM64L-G16RevA.03 25-Dec-2016

 -------------
 #p 6-31g* mp2
 -------------

 ------------------------------------------------------
 Input file generated by CHIRIPA (05-May-2021 14:55:18)
 ------------------------------------------------------
 Symbolic Z-matrix:
 Charge =  0 Multiplicity = 1

                         Standard orientation:
 ---------------------------------------------------------------------
 Center     Atomic      Atomic             Coordinates (Angstroms)
 Number     Number       Type             X           Y           Z
 ---------------------------------------------------------------------
      1          6           0        3.625343    2.100496   -0.197055
      2          6           0        2.272610    2.001968   -0.539000
      3          6           0        1.605982    0.776100   -0.452962
      4          6           0        2.325999   -0.335967   -0.019175
      5          6           0        3.674322   -0.269868    0.328597
      6          6           0        4.320656    0.966263    0.234891
      7          1           0        4.135313    3.056766   -0.266869
      8          1           0        1.730100    2.881164   -0.874771
      9          1           0        0.559237    0.671529   -0.711434
     10          1           0        4.188557   -1.163832    0.659969
     11          1           0        5.371258    1.039816    0.501105
     12          7           0        1.631012   -1.639171    0.075968
     13          8           0        2.287777   -2.604096    0.460956
     14          8           0        0.442676   -1.671021   -0.236249
     15          6           0       -3.187609    0.848552   -0.269258
     16          6           0       -3.223397    1.978953    0.759771
     17          6           0       -3.351107    3.360136    0.116482
     18          1           0       -2.346723    1.013592   -0.956729
     19          1           0       -4.101437    0.887369   -0.878196
     20          1           0       -2.310413    1.937167    1.367496
     21          1           0       -4.064181    1.811100    1.444989
     22          1           0       -4.270130    3.426222   -0.474812
     23          1           0       -2.506397    3.553007   -0.552746
     24          1           0       -3.374827    4.153397    0.870163
     25          6           0       -3.060177   -0.538323    0.358489
     26          6           0       -3.024389   -1.668724   -0.670538
     27          6           0       -2.896679   -3.049906   -0.027251
     28          1           0       -2.146349   -0.577139    0.967428
     29          1           0       -3.901063   -0.703363    1.045961
     30          1           0       -2.183605   -1.500871   -1.355757
     31          1           0       -3.937373   -1.626938   -1.278264
     32          1           0       -3.741388   -3.242778    0.641978
     33          1           0       -1.977656   -3.115993    0.564044
     34          1           0       -2.872959   -3.843167   -0.780932
 ---------------------------------------------------------------------

 SCF Done:  E(RHF) =  -669.536180151     A.U. after   15 cycles
 E2 =    -0.2092859688D+01 EUMP2 =    -0.67162903983964D+03

 The electronic state is 1-A.
 Alpha  occ. eigenvalues --  -20.61080 -20.61067 -15.86094 -11.31363 -11.27920
 Alpha  occ. eigenvalues --  -11.27915 -11.27644 -11.26914 -11.26904 -11.21498
 Alpha  occ. eigenvalues --  -11.21177 -11.21073 -11.20493 -11.20319 -11.19516
 Alpha  occ. eigenvalues --   -1.60130  -1.39690  -1.19526  -1.08941  -1.07833
 Alpha  occ. eigenvalues --   -1.04914  -1.02809  -0.95794  -0.95294  -0.86317
 Alpha  occ. eigenvalues --   -0.86315  -0.82632  -0.79015  -0.77698  -0.77496
 Alpha  occ. eigenvalues --   -0.72355  -0.71436  -0.70636  -0.65205  -0.64925
 Alpha  occ. eigenvalues --   -0.64432  -0.62256  -0.60141  -0.58796  -0.56873
 Alpha  occ. eigenvalues --   -0.55419  -0.54591  -0.53248  -0.52998  -0.52012
 Alpha  occ. eigenvalues --   -0.51711  -0.49449  -0.49065  -0.48864  -0.47283
 Alpha  occ. eigenvalues --   -0.46078  -0.45320  -0.45050  -0.44634  -0.43092
 Alpha  occ. eigenvalues --   -0.37500  -0.36511
 Alpha virt. eigenvalues --    0.04803   0.11135   0.16294   0.19492   0.22843
 Alpha virt. eigenvalues --    0.24962   0.25873   0.27544   0.28017   0.28422
 Alpha virt. eigenvalues --    0.29509   0.31181   0.32155   0.32169   0.32886

 Mulliken charges:
               1
     1  C   -0.170221
     2  C   -0.219640
     3  C   -0.174223
     4  C    0.156729
     5  C   -0.170057
     6  C   -0.218772
     7  H    0.226408
     8  H    0.224574
     9  H    0.280436
    10  H    0.275972
    11  H    0.224100
    12  N    0.494850
    13  O   -0.457715
    14  O   -0.466619
    15  C   -0.298301
    16  C   -0.299654
    17  C   -0.473709
    18  H    0.140609
    19  H    0.149617
    20  H    0.148860
    21  H    0.154078
    22  H    0.156921
    23  H    0.147042
    24  H    0.159257
    25  C   -0.300073
    26  C   -0.296596
    27  C   -0.478687
    28  H    0.157646
    29  H    0.145680
    30  H    0.161856
    31  H    0.142665
    32  H    0.144783
    33  H    0.175876
    34  H    0.156307
 Sum of Mulliken charges =  -0.00000

 Dipole moment (field-independent basis, Debye):
    X=              2.7599    Y=              4.4377    Z=             -0.2824  Tot=              5.2336
 Quadrupole moment (field-independent basis, Debye-Ang):
   XX=            -79.5845   YY=            -98.7467   ZZ=            -95.2490
   XY=              8.0264   XZ=              0.5431   YZ=             -0.4961

 Normal termination of Gaussian 16 at Thu May  6 04:28:06 2021.
