 Gaussian 16, Revision A.03,
 Gaussian 16:  EM64L-G16RevA.03 25-Dec-2016

 -------------
 #p 6-31g* mp2
 -------------

 ------------------------------------------------------
 Input file generated by CHIRIPA (05-May-2021 14:51:12)
 ------------------------------------------------------
 Symbolic Z-matrix:
 Charge =  0 Multiplicity = 1

                         Standard orientation:
 ---------------------------------------------------------------------
 Center     Atomic      Atomic             Coordinates (Angstroms)
 Number     Number       Type             X           Y           Z
 ---------------------------------------------------------------------
      1          6           0       -1.578337   -1.126933    0.114254
      2          6           0       -1.299225   -2.252962    1.110316
      3          6           0        0.166089   -2.689584    1.113594
      4          1           0       -1.290473   -1.457414   -0.893150
      5          1           0       -0.938933   -0.266511    0.355566
      6          1           0       -1.939960   -3.110504    0.868041
      7          1           0       -1.587965   -1.919831    2.115438
      8          1           0        0.817604   -1.850142    1.377159
      9          1           0        0.463609   -3.047579    0.122674
     10          1           0        0.343288   -3.495372    1.832736
     11          6           0       -3.038929   -0.679523    0.099345
     12          6           0       -3.318040    0.446506   -0.896718
     13          6           0       -4.783354    0.883128   -0.899996
     14          1           0       -3.678333   -1.539945   -0.141968
     15          1           0       -3.326792   -0.349042    1.106748
     16          1           0       -3.029300    0.113376   -1.901839
     17          1           0       -2.677305    1.304048   -0.654442
     18          1           0       -5.080874    1.241123    0.090924
     19          1           0       -5.434869    0.043686   -1.163560
     20          1           0       -4.960553    1.688916   -1.619138
     21          6           0        2.438055    0.360714   -0.628680
     22          6           0        3.580573   -0.583000   -0.251798
     23          6           0        3.827401   -1.662878   -1.305712
     24          1           0        1.520721   -0.225309   -0.777073
     25          1           0        2.666036    0.834170   -1.593697
     26          1           0        3.351147   -1.053491    0.712888
     27          1           0        4.495251    0.005359   -0.104097
     28          1           0        4.081230   -1.209728   -2.269468
     29          1           0        2.930626   -2.274593   -1.447840
     30          1           0        4.648247   -2.326347   -1.016087
     31          6           0        2.179211    1.445743    0.415081
     32          6           0        1.036692    2.389456    0.038200
     33          6           0        0.789865    3.469335    1.092113
     34          1           0        1.951229    0.972285    1.380099
     35          1           0        3.096545    2.031766    0.563474
     36          1           0        0.122014    1.801097   -0.109501
     37          1           0        1.266117    2.859946   -0.926487
     38          1           0        1.686639    4.081049    1.234242
     39          1           0        0.536036    3.016183    2.055869
     40          1           0       -0.030982    4.132803    0.802489
 ---------------------------------------------------------------------

 SCF Done:  E(RHF) =  -470.732645262     A.U. after   11 cycles
 E2 =    -0.1585473223D+01 EUMP2 =    -0.47231811848501D+03

 The electronic state is 1-A.
 Alpha  occ. eigenvalues --  -11.21695 -11.21651 -11.21591 -11.21524 -11.21480
 Alpha  occ. eigenvalues --  -11.21419 -11.21384 -11.21259 -11.21174 -11.21105
 Alpha  occ. eigenvalues --  -11.21096 -11.21005  -1.08538  -1.08376  -1.03611
 Alpha  occ. eigenvalues --   -1.03495  -0.96058  -0.95950  -0.87079  -0.86963
 Alpha  occ. eigenvalues --   -0.79673  -0.79571  -0.78462  -0.78092  -0.65373
 Alpha  occ. eigenvalues --   -0.64843  -0.61005  -0.60930  -0.59426  -0.59311
 Alpha  occ. eigenvalues --   -0.57659  -0.57554  -0.55409  -0.55189  -0.52749
 Alpha  occ. eigenvalues --   -0.52656  -0.52473  -0.52370  -0.50115  -0.49787
 Alpha  occ. eigenvalues --   -0.48064  -0.47835  -0.46830  -0.46663  -0.46304
 Alpha  occ. eigenvalues --   -0.45765  -0.45682  -0.45017  -0.43856  -0.43745
 Alpha virt. eigenvalues --    0.19635   0.21782   0.23584   0.24845   0.25004
 Alpha virt. eigenvalues --    0.25791   0.26781   0.27272   0.28238   0.30457
 Alpha virt. eigenvalues --    0.30719   0.31089   0.31649   0.31841   0.32336

 Mulliken charges:
               1
     1  C   -0.307938
     2  C   -0.299118
     3  C   -0.481561
     4  H    0.149820
     5  H    0.158511
     6  H    0.152453
     7  H    0.152006
     8  H    0.159638
     9  H    0.156219
    10  H    0.160970
    11  C   -0.297830
    12  C   -0.302645
    13  C   -0.475744
    14  H    0.149900
    15  H    0.149633
    16  H    0.152255
    17  H    0.154494
    18  H    0.155297
    19  H    0.155364
    20  H    0.160553
    21  C   -0.304710
    22  C   -0.300565
    23  C   -0.476725
    24  H    0.157205
    25  H    0.149277
    26  H    0.153518
    27  H    0.151424
    28  H    0.154685
    29  H    0.156328
    30  H    0.160039
    31  C   -0.299030
    32  C   -0.308737
    33  C   -0.475352
    34  H    0.148334
    35  H    0.150111
    36  H    0.159247
    37  H    0.152589
    38  H    0.155586
    39  H    0.154459
    40  H    0.160042
 Sum of Mulliken charges =  -0.00000

 Dipole moment (field-independent basis, Debye):
    X=             -0.0461    Y=             -0.0257    Z=             -0.0043  Tot=              0.0530
 Quadrupole moment (field-independent basis, Debye-Ang):
   XX=            -85.4806   YY=            -84.8073   ZZ=            -84.4964
   XY=              1.2334   XZ=             -0.0661   YZ=             -0.3402

 Normal termination of Gaussian 16 at Wed May  5 15:19:36 2021.
