 Gaussian 16, Revision A.03,
 Gaussian 16:  EM64L-G16RevA.03 25-Dec-2016

 -------------
 #p 6-31g* mp2
 -------------

 ------------------------------------------------------
 Input file generated by CHIRIPA (05-May-2021 14:51:14)
 ------------------------------------------------------
 Symbolic Z-matrix:
 Charge =  0 Multiplicity = 1

                         Standard orientation:
 ---------------------------------------------------------------------
 Center     Atomic      Atomic             Coordinates (Angstroms)
 Number     Number       Type             X           Y           Z
 ---------------------------------------------------------------------
      1          6           0        3.406368   -0.441869   -0.170098
      2          6           0        3.399194    0.686208   -1.202268
      3          6           0        4.800437    1.039113   -1.702038
      4          1           0        4.037315   -0.148405    0.680037
      5          1           0        3.873560   -1.332135   -0.613443
      6          1           0        2.930905    1.573654   -0.757565
      7          1           0        2.768037    0.390102   -2.049958
      8          1           0        5.272736    0.169548   -2.170431
      9          1           0        5.436529    1.359824   -0.870695
     10          1           0        4.771990    1.847770   -2.439008
     11          6           0        2.012846   -0.806044    0.339020
     12          6           0        2.020021   -1.934122    1.371190
     13          6           0        0.618778   -2.287027    1.870960
     14          1           0        1.545655    0.084221    0.782365
     15          1           0        1.381899   -1.099509   -0.511115
     16          1           0        2.651178   -1.638016    2.218880
     17          1           0        2.488310   -2.821568    0.926487
     18          1           0       -0.017315   -2.607738    1.039617
     19          1           0        0.146479   -1.417462    2.339353
     20          1           0        0.647224   -3.095684    2.607930
     21          6           0       -2.676641    1.227942    0.381957
     22          6           0       -1.251434    1.718691    0.638741
     23          6           0       -1.201899    2.927512    1.573669
     24          1           0       -3.268736    2.048578   -0.045741
     25          1           0       -3.146675    0.970283    1.341163
     26          1           0       -0.783756    1.974039   -0.320785
     27          1           0       -0.662611    0.896736    1.065700
     28          1           0       -1.643694    2.681810    2.544776
     29          1           0       -1.765528    3.765233    1.150413
     30          1           0       -0.173665    3.261780    1.743554
     31          6           0       -2.742575    0.019971   -0.550879
     32          6           0       -4.167780   -0.470777   -0.807663
     33          6           0       -4.217316   -1.679598   -1.742592
     34          1           0       -2.272541    0.277631   -1.510084
     35          1           0       -2.150478   -0.800664   -0.123180
     36          1           0       -4.756603    0.351177   -1.234623
     37          1           0       -4.635458   -0.726125    0.151863
     38          1           0       -3.653687   -2.517319   -1.319335
     39          1           0       -3.775520   -1.433895   -2.713698
     40          1           0       -5.245549   -2.013867   -1.912476
 ---------------------------------------------------------------------

 SCF Done:  E(RHF) =  -470.732990964     A.U. after   11 cycles
 E2 =    -0.1583866258D+01 EUMP2 =    -0.47231685722201D+03

 The electronic state is 1-A.
 Alpha  occ. eigenvalues --  -11.21628 -11.21594 -11.21572 -11.21527 -11.21381
 Alpha  occ. eigenvalues --  -11.21361 -11.21310 -11.21301 -11.21158 -11.21073
 Alpha  occ. eigenvalues --  -11.21068 -11.21059  -1.08449  -1.08377  -1.03557
 Alpha  occ. eigenvalues --   -1.03500  -0.96003  -0.95955  -0.87022  -0.86970
 Alpha  occ. eigenvalues --   -0.79667  -0.79540  -0.78398  -0.78035  -0.65124
 Alpha  occ. eigenvalues --   -0.64977  -0.61037  -0.60827  -0.59397  -0.59298
 Alpha  occ. eigenvalues --   -0.57653  -0.57529  -0.55290  -0.55246  -0.52704
 Alpha  occ. eigenvalues --   -0.52652  -0.52458  -0.52356  -0.49951  -0.49904
 Alpha  occ. eigenvalues --   -0.48100  -0.47853  -0.46823  -0.46489  -0.46143
 Alpha  occ. eigenvalues --   -0.45702  -0.45677  -0.45108  -0.43794  -0.43748
 Alpha virt. eigenvalues --    0.20656   0.22849   0.23675   0.23935   0.26123
 Alpha virt. eigenvalues --    0.26236   0.26428   0.27699   0.28662   0.29433
 Alpha virt. eigenvalues --    0.30405   0.31595   0.31659   0.31945   0.32127

 Mulliken charges:
               1
     1  C   -0.297854
     2  C   -0.299701
     3  C   -0.475695
     4  H    0.149332
     5  H    0.149348
     6  H    0.152049
     7  H    0.151941
     8  H    0.155194
     9  H    0.155131
    10  H    0.160163
    11  C   -0.303977
    12  C   -0.299696
    13  C   -0.479405
    14  H    0.156373
    15  H    0.150285
    16  H    0.151861
    17  H    0.152062
    18  H    0.156378
    19  H    0.156358
    20  H    0.160755
    21  C   -0.297384
    22  C   -0.308170
    23  C   -0.475792
    24  H    0.149338
    25  H    0.149175
    26  H    0.152270
    27  H    0.160600
    28  H    0.154876
    29  H    0.155433
    30  H    0.159198
    31  C   -0.301112
    32  C   -0.299545
    33  C   -0.475638
    34  H    0.149171
    35  H    0.152742
    36  H    0.151839
    37  H    0.152025
    38  H    0.154877
    39  H    0.154959
    40  H    0.160238
 Sum of Mulliken charges =  -0.00000

 Dipole moment (field-independent basis, Debye):
    X=              0.0173    Y=             -0.0150    Z=              0.0038  Tot=              0.0232
 Quadrupole moment (field-independent basis, Debye-Ang):
   XX=            -85.8182   YY=            -84.8817   ZZ=            -84.2282
   XY=             -0.4882   XZ=              0.4380   YZ=             -0.4346

 Normal termination of Gaussian 16 at Wed May  5 21:38:28 2021.
