 Gaussian 16, Revision A.03,
 Gaussian 16:  EM64L-G16RevA.03 25-Dec-2016

 -------------
 #p 6-31g* mp2
 -------------

 ------------------------------------------------------
 Input file generated by CHIRIPA (05-May-2021 14:51:12)
 ------------------------------------------------------
 Symbolic Z-matrix:
 Charge =  0 Multiplicity = 1

                         Standard orientation:
 ---------------------------------------------------------------------
 Center     Atomic      Atomic             Coordinates (Angstroms)
 Number     Number       Type             X           Y           Z
 ---------------------------------------------------------------------
      1          6           0        3.804764   -0.558888    0.489079
      2          6           0        2.873550   -1.619549   -0.098990
      3          6           0        2.932921   -2.945098    0.660739
      4          1           0        4.834897   -0.940644    0.483296
      5          1           0        3.539460   -0.391232    1.542122
      6          1           0        3.139636   -1.784152   -1.150997
      7          1           0        1.845541   -1.235148   -0.091983
      8          1           0        2.646773   -2.802171    1.707779
      9          1           0        3.948222   -3.354294    0.642747
     10          1           0        2.259561   -3.688928    0.223516
     11          6           0        3.756608    0.771842   -0.259632
     12          6           0        4.687822    1.832503    0.328436
     13          6           0        4.628451    3.158052   -0.431292
     14          1           0        4.021911    0.604186   -1.312675
     15          1           0        2.726475    1.153598   -0.253849
     16          1           0        5.715831    1.448102    0.321429
     17          1           0        4.421735    1.997106    1.380444
     18          1           0        3.613150    3.567248   -0.413301
     19          1           0        4.914598    3.015125   -1.478332
     20          1           0        5.301810    3.901882    0.005931
     21          6           0       -4.520069   -0.016170    0.054357
     22          6           0       -4.936927    1.448851    0.188257
     23          6           0       -6.418896    1.613225    0.526697
     24          1           0       -5.130575   -0.494865   -0.723511
     25          1           0       -4.743005   -0.540901    0.993694
     26          1           0       -4.711997    1.970979   -0.750574
     27          1           0       -4.325227    1.924163    0.965764
     28          1           0       -6.655013    1.117587    1.473900
     29          1           0       -7.043982    1.164670   -0.252190
     30          1           0       -6.695277    2.668299    0.617758
     31          6           0       -3.041302   -0.196784   -0.283804
     32          6           0       -2.624445   -1.661805   -0.417703
     33          6           0       -1.142475   -1.826180   -0.756144
     34          1           0       -2.818367    0.327948   -1.223140
     35          1           0       -2.430797    0.281911    0.494064
     36          1           0       -3.236145   -2.137116   -1.195210
     37          1           0       -2.849374   -2.183933    0.521127
     38          1           0       -0.517390   -1.377624    0.022745
     39          1           0       -0.906358   -1.330541   -1.703345
     40          1           0       -0.866096   -2.881253   -0.847205
 ---------------------------------------------------------------------

 SCF Done:  E(RHF) =  -470.733115135     A.U. after   11 cycles
 E2 =    -0.1582590361D+01 EUMP2 =    -0.47231570549617D+03

 The electronic state is 1-A.
 Alpha  occ. eigenvalues --  -11.21623 -11.21622 -11.21570 -11.21463 -11.21432
 Alpha  occ. eigenvalues --  -11.21372 -11.21351 -11.21288 -11.21095 -11.21087
 Alpha  occ. eigenvalues --  -11.21047 -11.20999  -1.08456  -1.08370  -1.03563
 Alpha  occ. eigenvalues --   -1.03461  -0.96016  -0.95915  -0.87030  -0.86937
 Alpha  occ. eigenvalues --   -0.79676  -0.79482  -0.78283  -0.78164  -0.65105
 Alpha  occ. eigenvalues --   -0.64994  -0.61033  -0.60807  -0.59394  -0.59272
 Alpha  occ. eigenvalues --   -0.57627  -0.57526  -0.55341  -0.55171  -0.52719
 Alpha  occ. eigenvalues --   -0.52594  -0.52468  -0.52327  -0.50005  -0.49830
 Alpha  occ. eigenvalues --   -0.48075  -0.47744  -0.46752  -0.46455  -0.45884
 Alpha  occ. eigenvalues --   -0.45741  -0.45692  -0.45499  -0.43805  -0.43723
 Alpha virt. eigenvalues --    0.21927   0.23003   0.23630   0.24831   0.25990
 Alpha virt. eigenvalues --    0.26721   0.27064   0.27340   0.27922   0.29003
 Alpha virt. eigenvalues --    0.30126   0.30912   0.31606   0.31701   0.32431

 Mulliken charges:
               1
     1  C   -0.297789
     2  C   -0.306916
     3  C   -0.475485
     4  H    0.149275
     5  H    0.148721
     6  H    0.151456
     7  H    0.160953
     8  H    0.154248
     9  H    0.154748
    10  H    0.160542
    11  C   -0.298186
    12  C   -0.299559
    13  C   -0.475675
    14  H    0.149504
    15  H    0.149443
    16  H    0.151903
    17  H    0.151711
    18  H    0.155121
    19  H    0.155137
    20  H    0.160112
    21  C   -0.298276
    22  C   -0.299663
    23  C   -0.475723
    24  H    0.149783
    25  H    0.149578
    26  H    0.151984
    27  H    0.151841
    28  H    0.155207
    29  H    0.155242
    30  H    0.160309
    31  C   -0.298353
    32  C   -0.300067
    33  C   -0.477775
    34  H    0.149647
    35  H    0.149205
    36  H    0.152021
    37  H    0.152011
    38  H    0.157150
    39  H    0.155780
    40  H    0.160833
 Sum of Mulliken charges =  -0.00000

 Dipole moment (field-independent basis, Debye):
    X=             -0.0396    Y=             -0.0068    Z=             -0.0177  Tot=              0.0439
 Quadrupole moment (field-independent basis, Debye-Ang):
   XX=            -85.4310   YY=            -85.8535   ZZ=            -83.6582
   XY=             -0.0017   XZ=              0.0132   YZ=              0.5872

 Normal termination of Gaussian 16 at Wed May  5 23:07:58 2021.
