 Gaussian 16, Revision A.03,
 Gaussian 16:  EM64L-G16RevA.03 25-Dec-2016

 -------------
 #p 6-31g* mp2
 -------------

 ------------------------------------------------------
 Input file generated by CHIRIPA (05-May-2021 14:53:16)
 ------------------------------------------------------
 Symbolic Z-matrix:
 Charge =  0 Multiplicity = 1

                         Standard orientation:
 ---------------------------------------------------------------------
 Center     Atomic      Atomic             Coordinates (Angstroms)
 Number     Number       Type             X           Y           Z
 ---------------------------------------------------------------------
      1          6           0        4.055596    0.050572   -0.300423
      2          6           0        4.057630   -1.438688    0.046108
      3          6           0        5.267486   -2.177334   -0.526994
      4          1           0        4.074050    0.166381   -1.392757
      5          1           0        4.979531    0.509263    0.078181
      6          1           0        3.133328   -1.894152   -0.331826
      7          1           0        4.038975   -1.550967    1.137741
      8          1           0        6.198369   -1.749836   -0.140596
      9          1           0        5.287576   -2.094971   -1.618513
     10          1           0        5.248866   -3.240375   -0.267269
     11          6           0        2.852310    0.802609    0.265502
     12          6           0        2.850276    2.291870   -0.081029
     13          6           0        1.640420    3.030515    0.492073
     14          1           0        1.928375    0.343918   -0.113102
     15          1           0        2.833856    0.686800    1.357836
     16          1           0        2.868931    2.404148   -1.172661
     17          1           0        3.774579    2.747333    0.296905
     18          1           0        1.620331    2.948153    1.583592
     19          1           0        0.709537    2.603017    0.105676
     20          1           0        1.659040    4.093556    0.232348
     21          6           0       -2.228034   -2.787956    0.358912
     22          6           0       -1.232125   -1.840965    0.619478
     23          6           0       -1.481587   -0.478227    0.431699
     24          6           0       -2.743874   -0.095964   -0.019738
     25          6           0       -3.756724   -1.015432   -0.288078
     26          6           0       -3.484938   -2.372899   -0.093237
     27          1           0       -2.025575   -3.844518    0.507526
     28          1           0       -0.255071   -2.160412    0.970711
     29          1           0       -0.728766    0.276117    0.625717
     30          1           0       -4.720951   -0.666517   -0.637278
     31          1           0       -4.260279   -3.106121   -0.296403
     32          7           0       -3.019784    1.343916   -0.222269
     33          8           0       -4.140091    1.654961   -0.620770
     34          8           0       -2.110512    2.134184    0.021321
 ---------------------------------------------------------------------

 SCF Done:  E(RHF) =  -669.536077116     A.U. after   15 cycles
 E2 =    -0.2092079512D+01 EUMP2 =    -0.67162815662816D+03

 The electronic state is 1-A.
 Alpha  occ. eigenvalues --  -20.60852 -20.60844 -15.85891 -11.31209 -11.27781
 Alpha  occ. eigenvalues --  -11.27751 -11.27515 -11.26791 -11.26767 -11.22060
 Alpha  occ. eigenvalues --  -11.21710 -11.21645 -11.21455 -11.21438 -11.20494
 Alpha  occ. eigenvalues --   -1.59918  -1.39474  -1.19381  -1.08786  -1.08649
 Alpha  occ. eigenvalues --   -1.04776  -1.03619  -0.96037  -0.95627  -0.87049
 Alpha  occ. eigenvalues --   -0.86177  -0.82460  -0.79707  -0.78494  -0.77498
 Alpha  occ. eigenvalues --   -0.72116  -0.71233  -0.70492  -0.65285  -0.65037
 Alpha  occ. eigenvalues --   -0.64775  -0.62132  -0.60994  -0.59464  -0.57657
 Alpha  occ. eigenvalues --   -0.55307  -0.55281  -0.53112  -0.52869  -0.52692
 Alpha  occ. eigenvalues --   -0.52464  -0.50000  -0.48866  -0.48861  -0.47975
 Alpha  occ. eigenvalues --   -0.46739  -0.45983  -0.45912  -0.44874  -0.43899
 Alpha  occ. eigenvalues --   -0.37364  -0.36376
 Alpha virt. eigenvalues --    0.04989   0.11257   0.16473   0.19952   0.22870
 Alpha virt. eigenvalues --    0.23526   0.25139   0.26664   0.27068   0.28261
 Alpha virt. eigenvalues --    0.29847   0.30576   0.31554   0.31628   0.32178

 Mulliken charges:
               1
     1  C   -0.297611
     2  C   -0.299875
     3  C   -0.475565
     4  H    0.151924
     5  H    0.152018
     6  H    0.146204
     7  H    0.150462
     8  H    0.157154
     9  H    0.156747
    10  H    0.159147
    11  C   -0.300981
    12  C   -0.300027
    13  C   -0.487784
    14  H    0.142190
    15  H    0.147729
    16  H    0.153208
    17  H    0.151289
    18  H    0.151098
    19  H    0.177320
    20  H    0.163558
    21  C   -0.170474
    22  C   -0.221894
    23  C   -0.175763
    24  C    0.157448
    25  C   -0.170492
    26  C   -0.218799
    27  H    0.225791
    28  H    0.225720
    29  H    0.283990
    30  H    0.275546
    31  H    0.223519
    32  N    0.492195
    33  O   -0.459568
    34  O   -0.465424
 Sum of Mulliken charges =  -0.00000

 Dipole moment (field-independent basis, Debye):
    X=              0.9329    Y=             -4.9639    Z=              0.6604  Tot=              5.0938
 Quadrupole moment (field-independent basis, Debye-Ang):
   XX=            -96.0017   YY=            -94.1788   ZZ=            -94.6183
   XY=             15.8586   XZ=              0.1749   YZ=              0.2341

 Normal termination of Gaussian 16 at Thu May  6 12:12:01 2021.
