 Gaussian 16, Revision A.03,
 Gaussian 16:  EM64L-G16RevA.03 25-Dec-2016

 -------------
 #p 6-31g* mp2
 -------------

 ------------------------------------------------------
 Input file generated by CHIRIPA (05-May-2021 14:53:13)
 ------------------------------------------------------
 Symbolic Z-matrix:
 Charge =  0 Multiplicity = 1

                         Standard orientation:
 ---------------------------------------------------------------------
 Center     Atomic      Atomic             Coordinates (Angstroms)
 Number     Number       Type             X           Y           Z
 ---------------------------------------------------------------------
      1          6           0        3.184217   -0.383566    0.763161
      2          6           0        2.006514    0.591568    0.752539
      3          6           0        0.804993    0.076033    1.545235
      4          1           0        2.857338   -1.347853    0.350553
      5          1           0        3.484161   -0.574046    1.802943
      6          1           0        1.709771    0.781226   -0.286975
      7          1           0        2.336285    1.553705    1.165044
      8          1           0        1.078603   -0.095761    2.591287
      9          1           0        0.448529   -0.872629    1.131019
     10          1           0       -0.025405    0.788679    1.524404
     11          6           0        4.392962    0.117755   -0.025090
     12          6           0        5.570666   -0.857379   -0.014468
     13          6           0        6.772186   -0.341844   -0.807164
     14          1           0        4.093018    0.308234   -1.064872
     15          1           0        4.719842    1.082042    0.387518
     16          1           0        5.240895   -1.819516   -0.426973
     17          1           0        5.867408   -1.047037    1.025046
     18          1           0        7.128650    0.606818   -0.392948
     19          1           0        6.498577   -0.170050   -1.853216
     20          1           0        7.602585   -1.054490   -0.786333
     21          6           0       -1.519798    2.137727   -0.682629
     22          6           0       -2.610568    2.210824    0.189953
     23          6           0       -3.415321    1.090189    0.416002
     24          6           0       -3.099053   -0.092797   -0.250188
     25          6           0       -2.019127   -0.197199   -1.125487
     26          6           0       -1.228073    0.936067   -1.336411
     27          1           0       -0.899967    3.013169   -0.852355
     28          1           0       -2.839495    3.142730    0.699059
     29          1           0       -4.265789    1.118918    1.086298
     30          1           0       -1.815885   -1.140065   -1.618555
     31          1           0       -0.381598    0.876379   -2.014617
     32          7           0       -3.943758   -1.285849   -0.018886
     33          8           0       -3.644050   -2.316330   -0.617985
     34          8           0       -4.889550   -1.167892    0.757129
 ---------------------------------------------------------------------

 SCF Done:  E(RHF) =  -669.534562329     A.U. after   15 cycles
 E2 =    -0.2093753579D+01 EUMP2 =    -0.67162831590827D+03

 The electronic state is 1-A.
 Alpha  occ. eigenvalues --  -20.60801 -20.60796 -15.85856 -11.31249 -11.27830
 Alpha  occ. eigenvalues --  -11.27805 -11.27544 -11.26852 -11.26805 -11.22067
 Alpha  occ. eigenvalues --  -11.21917 -11.21794 -11.21728 -11.21366 -11.21174
 Alpha  occ. eigenvalues --   -1.59876  -1.39429  -1.19430  -1.08854  -1.08770
 Alpha  occ. eigenvalues --   -1.04839  -1.03854  -0.96277  -0.95644  -0.87291
 Alpha  occ. eigenvalues --   -0.86231  -0.82476  -0.79938  -0.78632  -0.77519
 Alpha  occ. eigenvalues --   -0.72074  -0.71198  -0.70526  -0.65467  -0.65078
 Alpha  occ. eigenvalues --   -0.64829  -0.62195  -0.61266  -0.59708  -0.57950
 Alpha  occ. eigenvalues --   -0.55617  -0.55324  -0.53551  -0.52931  -0.52781
 Alpha  occ. eigenvalues --   -0.52326  -0.50202  -0.48837  -0.48828  -0.48240
 Alpha  occ. eigenvalues --   -0.46988  -0.46162  -0.46105  -0.44829  -0.44102
 Alpha  occ. eigenvalues --   -0.37355  -0.36400
 Alpha virt. eigenvalues --    0.05006   0.11112   0.16454   0.20578   0.22687
 Alpha virt. eigenvalues --    0.24116   0.25595   0.26705   0.27642   0.27885
 Alpha virt. eigenvalues --    0.28417   0.30458   0.31304   0.31656   0.31901

 Mulliken charges:
               1
     1  C   -0.298121
     2  C   -0.299811
     3  C   -0.478073
     4  H    0.150586
     5  H    0.152055
     6  H    0.141117
     7  H    0.149783
     8  H    0.154825
     9  H    0.155793
    10  H    0.165046
    11  C   -0.297745
    12  C   -0.299933
    13  C   -0.475807
    14  H    0.145811
    15  H    0.149357
    16  H    0.152858
    17  H    0.153314
    18  H    0.155136
    19  H    0.154404
    20  H    0.161665
    21  C   -0.172432
    22  C   -0.219101
    23  C   -0.170740
    24  C    0.159867
    25  C   -0.171087
    26  C   -0.212160
    27  H    0.226684
    28  H    0.224047
    29  H    0.276095
    30  H    0.275508
    31  H    0.223494
    32  N    0.488103
    33  O   -0.460407
    34  O   -0.460132
 Sum of Mulliken charges =  -0.00000

 Dipole moment (field-independent basis, Debye):
    X=              2.9115    Y=              4.1898    Z=             -0.7993  Tot=              5.1644
 Quadrupole moment (field-independent basis, Debye-Ang):
   XX=           -112.6845   YY=            -94.4376   ZZ=            -92.4727
   XY=            -15.4045   XZ=              0.6057   YZ=              1.4182

 Normal termination of Gaussian 16 at Thu May  6 10:30:00 2021.
