 Gaussian 16, Revision A.03,
 Gaussian 16:  EM64L-G16RevA.03 25-Dec-2016

 -------------
 #p 6-31g* mp2
 -------------

 ------------------------------------------------------
 Input file generated by CHIRIPA (05-May-2021 14:51:10)
 ------------------------------------------------------
 Symbolic Z-matrix:
 Charge =  0 Multiplicity = 1

                         Standard orientation:
 ---------------------------------------------------------------------
 Center     Atomic      Atomic             Coordinates (Angstroms)
 Number     Number       Type             X           Y           Z
 ---------------------------------------------------------------------
      1          6           0        3.541076    0.184852   -0.522069
      2          6           0        3.384904   -1.336171   -0.531247
      3          6           0        4.579398   -2.049259   -1.165662
      4          1           0        3.676333    0.539416   -1.553057
      5          1           0        4.458357    0.449006    0.022185
      6          1           0        2.467462   -1.597308   -1.074131
      7          1           0        3.249811   -1.687134    0.499864
      8          1           0        5.500204   -1.817798   -0.620553
      9          1           0        4.713409   -1.727462   -2.203491
     10          1           0        4.446802   -3.135658   -1.161755
     11          6           0        2.354918    0.911843    0.108995
     12          6           0        2.511090    2.432866    0.118173
     13          6           0        1.316596    3.145954    0.752588
     14          1           0        1.437637    0.647689   -0.435259
     15          1           0        2.219661    0.557280    1.139982
     16          1           0        2.646183    2.783829   -0.912939
     17          1           0        3.428533    2.694003    0.661057
     18          1           0        1.182585    2.824157    1.790416
     19          1           0        0.395790    2.914493    0.207478
     20          1           0        1.449192    4.232353    0.748680
     21          6           0       -3.704273   -0.465736    0.138314
     22          6           0       -4.118592    0.320003   -1.106250
     23          6           0       -5.634559    0.476892   -1.228807
     24          1           0       -4.176031   -1.457548    0.111891
     25          1           0       -4.094603    0.042369    1.030989
     26          1           0       -3.726421   -0.188681   -1.996227
     27          1           0       -3.645639    1.309990   -1.076955
     28          1           0       -6.038854    1.004338   -0.358779
     29          1           0       -6.120094   -0.502847   -1.283276
     30          1           0       -5.908543    1.041622   -2.125397
     31          6           0       -2.191722   -0.630959    0.274760
     32          6           0       -1.777403   -1.416698    1.519324
     33          6           0       -0.261435   -1.573587    1.641882
     34          1           0       -1.801392   -1.139063   -0.617914
     35          1           0       -1.719964    0.360853    0.301184
     36          1           0       -2.250355   -2.406685    1.490029
     37          1           0       -2.169573   -0.908014    2.409302
     38          1           0        0.224100   -0.593848    1.696350
     39          1           0        0.142860   -2.101034    0.771854
     40          1           0        0.012549   -2.138317    2.538472
 ---------------------------------------------------------------------

 SCF Done:  E(RHF) =  -470.732739865     A.U. after   11 cycles
 E2 =    -0.1583872763D+01 EUMP2 =    -0.47231661262780D+03

 The electronic state is 1-A.
 Alpha  occ. eigenvalues --  -11.21603 -11.21599 -11.21559 -11.21533 -11.21386
 Alpha  occ. eigenvalues --  -11.21371 -11.21327 -11.21306 -11.21127 -11.21067
 Alpha  occ. eigenvalues --  -11.21046 -11.20892  -1.08437  -1.08381  -1.03527
 Alpha  occ. eigenvalues --   -1.03483  -0.95999  -0.95913  -0.87010  -0.86940
 Alpha  occ. eigenvalues --   -0.79610  -0.79565  -0.78360  -0.78064  -0.65060
 Alpha  occ. eigenvalues --   -0.65020  -0.60924  -0.60890  -0.59359  -0.59292
 Alpha  occ. eigenvalues --   -0.57698  -0.57458  -0.55300  -0.55192  -0.52715
 Alpha  occ. eigenvalues --   -0.52622  -0.52489  -0.52261  -0.49953  -0.49855
 Alpha  occ. eigenvalues --   -0.48000  -0.47880  -0.46625  -0.46594  -0.46053
 Alpha  occ. eigenvalues --   -0.45708  -0.45630  -0.45250  -0.43771  -0.43746
 Alpha virt. eigenvalues --    0.21103   0.22988   0.23581   0.24180   0.25339
 Alpha virt. eigenvalues --    0.26103   0.26540   0.27618   0.28532   0.30001
 Alpha virt. eigenvalues --    0.30287   0.30773   0.31691   0.32046   0.32142

 Mulliken charges:
               1
     1  C   -0.298039
     2  C   -0.300868
     3  C   -0.475770
     4  H    0.149316
     5  H    0.149214
     6  H    0.152106
     7  H    0.154286
     8  H    0.155095
     9  H    0.154937
    10  H    0.160116
    11  C   -0.303001
    12  C   -0.299096
    13  C   -0.477314
    14  H    0.152652
    15  H    0.153149
    16  H    0.151928
    17  H    0.151843
    18  H    0.154681
    19  H    0.155408
    20  H    0.160839
    21  C   -0.298186
    22  C   -0.299609
    23  C   -0.475678
    24  H    0.149713
    25  H    0.149697
    26  H    0.151662
    27  H    0.151677
    28  H    0.155289
    29  H    0.155191
    30  H    0.160171
    31  C   -0.299863
    32  C   -0.299637
    33  C   -0.481985
    34  H    0.148718
    35  H    0.150901
    36  H    0.151323
    37  H    0.151450
    38  H    0.162615
    39  H    0.156783
    40  H    0.158286
 Sum of Mulliken charges =  -0.00000

 Dipole moment (field-independent basis, Debye):
    X=              0.0349    Y=              0.0133    Z=              0.0014  Tot=              0.0374
 Quadrupole moment (field-independent basis, Debye-Ang):
   XX=            -86.3973   YY=            -84.5697   ZZ=            -83.9412
   XY=              0.7236   XZ=              0.5973   YZ=              0.2223

 Normal termination of Gaussian 16 at Thu May  6 02:14:12 2021.
