 Gaussian 16, Revision A.03,
 Gaussian 16:  EM64L-G16RevA.03 25-Dec-2016

 -------------
 #p 6-31g* mp2
 -------------

 ------------------------------------------------------
 Input file generated by CHIRIPA (05-May-2021 14:51:08)
 ------------------------------------------------------
 Symbolic Z-matrix:
 Charge =  0 Multiplicity = 1

                         Standard orientation:
 ---------------------------------------------------------------------
 Center     Atomic      Atomic             Coordinates (Angstroms)
 Number     Number       Type             X           Y           Z
 ---------------------------------------------------------------------
      1          6           0        3.509241   -0.084795    0.224633
      2          6           0        3.934044    0.615547   -1.066509
      3          6           0        5.103341    1.578699   -0.859437
      4          1           0        3.234542    0.672417    0.971704
      5          1           0        4.368284   -0.632625    0.636121
      6          1           0        3.074085    1.160763   -1.476173
      7          1           0        4.207581   -0.143425   -1.810656
      8          1           0        5.977923    1.045409   -0.473032
      9          1           0        4.837986    2.357008   -0.136649
     10          1           0        5.390651    2.068382   -1.795132
     11          6           0        2.341349   -1.050889    0.033790
     12          6           0        1.916545   -1.751231    1.324932
     13          6           0        0.747249   -2.714383    1.117860
     14          1           0        1.482306   -0.503059   -0.377698
     15          1           0        2.616048   -1.808101   -0.713281
     16          1           0        1.643008   -0.992259    2.069079
     17          1           0        2.776505   -2.296447    1.734596
     18          1           0        1.012604   -3.492692    0.395072
     19          1           0       -0.127333   -2.181093    0.731455
     20          1           0        0.459939   -3.204066    2.053554
     21          6           0       -3.120237    0.079202   -0.682981
     22          6           0       -3.329103   -1.350928   -0.183897
     23          6           0       -3.718667   -2.316746   -1.303375
     24          1           0       -4.041692    0.429900   -1.167624
     25          1           0       -2.340272    0.079792   -1.456963
     26          1           0       -4.107469   -1.348618    0.589896
     27          1           0       -2.407107   -1.698194    0.299784
     28          1           0       -2.940468   -2.348683   -2.072782
     29          1           0       -4.650492   -1.997122   -1.781020
     30          1           0       -3.863009   -3.333321   -0.924428
     31          6           0       -2.730352    1.056482    0.424558
     32          6           0       -2.521487    2.486613   -0.074526
     33          6           0       -2.131922    3.452430    1.044953
     34          1           0       -3.510317    1.055892    1.198541
     35          1           0       -1.808899    0.705784    0.909201
     36          1           0       -3.443482    2.833878   -0.558206
     37          1           0       -1.743120    2.484303   -0.848319
     38          1           0       -1.200098    3.132806    1.522598
     39          1           0       -2.910121    3.484367    1.814360
     40          1           0       -1.987581    4.469005    0.666006
 ---------------------------------------------------------------------

 SCF Done:  E(RHF) =  -470.733364669     A.U. after   11 cycles
 E2 =    -0.1582892881D+01 EUMP2 =    -0.47231625755007D+03

 The electronic state is 1-A.
 Alpha  occ. eigenvalues --  -11.21657 -11.21642 -11.21640 -11.21585 -11.21460
 Alpha  occ. eigenvalues --  -11.21439 -11.21398 -11.21376 -11.21117 -11.21110
 Alpha  occ. eigenvalues --  -11.21098 -11.21052  -1.08484  -1.08454  -1.03583
 Alpha  occ. eigenvalues --   -1.03540  -0.96029  -0.95994  -0.87053  -0.87003
 Alpha  occ. eigenvalues --   -0.79676  -0.79577  -0.78309  -0.78254  -0.65200
 Alpha  occ. eigenvalues --   -0.65017  -0.61078  -0.60859  -0.59392  -0.59363
 Alpha  occ. eigenvalues --   -0.57647  -0.57593  -0.55351  -0.55257  -0.52718
 Alpha  occ. eigenvalues --   -0.52687  -0.52474  -0.52402  -0.50077  -0.49863
 Alpha  occ. eigenvalues --   -0.48044  -0.47860  -0.46819  -0.46512  -0.45928
 Alpha  occ. eigenvalues --   -0.45798  -0.45760  -0.45550  -0.43832  -0.43803
 Alpha virt. eigenvalues --    0.20102   0.23200   0.23933   0.24529   0.25792
 Alpha virt. eigenvalues --    0.26855   0.27044   0.27623   0.28187   0.29057
 Alpha virt. eigenvalues --    0.30699   0.31641   0.31683   0.31863   0.31991

 Mulliken charges:
               1
     1  C   -0.298325
     2  C   -0.299660
     3  C   -0.475751
     4  H    0.149643
     5  H    0.149803
     6  H    0.151748
     7  H    0.152040
     8  H    0.155278
     9  H    0.155302
    10  H    0.160389
    11  C   -0.298488
    12  C   -0.299271
    13  C   -0.483590
    14  H    0.148715
    15  H    0.149948
    16  H    0.151823
    17  H    0.152333
    18  H    0.155700
    19  H    0.161746
    20  H    0.160837
    21  C   -0.297994
    22  C   -0.308464
    23  C   -0.475183
    24  H    0.149935
    25  H    0.149194
    26  H    0.152165
    27  H    0.160005
    28  H    0.155277
    29  H    0.155024
    30  H    0.160593
    31  C   -0.298925
    32  C   -0.299629
    33  C   -0.475639
    34  H    0.149959
    35  H    0.148970
    36  H    0.152296
    37  H    0.151621
    38  H    0.154760
    39  H    0.155412
    40  H    0.160406
 Sum of Mulliken charges =  -0.00000

 Dipole moment (field-independent basis, Debye):
    X=              0.0047    Y=             -0.0132    Z=              0.0034  Tot=              0.0145
 Quadrupole moment (field-independent basis, Debye-Ang):
   XX=            -84.0477   YY=            -85.3133   ZZ=            -85.2214
   XY=             -1.5798   XZ=             -0.5040   YZ=             -0.3842

 Normal termination of Gaussian 16 at Thu May  6 05:17:33 2021.
