 Gaussian 16, Revision A.03,
 Gaussian 16:  EM64L-G16RevA.03 25-Dec-2016

 -------------
 #p 6-31g* mp2
 -------------

 ------------------------------------------------------
 Input file generated by CHIRIPA (05-May-2021 14:57:26)
 ------------------------------------------------------
 Symbolic Z-matrix:
 Charge =  0 Multiplicity = 1

                         Standard orientation:
 ---------------------------------------------------------------------
 Center     Atomic      Atomic             Coordinates (Angstroms)
 Number     Number       Type             X           Y           Z
 ---------------------------------------------------------------------
      1          6           0        3.448661    2.319115    1.048235
      2          6           0        4.559371    1.483259    0.892703
      3          6           0        4.424007    0.226281    0.295853
      4          6           0        3.157513   -0.164698   -0.135909
      5          6           0        2.031805    0.645386    0.004930
      6          6           0        2.190641    1.898252    0.604634
      7          1           0        3.562932    3.293968    1.512991
      8          1           0        5.537577    1.807485    1.236265
      9          1           0        5.267046   -0.440840    0.162984
     10          1           0        1.069445    0.294565   -0.347499
     11          1           0        1.326284    2.545289    0.724116
     12          7           0        3.001785   -1.493228   -0.769278
     13          8           0        1.875225   -1.814366   -1.141260
     14          8           0        4.009233   -2.188237   -0.881737
     15          6           0       -3.029357   -1.215376    2.266264
     16          6           0       -1.984745   -1.332100    1.343397
     17          6           0       -2.059201   -0.693092    0.102159
     18          6           0       -3.198049    0.057993   -0.184525
     19          6           0       -4.255325    0.193332    0.713886
     20          6           0       -4.159321   -0.454374    1.949122
     21          1           0       -2.963148   -1.715151    3.228156
     22          1           0       -1.105995   -1.922445    1.586985
     23          1           0       -1.265060   -0.766652   -0.630880
     24          1           0       -5.118601    0.788757    0.442518
     25          1           0       -4.972106   -0.361964    2.663884
     26          7           0       -3.288279    0.739086   -1.495391
     27          8           0       -4.302332    1.394934   -1.723858
     28          8           0       -2.343239    0.604183   -2.269560
 ---------------------------------------------------------------------

 SCF Done:  E(RHF) =  -868.338704766     A.U. after   16 cycles
 E2 =    -0.2599780305D+01 EUMP2 =    -0.87093848507093D+03

 The electronic state is 1-A.
 Alpha  occ. eigenvalues --  -20.61159 -20.61133 -20.60829 -20.60823 -15.86189
 Alpha  occ. eigenvalues --  -15.85877 -11.31435 -11.31231 -11.28001 -11.27972
 Alpha  occ. eigenvalues --  -11.27796 -11.27724 -11.27684 -11.27504 -11.26968
 Alpha  occ. eigenvalues --  -11.26944 -11.26819 -11.26736  -1.60212  -1.59908
 Alpha  occ. eigenvalues --   -1.39774  -1.39460  -1.19590  -1.19393  -1.09003
 Alpha  occ. eigenvalues --   -1.08790  -1.04974  -1.04774  -0.95862  -0.95625
 Alpha  occ. eigenvalues --   -0.86383  -0.86173  -0.82695  -0.82443  -0.77790
 Alpha  occ. eigenvalues --   -0.77478  -0.72413  -0.72087  -0.71528  -0.71240
 Alpha  occ. eigenvalues --   -0.70727  -0.70461  -0.65242  -0.65039  -0.64987
 Alpha  occ. eigenvalues --   -0.64736  -0.62423  -0.62000  -0.55481  -0.55267
 Alpha  occ. eigenvalues --   -0.53310  -0.53171  -0.53055  -0.52794  -0.49177
 Alpha  occ. eigenvalues --   -0.49143  -0.48852  -0.48848  -0.45202  -0.44867
 Alpha  occ. eigenvalues --   -0.37560  -0.37381  -0.36585  -0.36371
 Alpha virt. eigenvalues --    0.04747   0.04981   0.11074   0.11192   0.16284
 Alpha virt. eigenvalues --    0.16501   0.20198   0.21918   0.25319   0.27525
 Alpha virt. eigenvalues --    0.27870   0.29251   0.30716   0.31250   0.31633

 Mulliken charges:
               1
     1  C   -0.170404
     2  C   -0.218735
     3  C   -0.170315
     4  C    0.156916
     5  C   -0.172658
     6  C   -0.220566
     7  H    0.226902
     8  H    0.224258
     9  H    0.275922
    10  H    0.277338
    11  H    0.227203
    12  N    0.488893
    13  O   -0.467876
    14  O   -0.457470
    15  C   -0.171504
    16  C   -0.220858
    17  C   -0.187188
    18  C    0.159362
    19  C   -0.171770
    20  C   -0.218448
    21  H    0.226102
    22  H    0.230421
    23  H    0.289305
    24  H    0.275182
    25  H    0.223310
    26  N    0.487030
    27  O   -0.460696
    28  O   -0.459656
 Sum of Mulliken charges =  -0.00000

 Dipole moment (field-independent basis, Debye):
    X=              0.9758    Y=              2.2810    Z=              6.8785  Tot=              7.3122
 Quadrupole moment (field-independent basis, Debye-Ang):
   XX=            -94.3258   YY=           -106.8808   ZZ=           -108.1221
   XY=             20.0839   XZ=             -8.5629   YZ=              0.1092

 Normal termination of Gaussian 16 at Thu May  6 18:08:58 2021.
