 Gaussian 16, Revision A.03,
 Gaussian 16:  EM64L-G16RevA.03 25-Dec-2016

 -------------
 #p 6-31g* mp2
 -------------

 ------------------------------------------------------
 Input file generated by CHIRIPA (05-May-2021 14:55:21)
 ------------------------------------------------------
 Symbolic Z-matrix:
 Charge =  0 Multiplicity = 1

                         Standard orientation:
 ---------------------------------------------------------------------
 Center     Atomic      Atomic             Coordinates (Angstroms)
 Number     Number       Type             X           Y           Z
 ---------------------------------------------------------------------
      1          6           0        5.038067    0.832382    0.254005
      2          6           0        4.686775    0.136872   -0.907623
      3          6           0        3.389043   -0.355357   -1.075403
      4          6           0        2.463639   -0.133014   -0.056834
      5          6           0        2.783116    0.556153    1.112043
      6          6           0        4.086794    1.039438    1.258360
      7          1           0        6.048485    1.211284    0.376004
      8          1           0        5.423477   -0.025415   -1.689274
      9          1           0        3.090150   -0.897141   -1.964533
     10          1           0        2.026931    0.702287    1.873781
     11          1           0        4.356789    1.579230    2.161561
     12          7           0        1.086642   -0.649381   -0.223095
     13          8           0        0.289769   -0.440292    0.688998
     14          8           0        0.830297   -1.253421   -1.262354
     15          6           0       -3.564474    0.762282    0.316180
     16          6           0       -3.757835    1.821243   -0.769729
     17          6           0       -3.997933    3.218386   -0.196895
     18          1           0       -4.450236    0.746506    0.965889
     19          1           0       -2.715604    1.049785    0.951913
     20          1           0       -4.605223    1.531124   -1.404065
     21          1           0       -2.871592    1.834368   -1.417043
     22          1           0       -3.149852    3.532807    0.419952
     23          1           0       -4.893333    3.227840    0.433004
     24          1           0       -4.133561    3.959799   -0.990475
     25          6           0       -3.323424   -0.639631   -0.240832
     26          6           0       -3.130062   -1.698592    0.845077
     27          6           0       -2.889965   -3.095734    0.272242
     28          1           0       -4.172294   -0.927134   -0.876565
     29          1           0       -2.437662   -0.623854   -0.890542
     30          1           0       -4.016306   -1.711717    1.492392
     31          1           0       -2.282676   -1.408472    1.479413
     32          1           0       -1.994565   -3.105189   -0.357656
     33          1           0       -3.738046   -3.410156   -0.344604
     34          1           0       -2.754336   -3.837148    1.065823
 ---------------------------------------------------------------------

 SCF Done:  E(RHF) =  -669.537196542     A.U. after   15 cycles
 E2 =    -0.2092434159D+01 EUMP2 =    -0.67162963070101D+03

 The electronic state is 1-A.
 Alpha  occ. eigenvalues --  -20.61249 -20.61237 -15.86233 -11.31459 -11.28005
 Alpha  occ. eigenvalues --  -11.28001 -11.27724 -11.26987 -11.26978 -11.20481
 Alpha  occ. eigenvalues --  -11.20237 -11.19904 -11.19648 -11.19497 -11.19298
 Alpha  occ. eigenvalues --   -1.60271  -1.39832  -1.19613  -1.09037  -1.06851
 Alpha  occ. eigenvalues --   -1.04993  -1.02042  -0.95893  -0.94529  -0.86398
 Alpha  occ. eigenvalues --   -0.85557  -0.82732  -0.78169  -0.77798  -0.76600
 Alpha  occ. eigenvalues --   -0.72452  -0.71570  -0.70720  -0.65272  -0.65000
 Alpha  occ. eigenvalues --   -0.63449  -0.62339  -0.59423  -0.57961  -0.56137
 Alpha  occ. eigenvalues --   -0.55497  -0.53802  -0.53326  -0.53082  -0.51307
 Alpha  occ. eigenvalues --   -0.50958  -0.49252  -0.49210  -0.48403  -0.46479
 Alpha  occ. eigenvalues --   -0.45343  -0.45086  -0.44144  -0.43958  -0.42275
 Alpha  occ. eigenvalues --   -0.37585  -0.36588
 Alpha virt. eigenvalues --    0.04706   0.11069   0.16221   0.21192   0.24364
 Alpha virt. eigenvalues --    0.25825   0.27142   0.27866   0.28473   0.28943
 Alpha virt. eigenvalues --    0.29362   0.30830   0.32321   0.32802   0.32967

 Mulliken charges:
               1
     1  C   -0.170179
     2  C   -0.218632
     3  C   -0.170201
     4  C    0.157980
     5  C   -0.170537
     6  C   -0.218574
     7  H    0.226657
     8  H    0.224440
     9  H    0.276242
    10  H    0.275909
    11  H    0.224460
    12  N    0.491381
    13  O   -0.461440
    14  O   -0.459035
    15  C   -0.299171
    16  C   -0.298539
    17  C   -0.474466
    18  H    0.142673
    19  H    0.155128
    20  H    0.148866
    21  H    0.151871
    22  H    0.152457
    23  H    0.153039
    24  H    0.155887
    25  C   -0.298625
    26  C   -0.300154
    27  C   -0.479250
    28  H    0.139517
    29  H    0.166515
    30  H    0.139575
    31  H    0.169226
    32  H    0.168755
    33  H    0.146763
    34  H    0.151465
 Sum of Mulliken charges =  -0.00000

 Dipole moment (field-independent basis, Debye):
    X=              5.4380    Y=              1.8052    Z=              0.5582  Tot=              5.7569
 Quadrupole moment (field-independent basis, Debye-Ang):
   XX=            -71.8760   YY=            -97.4105   ZZ=            -91.1128
   XY=              3.7263   XZ=              0.0593   YZ=              1.7771

 Normal termination of Gaussian 16 at Thu May  6 17:30:59 2021.
