 Gaussian 16, Revision A.03,
 Gaussian 16:  EM64L-G16RevA.03 25-Dec-2016

 -------------
 #p 6-31g* mp2
 -------------

 ------------------------------------------------------
 Input file generated by CHIRIPA (05-May-2021 14:53:12)
 ------------------------------------------------------
 Symbolic Z-matrix:
 Charge =  0 Multiplicity = 1

                         Standard orientation:
 ---------------------------------------------------------------------
 Center     Atomic      Atomic             Coordinates (Angstroms)
 Number     Number       Type             X           Y           Z
 ---------------------------------------------------------------------
      1          6           0        3.839387    0.296048   -0.301376
      2          6           0        5.305186    0.714043   -0.422618
      3          6           0        5.544174    1.708870   -1.558839
      4          1           0        3.510712   -0.145279   -1.252243
      5          1           0        3.222083    1.191040   -0.142257
      6          1           0        5.919696   -0.181613   -0.580078
      7          1           0        5.630465    1.154251    0.528711
      8          1           0        4.955725    2.619029   -1.404117
      9          1           0        5.246599    1.275575   -2.519206
     10          1           0        6.598571    1.994161   -1.627514
     11          6           0        3.584559   -0.698246    0.830071
     12          6           0        2.118760   -1.116241    0.951312
     13          6           0        1.879772   -2.111068    2.087534
     14          1           0        4.201863   -1.593238    0.670952
     15          1           0        3.913234   -0.256920    1.780938
     16          1           0        1.793481   -1.556449   -0.000017
     17          1           0        1.504250   -0.220585    1.108773
     18          1           0        2.177347   -1.677773    3.047901
     19          1           0        2.468221   -3.021227    1.932812
     20          1           0        0.825375   -2.396359    2.156209
     21          6           0       -2.466615   -2.051761   -1.346265
     22          6           0       -3.778854   -1.600941   -1.169317
     23          6           0       -4.030786   -0.378645   -0.539182
     24          6           0       -2.941875    0.370654   -0.096335
     25          6           0       -1.623149   -0.051421   -0.257900
     26          6           0       -1.394840   -1.276928   -0.890795
     27          1           0       -2.280084   -3.002517   -1.836841
     28          1           0       -4.613158   -2.200588   -1.522028
     29          1           0       -5.036699   -0.005733   -0.389195
     30          1           0       -0.812012    0.568446    0.104371
     31          1           0       -0.374691   -1.624536   -1.026852
     32          7           0       -3.196080    1.666344    0.572221
     33          8           0       -2.219407    2.307811    0.953360
     34          8           0       -4.367185    2.015905    0.702437
 ---------------------------------------------------------------------

 SCF Done:  E(RHF) =  -669.535418130     A.U. after   15 cycles
 E2 =    -0.2091920491D+01 EUMP2 =    -0.67162733862015D+03

 The electronic state is 1-A.
 Alpha  occ. eigenvalues --  -20.60730 -20.60724 -15.85781 -11.31121 -11.27697
 Alpha  occ. eigenvalues --  -11.27664 -11.27429 -11.26712 -11.26650 -11.22495
 Alpha  occ. eigenvalues --  -11.21957 -11.21929 -11.21829 -11.21687 -11.21303
 Alpha  occ. eigenvalues --   -1.59804  -1.39359  -1.19293  -1.08977  -1.08694
 Alpha  occ. eigenvalues --   -1.04693  -1.04049  -0.96455  -0.95533  -0.87475
 Alpha  occ. eigenvalues --   -0.86093  -0.82373  -0.80176  -0.78794  -0.77394
 Alpha  occ. eigenvalues --   -0.72001  -0.71127  -0.70408  -0.65633  -0.64944
 Alpha  occ. eigenvalues --   -0.64688  -0.62080  -0.61438  -0.59824  -0.58074
 Alpha  occ. eigenvalues --   -0.55723  -0.55200  -0.53169  -0.53025  -0.52865
 Alpha  occ. eigenvalues --   -0.52804  -0.50387  -0.48766  -0.48758  -0.48438
 Alpha  occ. eigenvalues --   -0.47185  -0.46311  -0.46212  -0.44769  -0.44294
 Alpha  occ. eigenvalues --   -0.37280  -0.36286
 Alpha virt. eigenvalues --    0.05102   0.11343   0.16555   0.19862   0.22738
 Alpha virt. eigenvalues --    0.23904   0.24537   0.25463   0.27490   0.28166
 Alpha virt. eigenvalues --    0.29374   0.29538   0.31335   0.31501   0.31939

 Mulliken charges:
               1
     1  C   -0.299723
     2  C   -0.300066
     3  C   -0.476321
     4  H    0.146304
     5  H    0.152306
     6  H    0.151918
     7  H    0.154173
     8  H    0.157555
     9  H    0.154474
    10  H    0.161649
    11  C   -0.297362
    12  C   -0.307786
    13  C   -0.476563
    14  H    0.150742
    15  H    0.154421
    16  H    0.142621
    17  H    0.154662
    18  H    0.160999
    19  H    0.156054
    20  H    0.161429
    21  C   -0.171892
    22  C   -0.218638
    23  C   -0.170877
    24  C    0.159187
    25  C   -0.176416
    26  C   -0.223339
    27  H    0.225553
    28  H    0.223084
    29  H    0.275310
    30  H    0.279087
    31  H    0.230863
    32  N    0.488100
    33  O   -0.460884
    34  O   -0.460624
 Sum of Mulliken charges =  -0.00000

 Dipole moment (field-independent basis, Debye):
    X=              1.0783    Y=             -4.5368    Z=             -2.2600  Tot=              5.1820
 Quadrupole moment (field-independent basis, Debye-Ang):
   XX=            -94.6653   YY=            -98.6348   ZZ=            -95.0246
   XY=             14.4471   XZ=              7.9887   YZ=              0.6711

 Normal termination of Gaussian 16 at Thu May  6 02:31:37 2021.
