 Gaussian 16, Revision A.03,
 Gaussian 16:  EM64L-G16RevA.03 25-Dec-2016

 -------------
 #p 6-31g* mp2
 -------------

 ------------------------------------------------------
 Input file generated by CHIRIPA (05-May-2021 14:53:17)
 ------------------------------------------------------
 Symbolic Z-matrix:
 Charge =  0 Multiplicity = 1

                         Standard orientation:
 ---------------------------------------------------------------------
 Center     Atomic      Atomic             Coordinates (Angstroms)
 Number     Number       Type             X           Y           Z
 ---------------------------------------------------------------------
      1          6           0       -3.055783   -0.804503    0.926851
      2          6           0       -1.592121   -1.193655    0.716523
      3          6           0       -0.951964   -1.787126    1.971825
      4          1           0       -3.121392   -0.080796    1.750798
      5          1           0       -3.621794   -1.691335    1.243959
      6          1           0       -1.029313   -0.306655    0.398569
      7          1           0       -1.529968   -1.916374   -0.107146
      8          1           0       -1.488032   -2.687576    2.288718
      9          1           0       -0.984532   -1.068711    2.797306
     10          1           0        0.094230   -2.058255    1.799117
     11          6           0       -3.709570   -0.209715   -0.319150
     12          6           0       -5.173232    0.179437   -0.108822
     13          6           0       -5.813389    0.772908   -1.364124
     14          1           0       -3.143559    0.677117   -0.636258
     15          1           0       -3.643961   -0.933422   -1.143097
     16          1           0       -5.235384    0.902156    0.714847
     17          1           0       -5.736040   -0.707563    0.209132
     18          1           0       -5.780821    0.054493   -2.189605
     19          1           0       -5.277321    1.673358   -1.681017
     20          1           0       -6.859583    1.044037   -1.191416
     21          6           0        1.350305    2.429525    0.511681
     22          6           0        0.822824    1.588735   -0.473892
     23          6           0        1.530149    0.459346   -0.896645
     24          6           0        2.767661    0.199602   -0.309800
     25          6           0        3.319802    1.018152    0.674278
     26          6           0        2.594916    2.142058    1.081615
     27          1           0        0.794017    3.304732    0.834098
     28          1           0       -0.143524    1.809520   -0.918269
     29          1           0        1.145261   -0.208464   -1.657767
     30          1           0        4.285566    0.772073    1.098732
     31          1           0        3.007025    2.793256    1.847221
     32          7           0        3.525770   -0.993129   -0.749190
     33          8           0        4.613943   -1.200021   -0.216542
     34          8           0        3.017450   -1.698514   -1.617912
 ---------------------------------------------------------------------

 SCF Done:  E(RHF) =  -669.534688458     A.U. after   15 cycles
 E2 =    -0.2093160117D+01 EUMP2 =    -0.67162784857482D+03

 The electronic state is 1-A.
 Alpha  occ. eigenvalues --  -20.60806 -20.60801 -15.85862 -11.31245 -11.27814
 Alpha  occ. eigenvalues --  -11.27810 -11.27566 -11.26830 -11.26819 -11.22036
 Alpha  occ. eigenvalues --  -11.21906 -11.21776 -11.21704 -11.21485 -11.21182
 Alpha  occ. eigenvalues --   -1.59882  -1.39434  -1.19430  -1.08837  -1.08800
 Alpha  occ. eigenvalues --   -1.04845  -1.03841  -0.96299  -0.95646  -0.87313
 Alpha  occ. eigenvalues --   -0.86228  -0.82489  -0.79931  -0.78663  -0.77510
 Alpha  occ. eigenvalues --   -0.72078  -0.71207  -0.70525  -0.65490  -0.65076
 Alpha  occ. eigenvalues --   -0.64818  -0.62187  -0.61250  -0.59674  -0.57921
 Alpha  occ. eigenvalues --   -0.55606  -0.55329  -0.53207  -0.52943  -0.52903
 Alpha  occ. eigenvalues --   -0.52722  -0.50245  -0.48840  -0.48831  -0.48239
 Alpha  occ. eigenvalues --   -0.46972  -0.46186  -0.46114  -0.44834  -0.44119
 Alpha  occ. eigenvalues --   -0.37406  -0.36318
 Alpha virt. eigenvalues --    0.05004   0.11129   0.16383   0.20255   0.22734
 Alpha virt. eigenvalues --    0.24038   0.24943   0.26470   0.27469   0.28286
 Alpha virt. eigenvalues --    0.29037   0.30875   0.31295   0.31598   0.31898

 Mulliken charges:
               1
     1  C   -0.297762
     2  C   -0.308538
     3  C   -0.474650
     4  H    0.147817
     5  H    0.151970
     6  H    0.153893
     7  H    0.153461
     8  H    0.156624
     9  H    0.152823
    10  H    0.163660
    11  C   -0.297357
    12  C   -0.299705
    13  C   -0.475705
    14  H    0.139410
    15  H    0.152027
    16  H    0.151327
    17  H    0.154605
    18  H    0.156690
    19  H    0.152553
    20  H    0.161821
    21  C   -0.171847
    22  C   -0.221372
    23  C   -0.166927
    24  C    0.157992
    25  C   -0.170842
    26  C   -0.218365
    27  H    0.225864
    28  H    0.226055
    29  H    0.277289
    30  H    0.275906
    31  H    0.223724
    32  N    0.487925
    33  O   -0.460257
    34  O   -0.460110
 Sum of Mulliken charges =  -0.00000

 Dipole moment (field-independent basis, Debye):
    X=             -2.6397    Y=              4.1567    Z=              1.5614  Tot=              5.1657
 Quadrupole moment (field-independent basis, Debye-Ang):
   XX=           -107.2665   YY=            -92.6723   ZZ=            -94.7438
   XY=             12.8812   XZ=              7.4868   YZ=              0.5584

 Normal termination of Gaussian 16 at Thu May  6 04:23:08 2021.
