 Gaussian 16, Revision A.03,
 Gaussian 16:  EM64L-G16RevA.03 25-Dec-2016

 -------------
 #p 6-31g* mp2
 -------------

 ------------------------------------------------------
 Input file generated by CHIRIPA (05-May-2021 14:51:14)
 ------------------------------------------------------
 Symbolic Z-matrix:
 Charge =  0 Multiplicity = 1

                         Standard orientation:
 ---------------------------------------------------------------------
 Center     Atomic      Atomic             Coordinates (Angstroms)
 Number     Number       Type             X           Y           Z
 ---------------------------------------------------------------------
      1          6           0       -2.771571    0.413812   -0.039072
      2          6           0       -4.156635    1.061078   -0.013999
      3          6           0       -4.097290    2.587286   -0.084444
      4          1           0       -2.178851    0.798355    0.802210
      5          1           0       -2.248232    0.719416   -0.955652
      6          1           0       -4.677735    0.753237    0.901591
      7          1           0       -4.746192    0.674806   -0.855327
      8          1           0       -3.600851    2.911438   -1.004810
      9          1           0       -3.532005    2.990316    0.762091
     10          1           0       -5.098348    3.029296   -0.065170
     11          6           0       -2.814394   -1.111647    0.030695
     12          6           0       -1.429329   -1.758913    0.005622
     13          6           0       -1.488674   -3.285120    0.076067
     14          1           0       -3.337733   -1.417250    0.947275
     15          1           0       -3.407114   -1.496190   -0.810587
     16          1           0       -0.839773   -1.372640    0.846950
     17          1           0       -0.908230   -1.451072   -0.909968
     18          1           0       -2.053960   -3.688150   -0.770468
     19          1           0       -1.985114   -3.609273    0.996433
     20          1           0       -0.487617   -3.727131    0.056793
     21          6           0        2.916789   -0.311313   -0.359404
     22          6           0        2.579486   -1.540882    0.484619
     23          6           0        2.832422   -2.854120   -0.256477
     24          1           0        2.321542   -0.333586   -1.282513
     25          1           0        3.970743   -0.363405   -0.665772
     26          1           0        1.526851   -1.485792    0.790461
     27          1           0        3.175464   -1.515579    1.405914
     28          1           0        3.884566   -2.935497   -0.547975
     29          1           0        2.226585   -2.905541   -1.166926
     30          1           0        2.584676   -3.720112    0.365247
     31          6           0        2.669177    1.009148    0.367782
     32          6           0        3.006479    2.238716   -0.476242
     33          6           0        2.753543    3.551955    0.264854
     34          1           0        1.615222    1.061240    0.674149
     35          1           0        3.264423    1.031422    1.290890
     36          1           0        2.410500    2.213414   -1.397537
     37          1           0        4.059115    2.183627   -0.782083
     38          1           0        3.359380    3.603376    1.175304
     39          1           0        1.701399    3.633331    0.556352
     40          1           0        3.001288    4.417946   -0.356870
 ---------------------------------------------------------------------

 SCF Done:  E(RHF) =  -470.733106866     A.U. after   11 cycles
 E2 =    -0.1583720650D+01 EUMP2 =    -0.47231682751613D+03

 The electronic state is 1-A.
 Alpha  occ. eigenvalues --  -11.21678 -11.21651 -11.21573 -11.21498 -11.21470
 Alpha  occ. eigenvalues --  -11.21410 -11.21363 -11.21303 -11.21111 -11.21099
 Alpha  occ. eigenvalues --  -11.21055 -11.21046  -1.08502  -1.08380  -1.03611
 Alpha  occ. eigenvalues --   -1.03469  -0.96042  -0.95934  -0.87057  -0.86951
 Alpha  occ. eigenvalues --   -0.79724  -0.79503  -0.78358  -0.78157  -0.65141
 Alpha  occ. eigenvalues --   -0.65014  -0.61035  -0.60913  -0.59455  -0.59226
 Alpha  occ. eigenvalues --   -0.57688  -0.57490  -0.55315  -0.55221  -0.52757
 Alpha  occ. eigenvalues --   -0.52606  -0.52452  -0.52364  -0.49985  -0.49894
 Alpha  occ. eigenvalues --   -0.48120  -0.47782  -0.46852  -0.46472  -0.46035
 Alpha  occ. eigenvalues --   -0.45808  -0.45705  -0.45333  -0.43847  -0.43726
 Alpha virt. eigenvalues --    0.20359   0.22874   0.23485   0.24784   0.25484
 Alpha virt. eigenvalues --    0.26064   0.26871   0.27709   0.28723   0.29448
 Alpha virt. eigenvalues --    0.30566   0.30809   0.31566   0.31788   0.32625

 Mulliken charges:
               1
     1  C   -0.298594
     2  C   -0.299662
     3  C   -0.475792
     4  H    0.149320
     5  H    0.149258
     6  H    0.152169
     7  H    0.152158
     8  H    0.155190
     9  H    0.155209
    10  H    0.160523
    11  C   -0.297446
    12  C   -0.303540
    13  C   -0.479784
    14  H    0.149872
    15  H    0.149924
    16  H    0.154303
    17  H    0.151919
    18  H    0.155456
    19  H    0.155250
    20  H    0.164921
    21  C   -0.297736
    22  C   -0.308132
    23  C   -0.476394
    24  H    0.149394
    25  H    0.149191
    26  H    0.162212
    27  H    0.151153
    28  H    0.155098
    29  H    0.155475
    30  H    0.159727
    31  C   -0.298907
    32  C   -0.299493
    33  C   -0.475761
    34  H    0.149996
    35  H    0.149358
    36  H    0.151834
    37  H    0.151814
    38  H    0.155002
    39  H    0.155368
    40  H    0.160147
 Sum of Mulliken charges =  -0.00000

 Dipole moment (field-independent basis, Debye):
    X=             -0.0430    Y=             -0.0110    Z=              0.0046  Tot=              0.0447
 Quadrupole moment (field-independent basis, Debye-Ang):
   XX=            -83.9631   YY=            -87.0712   ZZ=            -83.7686
   XY=              0.2850   XZ=              0.4294   YZ=             -0.3299

 Normal termination of Gaussian 16 at Thu May  6 04:01:24 2021.
