 Gaussian 16, Revision A.03,
 Gaussian 16:  EM64L-G16RevA.03 25-Dec-2016

 -------------
 #p 6-31g* mp2
 -------------

 ------------------------------------------------------
 Input file generated by CHIRIPA (05-May-2021 14:53:15)
 ------------------------------------------------------
 Symbolic Z-matrix:
 Charge =  0 Multiplicity = 1

                         Standard orientation:
 ---------------------------------------------------------------------
 Center     Atomic      Atomic             Coordinates (Angstroms)
 Number     Number       Type             X           Y           Z
 ---------------------------------------------------------------------
      1          6           0        4.077778   -0.104178   -0.291122
      2          6           0        4.434742   -1.212483    0.699950
      3          6           0        5.335643   -2.285440    0.087631
      4          1           0        3.580327   -0.548089   -1.164294
      5          1           0        5.002843    0.359608   -0.660652
      6          1           0        3.509232   -1.673117    1.068549
      7          1           0        4.931229   -0.765859    1.570952
      8          1           0        6.274505   -1.845483   -0.263905
      9          1           0        4.844429   -2.757896   -0.769162
     10          1           0        5.578426   -3.067864    0.813392
     11          6           0        3.177612    0.975892    0.306269
     12          6           0        2.820649    2.084197   -0.684802
     13          6           0        1.919748    3.157154   -0.072483
     14          1           0        2.252547    0.512106    0.675799
     15          1           0        3.675064    1.419803    1.179442
     16          1           0        2.324161    1.637573   -1.555804
     17          1           0        3.746158    2.544831   -1.053401
     18          1           0        2.410962    3.629610    0.784310
     19          1           0        0.980886    2.717197    0.279053
     20          1           0        1.676965    3.939578   -0.798244
     21          6           0       -5.313546    0.053260    0.245861
     22          6           0       -4.788156   -0.332469   -0.991757
     23          6           0       -3.415962   -0.553393   -1.142835
     24          6           0       -2.594437   -0.378582   -0.030258
     25          6           0       -3.087754    0.005049    1.215839
     26          6           0       -4.463168    0.220494    1.343773
     27          1           0       -6.380751    0.222751    0.354233
     28          1           0       -5.446192   -0.463102   -1.846139
     29          1           0       -2.982626   -0.852613   -2.089463
     30          1           0       -2.406718    0.127287    2.049304
     31          1           0       -4.868405    0.519994    2.306128
     32          7           0       -1.140052   -0.609564   -0.177948
     33          8           0       -0.437456   -0.448814    0.817620
     34          8           0       -0.730241   -0.946983   -1.286478
 ---------------------------------------------------------------------

 SCF Done:  E(RHF) =  -669.536869932     A.U. after   15 cycles
 E2 =    -0.2091499640D+01 EUMP2 =    -0.67162836957216D+03

 The electronic state is 1-A.
 Alpha  occ. eigenvalues --  -20.61146 -20.61124 -15.86145 -11.31393 -11.27945
 Alpha  occ. eigenvalues --  -11.27941 -11.27671 -11.26936 -11.26926 -11.20306
 Alpha  occ. eigenvalues --  -11.20276 -11.20015 -11.20010 -11.19944 -11.19664
 Alpha  occ. eigenvalues --   -1.60182  -1.39740  -1.19553  -1.08972  -1.07004
 Alpha  occ. eigenvalues --   -1.04937  -1.02278  -0.95825  -0.94732  -0.86341
 Alpha  occ. eigenvalues --   -0.85764  -0.82661  -0.78337  -0.77723  -0.76797
 Alpha  occ. eigenvalues --   -0.72364  -0.71486  -0.70661  -0.65209  -0.64941
 Alpha  occ. eigenvalues --   -0.63603  -0.62284  -0.59670  -0.58116  -0.56355
 Alpha  occ. eigenvalues --   -0.55446  -0.54011  -0.53272  -0.53028  -0.51503
 Alpha  occ. eigenvalues --   -0.51184  -0.49193  -0.49121  -0.48629  -0.46671
 Alpha  occ. eigenvalues --   -0.45410  -0.45131  -0.44370  -0.44083  -0.42473
 Alpha  occ. eigenvalues --   -0.37527  -0.36534
 Alpha virt. eigenvalues --    0.04784   0.11122   0.16285   0.21255   0.24310
 Alpha virt. eigenvalues --    0.25454   0.27188   0.27907   0.28308   0.28910
 Alpha virt. eigenvalues --    0.29272   0.30848   0.32288   0.32601   0.32972

 Mulliken charges:
               1
     1  C   -0.297240
     2  C   -0.300331
     3  C   -0.475162
     4  H    0.154986
     5  H    0.142103
     6  H    0.159799
     7  H    0.146918
     8  H    0.151487
     9  H    0.155776
    10  H    0.156140
    11  C   -0.311155
    12  C   -0.298370
    13  C   -0.475913
    14  H    0.180371
    15  H    0.140506
    16  H    0.156306
    17  H    0.145263
    18  H    0.151034
    19  H    0.157319
    20  H    0.153777
    21  C   -0.170295
    22  C   -0.218598
    23  C   -0.170405
    24  C    0.157697
    25  C   -0.170633
    26  C   -0.218527
    27  H    0.226414
    28  H    0.224188
    29  H    0.276004
    30  H    0.276101
    31  H    0.224277
    32  N    0.489532
    33  O   -0.460718
    34  O   -0.458652
 Sum of Mulliken charges =  -0.00000

 Dipole moment (field-independent basis, Debye):
    X=             -5.5720    Y=              0.6343    Z=              0.5212  Tot=              5.6321
 Quadrupole moment (field-independent basis, Debye-Ang):
   XX=            -69.8538   YY=            -97.3025   ZZ=            -90.1968
   XY=              0.6271   XZ=             -0.0951   YZ=              1.0909

 Normal termination of Gaussian 16 at Thu May  6 01:06:49 2021.
