 Gaussian 16, Revision A.03,
 Gaussian 16:  EM64L-G16RevA.03 25-Dec-2016

 -------------
 #p 6-31g* mp2
 -------------

 ------------------------------------------------------
 Input file generated by CHIRIPA (05-May-2021 14:55:19)
 ------------------------------------------------------
 Symbolic Z-matrix:
 Charge =  0 Multiplicity = 1

                         Standard orientation:
 ---------------------------------------------------------------------
 Center     Atomic      Atomic             Coordinates (Angstroms)
 Number     Number       Type             X           Y           Z
 ---------------------------------------------------------------------
      1          6           0       -1.761614    1.486700   -1.447935
      2          6           0       -1.229488    0.409539   -0.731635
      3          6           0       -2.070992   -0.476354   -0.052213
      4          6           0       -3.445960   -0.254220   -0.110599
      5          6           0       -4.006452    0.809747   -0.815662
      6          6           0       -3.145958    1.683020   -1.487592
      7          1           0       -1.100537    2.169981   -1.972816
      8          1           0       -0.154785    0.254620   -0.699091
      9          1           0       -1.685792   -1.318406    0.509915
     10          1           0       -5.081948    0.938317   -0.829709
     11          1           0       -3.562019    2.518704   -2.043084
     12          7           0       -4.346875   -1.185395    0.604709
     13          8           0       -5.554696   -0.967862    0.537742
     14          8           0       -3.828132   -2.115152    1.218790
     15          6           0        4.348425   -0.552736   -0.027572
     16          6           0        5.799878   -0.755677   -0.463555
     17          6           0        6.039516   -2.124157   -1.102015
     18          1           0        4.071563   -1.343841    0.682673
     19          1           0        3.690839   -0.671642   -0.899831
     20          1           0        6.454641   -0.635057    0.409000
     21          1           0        6.073377    0.036113   -1.172698
     22          1           0        5.410299   -2.250976   -1.988922
     23          1           0        5.793729   -2.925960   -0.398237
     24          1           0        7.083544   -2.247965   -1.406211
     25          6           0        4.093119    0.810659    0.612507
     26          6           0        2.641665    1.013599    1.048491
     27          6           0        2.402029    2.382079    1.686950
     28          1           0        4.750704    0.929564    1.484767
     29          1           0        4.369980    1.601763   -0.097737
     30          1           0        2.368168    0.221808    1.757634
     31          1           0        1.986903    0.892980    0.175935
     32          1           0        2.647814    3.183882    0.983172
     33          1           0        3.031246    2.508899    2.573857
     34          1           0        1.358000    2.505888    1.991146
 ---------------------------------------------------------------------

 SCF Done:  E(RHF) =  -669.535525526     A.U. after   15 cycles
 E2 =    -0.2091016656D+01 EUMP2 =    -0.67162654218250D+03

 The electronic state is 1-A.
 Alpha  occ. eigenvalues --  -20.60737 -20.60732 -15.85790 -11.31151 -11.27723
 Alpha  occ. eigenvalues --  -11.27710 -11.27463 -11.26740 -11.26698 -11.22544
 Alpha  occ. eigenvalues --  -11.22125 -11.22102 -11.22015 -11.21805 -11.21493
 Alpha  occ. eigenvalues --   -1.59813  -1.39366  -1.19323  -1.09125  -1.08720
 Alpha  occ. eigenvalues --   -1.04725  -1.04192  -0.96609  -0.95556  -0.87626
 Alpha  occ. eigenvalues --   -0.86127  -0.82388  -0.80285  -0.78938  -0.77432
 Alpha  occ. eigenvalues --   -0.72009  -0.71136  -0.70435  -0.65781  -0.64975
 Alpha  occ. eigenvalues --   -0.64732  -0.62115  -0.61557  -0.59984  -0.58225
 Alpha  occ. eigenvalues --   -0.55889  -0.55231  -0.53309  -0.53059  -0.53030
 Alpha  occ. eigenvalues --   -0.52824  -0.50550  -0.48786  -0.48764  -0.48557
 Alpha  occ. eigenvalues --   -0.47317  -0.46462  -0.46387  -0.44773  -0.44442
 Alpha  occ. eigenvalues --   -0.37307  -0.36324
 Alpha virt. eigenvalues --    0.05099   0.11287   0.16578   0.19879   0.22539
 Alpha virt. eigenvalues --    0.23785   0.24925   0.26329   0.27403   0.28288
 Alpha virt. eigenvalues --    0.28594   0.30256   0.31037   0.31357   0.32069

 Mulliken charges:
               1
     1  C   -0.172661
     2  C   -0.224050
     3  C   -0.172959
     4  C    0.158792
     5  C   -0.171209
     6  C   -0.218571
     7  H    0.225245
     8  H    0.232949
     9  H    0.276067
    10  H    0.275460
    11  H    0.223233
    12  N    0.488042
    13  O   -0.460610
    14  O   -0.460455
    15  C   -0.298538
    16  C   -0.300070
    17  C   -0.476155
    18  H    0.151532
    19  H    0.145333
    20  H    0.153770
    21  H    0.152160
    22  H    0.154913
    23  H    0.156580
    24  H    0.162038
    25  C   -0.297807
    26  C   -0.304015
    27  C   -0.476571
    28  H    0.153323
    29  H    0.149943
    30  H    0.155336
    31  H    0.142153
    32  H    0.154529
    33  H    0.159614
    34  H    0.162657
 Sum of Mulliken charges =  -0.00000

 Dipole moment (field-independent basis, Debye):
    X=              3.3582    Y=              3.2959    Z=             -2.4400  Tot=              5.3004
 Quadrupole moment (field-independent basis, Debye-Ang):
   XX=           -113.0688   YY=            -96.2118   ZZ=            -93.6646
   XY=            -14.4146   XZ=             10.4290   YZ=             -1.4575

 Normal termination of Gaussian 16 at Wed May  5 20:29:58 2021.
