 Gaussian 16, Revision A.03,
 Gaussian 16:  EM64L-G16RevA.03 25-Dec-2016

 -------------
 #p 6-31g* mp2
 -------------

 ------------------------------------------------------
 Input file generated by CHIRIPA (05-May-2021 14:57:22)
 ------------------------------------------------------
 Symbolic Z-matrix:
 Charge =  0 Multiplicity = 1

                         Standard orientation:
 ---------------------------------------------------------------------
 Center     Atomic      Atomic             Coordinates (Angstroms)
 Number     Number       Type             X           Y           Z
 ---------------------------------------------------------------------
      1          6           0        2.190174    1.941249   -0.301611
      2          6           0        1.689191    0.635296   -0.306416
      3          6           0        2.556869   -0.458301   -0.230730
      4          6           0        3.925969   -0.208312   -0.150968
      5          6           0        4.455714    1.081111   -0.144050
      6          6           0        3.569405    2.159604   -0.220586
      7          1           0        1.508905    2.784915   -0.360736
      8          1           0        0.618531    0.462719   -0.369251
      9          1           0        2.196029   -1.479677   -0.232570
     10          1           0        5.527935    1.221533   -0.080472
     11          1           0        3.961305    3.172740   -0.216657
     12          7           0        4.854402   -1.358059   -0.070392
     13          8           0        6.056415   -1.111129   -0.000916
     14          8           0        4.362515   -2.484391   -0.078240
     15          6           0       -5.696961   -1.231016   -0.885523
     16          6           0       -5.077216   -1.736009    0.262264
     17          6           0       -4.010298   -1.051934    0.852414
     18          6           0       -3.586945    0.139649    0.265735
     19          6           0       -4.183904    0.668438   -0.877642
     20          6           0       -5.249117   -0.032517   -1.450817
     21          1           0       -6.525107   -1.768979   -1.337373
     22          1           0       -5.422904   -2.666547    0.703449
     23          1           0       -3.512414   -1.420248    1.741163
     24          1           0       -3.817040    1.598492   -1.294570
     25          1           0       -5.728523    0.362040   -2.342186
     26          7           0       -2.458350    0.872784    0.881516
     27          8           0       -2.104172    1.920504    0.345345
     28          8           0       -1.949304    0.385813    1.888675
 ---------------------------------------------------------------------

 SCF Done:  E(RHF) =  -868.339899486     A.U. after   16 cycles
 E2 =    -0.2598568930D+01 EUMP2 =    -0.87093846841597D+03

 The electronic state is 1-A.
 Alpha  occ. eigenvalues --  -20.61888 -20.61848 -20.60083 -20.60078 -15.86891
 Alpha  occ. eigenvalues --  -15.85129 -11.31961 -11.30287 -11.28505 -11.28473
 Alpha  occ. eigenvalues --  -11.28163 -11.27433 -11.27409 -11.26858 -11.26803
 Alpha  occ. eigenvalues --  -11.26402 -11.25808 -11.25666  -1.60951  -1.59163
 Alpha  occ. eigenvalues --   -1.40503  -1.38723  -1.20105  -1.18420  -1.09554
 Alpha  occ. eigenvalues --   -1.07825  -1.05455  -1.03796  -0.96434  -0.94704
 Alpha  occ. eigenvalues --   -0.86867  -0.85182  -0.83270  -0.81555  -0.78357
 Alpha  occ. eigenvalues --   -0.76655  -0.73102  -0.72280  -0.71352  -0.71196
 Alpha  occ. eigenvalues --   -0.70483  -0.69466  -0.65752  -0.65446  -0.64058
 Alpha  occ. eigenvalues --   -0.63767  -0.62803  -0.61155  -0.55956  -0.54209
 Alpha  occ. eigenvalues --   -0.53807  -0.53536  -0.52131  -0.51877  -0.49882
 Alpha  occ. eigenvalues --   -0.49833  -0.48120  -0.48088  -0.45963  -0.44176
 Alpha  occ. eigenvalues --   -0.38066  -0.37045  -0.36344  -0.35401
 Alpha virt. eigenvalues --    0.04117   0.05877   0.10613   0.12269   0.15675
 Alpha virt. eigenvalues --    0.17446   0.20802   0.22441   0.26747   0.27571
 Alpha virt. eigenvalues --    0.28166   0.29372   0.30429   0.31879   0.31906

 Mulliken charges:
               1
     1  C   -0.170863
     2  C   -0.214237
     3  C   -0.172478
     4  C    0.157727
     5  C   -0.172474
     6  C   -0.219478
     7  H    0.234218
     8  H    0.228076
     9  H    0.271731
    10  H    0.272293
    11  H    0.220640
    12  N    0.488331
    13  O   -0.463030
    14  O   -0.463291
    15  C   -0.169486
    16  C   -0.218393
    17  C   -0.170802
    18  C    0.155961
    19  C   -0.171224
    20  C   -0.218379
    21  H    0.228682
    22  H    0.226699
    23  H    0.277449
    24  H    0.274764
    25  H    0.225691
    26  N    0.485360
    27  O   -0.467572
    28  O   -0.455914
 Sum of Mulliken charges =  -0.00000

 Dipole moment (field-independent basis, Debye):
    X=             -7.7901    Y=              1.4781    Z=             -2.4119  Tot=              8.2878
 Quadrupole moment (field-independent basis, Debye-Ang):
   XX=            -99.8873   YY=           -103.4557   ZZ=           -104.4935
   XY=             28.7824   XZ=              6.9266   YZ=             -4.3327

 Normal termination of Gaussian 16 at Thu May  6 01:44:42 2021.
