 Gaussian 16, Revision A.03,
 Gaussian 16:  EM64L-G16RevA.03 25-Dec-2016

 -------------
 #p 6-31g* mp2
 -------------

 ------------------------------------------------------
 Input file generated by CHIRIPA (05-May-2021 14:55:20)
 ------------------------------------------------------
 Symbolic Z-matrix:
 Charge =  0 Multiplicity = 1

                         Standard orientation:
 ---------------------------------------------------------------------
 Center     Atomic      Atomic             Coordinates (Angstroms)
 Number     Number       Type             X           Y           Z
 ---------------------------------------------------------------------
      1          6           0        1.152368    0.555764    1.226032
      2          6           0        2.341612    0.628441    1.958793
      3          6           0        3.554265    0.234936    1.385058
      4          6           0        3.541048   -0.228400    0.070358
      5          6           0        2.372769   -0.312547   -0.685508
      6          6           0        1.171708    0.086330   -0.091457
      7          1           0        0.214852    0.863535    1.679615
      8          1           0        2.329596    0.992605    2.982162
      9          1           0        4.489581    0.280842    1.929573
     10          1           0        2.416407   -0.679828   -1.703653
     11          1           0        0.249660    0.028802   -0.662914
     12          7           0        4.818694   -0.647829   -0.547784
     13          8           0        4.780319   -1.052429   -1.707725
     14          8           0        5.834295   -0.564037    0.139362
     15          6           0       -3.792146    0.542208   -0.717701
     16          6           0       -2.977950    1.681227   -0.103123
     17          6           0       -2.040638    2.348219   -1.110279
     18          1           0       -3.105595   -0.207585   -1.134116
     19          1           0       -4.377387    0.932993   -1.561604
     20          1           0       -2.395476    1.288695    0.740239
     21          1           0       -3.666519    2.428302    0.312049
     22          1           0       -2.609148    2.766457   -1.947220
     23          1           0       -1.330884    1.620375   -1.516597
     24          1           0       -1.468319    3.159561   -0.649806
     25          6           0       -4.733873   -0.134470    0.276778
     26          6           0       -5.548069   -1.273489   -0.337799
     27          6           0       -6.485382   -1.940482    0.669356
     28          1           0       -4.148631   -0.525256    1.120683
     29          1           0       -5.420424    0.615322    0.693194
     30          1           0       -4.859500   -2.020565   -0.752970
     31          1           0       -6.130543   -0.880958   -1.181161
     32          1           0       -7.195134   -1.212637    1.075675
     33          1           0       -5.916870   -2.358720    1.506299
     34          1           0       -7.057700   -2.751824    0.208884
 ---------------------------------------------------------------------

 SCF Done:  E(RHF) =  -669.535227610     A.U. after   15 cycles
 E2 =    -0.2091647726D+01 EUMP2 =    -0.67162687533608D+03

 The electronic state is 1-A.
 Alpha  occ. eigenvalues --  -20.60740 -20.60735 -15.85794 -11.31158 -11.27730
 Alpha  occ. eigenvalues --  -11.27723 -11.27465 -11.26743 -11.26718 -11.22774
 Alpha  occ. eigenvalues --  -11.22357 -11.22244 -11.22184 -11.22160 -11.21601
 Alpha  occ. eigenvalues --   -1.59816  -1.39370  -1.19331  -1.09331  -1.08724
 Alpha  occ. eigenvalues --   -1.04739  -1.04404  -0.96837  -0.95559  -0.87851
 Alpha  occ. eigenvalues --   -0.86133  -0.82396  -0.80483  -0.79107  -0.77445
 Alpha  occ. eigenvalues --   -0.72013  -0.71139  -0.70445  -0.66017  -0.64981
 Alpha  occ. eigenvalues --   -0.64751  -0.62206  -0.61675  -0.60218  -0.58438
 Alpha  occ. eigenvalues --   -0.56135  -0.55241  -0.53523  -0.53271  -0.53058
 Alpha  occ. eigenvalues --   -0.52810  -0.50768  -0.48805  -0.48768  -0.48747
 Alpha  occ. eigenvalues --   -0.47533  -0.46646  -0.46562  -0.44775  -0.44643
 Alpha  occ. eigenvalues --   -0.37305  -0.36334
 Alpha virt. eigenvalues --    0.05093   0.11265   0.16566   0.18197   0.22686
 Alpha virt. eigenvalues --    0.23863   0.24396   0.25414   0.27075   0.28085
 Alpha virt. eigenvalues --    0.28799   0.29581   0.30929   0.31692   0.31749

 Mulliken charges:
               1
     1  C   -0.174599
     2  C   -0.218890
     3  C   -0.170835
     4  C    0.158626
     5  C   -0.171945
     6  C   -0.221221
     7  H    0.228857
     8  H    0.223452
     9  H    0.275476
    10  H    0.275612
    11  H    0.227941
    12  N    0.488046
    13  O   -0.460472
    14  O   -0.460541
    15  C   -0.298295
    16  C   -0.303293
    17  C   -0.478100
    18  H    0.145944
    19  H    0.154080
    20  H    0.142861
    21  H    0.157695
    22  H    0.161855
    23  H    0.149182
    24  H    0.163726
    25  C   -0.298490
    26  C   -0.300315
    27  C   -0.476193
    28  H    0.147890
    29  H    0.151742
    30  H    0.152516
    31  H    0.153653
    32  H    0.156063
    33  H    0.155417
    34  H    0.162557
 Sum of Mulliken charges =  -0.00000

 Dipole moment (field-independent basis, Debye):
    X=             -4.7347    Y=              1.5325    Z=              2.1400  Tot=              5.4172
 Quadrupole moment (field-independent basis, Debye-Ang):
   XX=           -124.9451   YY=            -95.5918   ZZ=            -91.3263
   XY=              5.8777   XZ=             10.6141   YZ=              0.8152

 Normal termination of Gaussian 16 at Thu May  6 01:22:38 2021.
