 Gaussian 16, Revision A.03,
 Gaussian 16:  EM64L-G16RevA.03 25-Dec-2016

 -------------
 #p 6-31g* mp2
 -------------

 ------------------------------------------------------
 Input file generated by CHIRIPA (05-May-2021 14:53:14)
 ------------------------------------------------------
 Symbolic Z-matrix:
 Charge =  0 Multiplicity = 1

                         Standard orientation:
 ---------------------------------------------------------------------
 Center     Atomic      Atomic             Coordinates (Angstroms)
 Number     Number       Type             X           Y           Z
 ---------------------------------------------------------------------
      1          6           0       -3.381216    0.360602    0.173685
      2          6           0       -2.943270    1.450349    1.152787
      3          6           0       -1.475850    1.844141    0.981318
      4          1           0       -2.744292   -0.523998    0.310639
      5          1           0       -3.212379    0.711264   -0.853897
      6          1           0       -3.114171    1.098275    2.178191
      7          1           0       -3.581435    2.332388    1.013618
      8          1           0       -1.293662    2.220416   -0.030525
      9          1           0       -0.823744    0.979291    1.140665
     10          1           0       -1.184001    2.624443    1.691116
     11          6           0       -4.845759   -0.043789    0.332768
     12          6           0       -5.283705   -1.133537   -0.646333
     13          6           0       -6.751125   -1.527329   -0.474865
     14          1           0       -5.014596   -0.394451    1.360351
     15          1           0       -5.482683    0.840810    0.195814
     16          1           0       -4.645540   -2.015576   -0.507164
     17          1           0       -5.112804   -0.781463   -1.671737
     18          1           0       -7.403232   -0.662478   -0.634212
     19          1           0       -6.933313   -1.903603    0.536978
     20          1           0       -7.042974   -2.307631   -1.184662
     21          6           0        2.004907    1.951648   -0.970840
     22          6           0        3.326646    2.037898   -0.521295
     23          6           0        4.006173    0.894508   -0.090654
     24          6           0        3.330520   -0.324397   -0.123102
     25          6           0        2.013859   -0.442707   -0.565480
     26          6           0        1.353881    0.713804   -0.991461
     27          1           0        1.484628    2.844958   -1.303562
     28          1           0        3.834741    2.997894   -0.504178
     29          1           0        5.029611    0.932711    0.262236
     30          1           0        1.533696   -1.413702   -0.570941
     31          1           0        0.327422    0.643826   -1.340073
     32          7           0        4.039557   -1.541798    0.330332
     33          8           0        3.422076   -2.603815    0.291951
     34          8           0        5.199356   -1.410928    0.715529
 ---------------------------------------------------------------------

 SCF Done:  E(RHF) =  -669.534911347     A.U. after   15 cycles
 E2 =    -0.2092003674D+01 EUMP2 =    -0.67162691502100D+03

 The electronic state is 1-A.
 Alpha  occ. eigenvalues --  -20.60730 -20.60725 -15.85782 -11.31136 -11.27686
 Alpha  occ. eigenvalues --  -11.27674 -11.27413 -11.26717 -11.26661 -11.22243
 Alpha  occ. eigenvalues --  -11.22074 -11.22022 -11.21871 -11.21858 -11.21395
 Alpha  occ. eigenvalues --   -1.59805  -1.39359  -1.19299  -1.09009  -1.08695
 Alpha  occ. eigenvalues --   -1.04706  -1.04085  -0.96556  -0.95533  -0.87584
 Alpha  occ. eigenvalues --   -0.86090  -0.82368  -0.80164  -0.78823  -0.77413
 Alpha  occ. eigenvalues --   -0.72000  -0.71128  -0.70403  -0.65633  -0.64950
 Alpha  occ. eigenvalues --   -0.64718  -0.62068  -0.61478  -0.59918  -0.58161
 Alpha  occ. eigenvalues --   -0.55853  -0.55193  -0.53364  -0.53194  -0.52867
 Alpha  occ. eigenvalues --   -0.52606  -0.50497  -0.48771  -0.48757  -0.48441
 Alpha  occ. eigenvalues --   -0.47190  -0.46355  -0.46272  -0.44767  -0.44343
 Alpha  occ. eigenvalues --   -0.37249  -0.36264
 Alpha virt. eigenvalues --    0.05091   0.11330   0.16547   0.20155   0.22567
 Alpha virt. eigenvalues --    0.23882   0.25632   0.26344   0.27032   0.27953
 Alpha virt. eigenvalues --    0.28914   0.30252   0.30963   0.31487   0.31656

 Mulliken charges:
               1
     1  C   -0.299451
     2  C   -0.300070
     3  C   -0.476963
     4  H    0.148976
     5  H    0.144790
     6  H    0.155975
     7  H    0.152963
     8  H    0.142752
     9  H    0.160622
    10  H    0.163372
    11  C   -0.298384
    12  C   -0.300263
    13  C   -0.476078
    14  H    0.152066
    15  H    0.150605
    16  H    0.152965
    17  H    0.150981
    18  H    0.155466
    19  H    0.156519
    20  H    0.161668
    21  C   -0.171065
    22  C   -0.218520
    23  C   -0.171506
    24  C    0.158993
    25  C   -0.174693
    26  C   -0.214059
    27  H    0.225288
    28  H    0.223163
    29  H    0.275268
    30  H    0.275043
    31  H    0.226779
    32  N    0.488061
    33  O   -0.460726
    34  O   -0.460537
 Sum of Mulliken charges =  -0.00000

 Dipole moment (field-independent basis, Debye):
    X=             -2.6312    Y=              4.2857    Z=             -1.5192  Tot=              5.2534
 Quadrupole moment (field-independent basis, Debye-Ang):
   XX=           -108.8749   YY=            -96.1909   ZZ=            -94.4477
   XY=             17.3843   XZ=             -4.1508   YZ=              0.1649

 Normal termination of Gaussian 16 at Thu May  6 20:19:52 2021.
