 Gaussian 16, Revision A.03,
 Gaussian 16:  EM64L-G16RevA.03 25-Dec-2016

 -------------
 #p 6-31g* mp2
 -------------

 ------------------------------------------------------
 Input file generated by CHIRIPA (05-May-2021 14:51:10)
 ------------------------------------------------------
 Symbolic Z-matrix:
 Charge =  0 Multiplicity = 1

                         Standard orientation:
 ---------------------------------------------------------------------
 Center     Atomic      Atomic             Coordinates (Angstroms)
 Number     Number       Type             X           Y           Z
 ---------------------------------------------------------------------
      1          6           0        1.340065   -1.379684   -0.136664
      2          6           0        1.365999   -2.906715   -0.210758
      3          6           0       -0.016485   -3.509986   -0.460952
      4          1           0        0.652931   -1.069319    0.662376
      5          1           0        0.929264   -0.980955   -1.074562
      6          1           0        1.777916   -3.302396    0.726459
      7          1           0        2.053297   -3.213484   -1.009588
      8          1           0       -0.431697   -3.143221   -1.405241
      9          1           0       -0.708643   -3.232638    0.340670
     10          1           0        0.025195   -4.602546   -0.510296
     11          6           0        2.714711   -0.761842    0.113032
     12          6           0        2.688778    0.765189    0.187126
     13          6           0        4.071261    1.368460    0.437319
     14          1           0        3.125512   -1.160571    1.050930
     15          1           0        3.401845   -1.072207   -0.686008
     16          1           0        2.001479    1.071958    0.985956
     17          1           0        2.276860    1.160870   -0.750092
     18          1           0        4.763419    1.091112   -0.364302
     19          1           0        4.486473    1.001695    1.381609
     20          1           0        4.029582    2.461020    0.486663
     21          6           0       -1.386631    1.452860   -0.152086
     22          6           0       -1.562517    2.971518   -0.125143
     23          6           0       -0.271912    3.722042   -0.455061
     24          1           0       -0.602330    1.168221    0.562615
     25          1           0       -1.028905    1.149738   -1.145838
     26          1           0       -1.921127    3.271539    0.867834
     27          1           0       -2.346624    3.252556   -0.839852
     28          1           0        0.086595    3.451469   -1.453492
     29          1           0        0.514510    3.470560    0.263897
     30          1           0       -0.420338    4.806112   -0.430128
     31          6           0       -2.668146    0.688666    0.175719
     32          6           0       -2.492259   -0.829992    0.148775
     33          6           0       -3.782865   -1.580516    0.478693
     34          1           0       -3.025872    0.991788    1.169471
     35          1           0       -3.452447    0.973305   -0.538983
     36          1           0       -1.708153   -1.111031    0.863485
     37          1           0       -2.133649   -1.130013   -0.844202
     38          1           0       -4.569286   -1.329034   -0.240264
     39          1           0       -4.141372   -1.309943    1.477124
     40          1           0       -3.634439   -2.664586    0.453761
 ---------------------------------------------------------------------

 SCF Done:  E(RHF) =  -470.730139876     A.U. after   11 cycles
 E2 =    -0.1587164554D+01 EUMP2 =    -0.47231730443017D+03

 The electronic state is 1-A.
 Alpha  occ. eigenvalues --  -11.21564 -11.21545 -11.21539 -11.21471 -11.21344
 Alpha  occ. eigenvalues --  -11.21310 -11.21257 -11.21242 -11.21050 -11.21017
 Alpha  occ. eigenvalues --  -11.21015 -11.20964  -1.08484  -1.08272  -1.03586
 Alpha  occ. eigenvalues --   -1.03381  -0.96013  -0.95846  -0.86960  -0.86934
 Alpha  occ. eigenvalues --   -0.79835  -0.79298  -0.78760  -0.77633  -0.65284
 Alpha  occ. eigenvalues --   -0.64769  -0.61107  -0.60700  -0.59566  -0.59046
 Alpha  occ. eigenvalues --   -0.57931  -0.57173  -0.55324  -0.55118  -0.52659
 Alpha  occ. eigenvalues --   -0.52601  -0.52391  -0.52313  -0.49940  -0.49813
 Alpha  occ. eigenvalues --   -0.48358  -0.47395  -0.46961  -0.46773  -0.46263
 Alpha  occ. eigenvalues --   -0.46075  -0.45173  -0.44515  -0.43754  -0.43653
 Alpha virt. eigenvalues --    0.21137   0.21988   0.23453   0.23753   0.24806
 Alpha virt. eigenvalues --    0.25535   0.26296   0.27802   0.28842   0.29385
 Alpha virt. eigenvalues --    0.30700   0.31328   0.31504   0.32093   0.32811

 Mulliken charges:
               1
     1  C   -0.301631
     2  C   -0.299792
     3  C   -0.478218
     4  H    0.153670
     5  H    0.150900
     6  H    0.150984
     7  H    0.151282
     8  H    0.154671
     9  H    0.160727
    10  H    0.158966
    11  C   -0.298272
    12  C   -0.301947
    13  C   -0.476179
    14  H    0.148660
    15  H    0.149206
    16  H    0.152057
    17  H    0.154892
    18  H    0.155232
    19  H    0.154804
    20  H    0.160511
    21  C   -0.302130
    22  C   -0.299575
    23  C   -0.477407
    24  H    0.155776
    25  H    0.149095
    26  H    0.151211
    27  H    0.151401
    28  H    0.154421
    29  H    0.158318
    30  H    0.159538
    31  C   -0.298122
    32  C   -0.302015
    33  C   -0.477631
    34  H    0.148299
    35  H    0.148829
    36  H    0.153394
    37  H    0.155131
    38  H    0.155115
    39  H    0.154513
    40  H    0.161318
 Sum of Mulliken charges =  -0.00000

 Dipole moment (field-independent basis, Debye):
    X=              0.0074    Y=             -0.0079    Z=             -0.0072  Tot=              0.0130
 Quadrupole moment (field-independent basis, Debye-Ang):
   XX=            -86.5788   YY=            -85.8822   ZZ=            -82.8367
   XY=             -0.9735   XZ=              0.1142   YZ=             -0.0014

 Normal termination of Gaussian 16 at Wed May  5 21:26:02 2021.
