 Gaussian 16, Revision A.03,
 Gaussian 16:  EM64L-G16RevA.03 25-Dec-2016

 -------------
 #p 6-31g* mp2
 -------------

 ------------------------------------------------------
 Input file generated by CHIRIPA (05-May-2021 14:55:21)
 ------------------------------------------------------
 Symbolic Z-matrix:
 Charge =  0 Multiplicity = 1

                         Standard orientation:
 ---------------------------------------------------------------------
 Center     Atomic      Atomic             Coordinates (Angstroms)
 Number     Number       Type             X           Y           Z
 ---------------------------------------------------------------------
      1          6           0        6.110868    1.106767   -0.113020
      2          6           0        5.009218    1.772424    0.434509
      3          6           0        3.746945    1.171431    0.439266
      4          6           0        3.621763   -0.101804   -0.114351
      5          6           0        4.700203   -0.790627   -0.667325
      6          6           0        5.953123   -0.170383   -0.661223
      7          1           0        7.087799    1.581110   -0.112498
      8          1           0        5.128767    2.764347    0.860938
      9          1           0        2.877177    1.664161    0.856566
     10          1           0        4.549861   -1.778666   -1.085170
     11          1           0        6.806907   -0.689710   -1.087131
     12          7           0        2.290402   -0.748239   -0.115063
     13          8           0        2.206433   -1.870602   -0.608913
     14          8           0        1.356061   -0.120311    0.378242
     15          6           0       -5.663839    0.118186    0.245255
     16          6           0       -6.370338    0.606086   -1.019971
     17          6           0       -7.864457    0.850205   -0.805938
     18          1           0       -6.142436   -0.808419    0.590646
     19          1           0       -5.804466    0.859248    1.044281
     20          1           0       -6.227251   -0.135025   -1.816775
     21          1           0       -5.889882    1.531532   -1.362500
     22          1           0       -8.024069    1.605539   -0.029667
     23          1           0       -8.363356   -0.070488   -0.486526
     24          1           0       -8.349769    1.198435   -1.723036
     25          6           0       -4.169602   -0.130309    0.047184
     26          6           0       -3.463102   -0.618209    1.312410
     27          6           0       -1.968983   -0.862329    1.098377
     28          1           0       -4.028974   -0.871373   -0.751843
     29          1           0       -3.691004    0.796295   -0.298207
     30          1           0       -3.943558   -1.543657    1.654939
     31          1           0       -3.606189    0.122901    2.109214
     32          1           0       -1.470085    0.058364    0.778964
     33          1           0       -1.809371   -1.617663    0.322106
     34          1           0       -1.483671   -1.210558    2.015475
 ---------------------------------------------------------------------

 SCF Done:  E(RHF) =  -669.535579328     A.U. after   15 cycles
 E2 =    -0.2090939786D+01 EUMP2 =    -0.67162651911403D+03

 The electronic state is 1-A.
 Alpha  occ. eigenvalues --  -20.60867 -20.60857 -15.85903 -11.31259 -11.27827
 Alpha  occ. eigenvalues --  -11.27822 -11.27568 -11.26841 -11.26831 -11.20955
 Alpha  occ. eigenvalues --  -11.20585 -11.20547 -11.20349 -11.20262 -11.19135
 Alpha  occ. eigenvalues --   -1.59927  -1.39483  -1.19430  -1.08827  -1.07483
 Alpha  occ. eigenvalues --   -1.04832  -1.02474  -0.95668  -0.94877  -0.86232
 Alpha  occ. eigenvalues --   -0.85878  -0.82498  -0.78568  -0.77547  -0.77241
 Alpha  occ. eigenvalues --   -0.72120  -0.71246  -0.70539  -0.65085  -0.64834
 Alpha  occ. eigenvalues --   -0.64128  -0.62179  -0.59879  -0.58351  -0.56492
 Alpha  occ. eigenvalues --   -0.55334  -0.54168  -0.53162  -0.52925  -0.51565
 Alpha  occ. eigenvalues --   -0.51310  -0.48972  -0.48876  -0.48705  -0.46818
 Alpha  occ. eigenvalues --   -0.45630  -0.44893  -0.44750  -0.44692  -0.42725
 Alpha  occ. eigenvalues --   -0.37411  -0.36435
 Alpha virt. eigenvalues --    0.04986   0.11220   0.16478   0.21350   0.23728
 Alpha virt. eigenvalues --    0.25395   0.27266   0.27548   0.28187   0.28387
 Alpha virt. eigenvalues --    0.29205   0.30919   0.32348   0.32536   0.32664

 Mulliken charges:
               1
     1  C   -0.170719
     2  C   -0.218515
     3  C   -0.170907
     4  C    0.157687
     5  C   -0.170603
     6  C   -0.218571
     7  H    0.225830
     8  H    0.223644
     9  H    0.275472
    10  H    0.275807
    11  H    0.223678
    12  N    0.491437
    13  O   -0.459552
    14  O   -0.461133
    15  C   -0.297177
    16  C   -0.298874
    17  C   -0.475126
    18  H    0.148187
    19  H    0.147286
    20  H    0.151559
    21  H    0.150738
    22  H    0.153947
    23  H    0.154440
    24  H    0.158230
    25  C   -0.296892
    26  C   -0.302246
    27  C   -0.468053
    28  H    0.149524
    29  H    0.148355
    30  H    0.146601
    31  H    0.145803
    32  H    0.166232
    33  H    0.157914
    34  H    0.155996
 Sum of Mulliken charges =  -0.00000

 Dipole moment (field-independent basis, Debye):
    X=              5.0682    Y=              2.2610    Z=             -0.0441  Tot=              5.5498
 Quadrupole moment (field-independent basis, Debye-Ang):
   XX=            -63.3515   YY=            -91.3999   ZZ=            -94.6515
   XY=              6.6349   XZ=             -1.3421   YZ=              2.2489

 Normal termination of Gaussian 16 at Thu May  6 07:47:02 2021.
