 Gaussian 16, Revision A.03,
 Gaussian 16:  EM64L-G16RevA.03 25-Dec-2016

 -------------
 #p 6-31g* mp2
 -------------

 ------------------------------------------------------
 Input file generated by CHIRIPA (05-May-2021 14:51:11)
 ------------------------------------------------------
 Symbolic Z-matrix:
 Charge =  0 Multiplicity = 1

                         Standard orientation:
 ---------------------------------------------------------------------
 Center     Atomic      Atomic             Coordinates (Angstroms)
 Number     Number       Type             X           Y           Z
 ---------------------------------------------------------------------
      1          6           0       -3.193204    0.847271    0.012522
      2          6           0       -2.494151    1.788880   -0.968642
      3          6           0       -2.042730    3.095145   -0.314665
      4          1           0       -4.061695    1.360381    0.447706
      5          1           0       -2.511761    0.625073    0.845383
      6          1           0       -3.176213    2.008134   -1.800107
      7          1           0       -1.627334    1.273402   -1.401685
      8          1           0       -1.342340    2.894856    0.502610
      9          1           0       -2.900019    3.633763    0.101924
     10          1           0       -1.545482    3.753335   -1.033964
     11          6           0       -3.650340   -0.462887   -0.626416
     12          6           0       -4.349393   -1.404496    0.354748
     13          6           0       -4.800813   -2.710761   -0.299229
     14          1           0       -4.331783   -0.240689   -1.459277
     15          1           0       -2.781848   -0.975997   -1.061601
     16          1           0       -5.216210   -0.889018    0.787791
     17          1           0       -3.667330   -1.623750    1.186213
     18          1           0       -3.943524   -3.249379   -0.715818
     19          1           0       -5.501204   -2.510472   -1.116504
     20          1           0       -5.298062   -3.368950    0.420069
     21          6           0        2.927710    0.269997    0.661513
     22          6           0        1.603252   -0.410396    1.009161
     23          6           0        0.625289    0.527049    1.718090
     24          1           0        3.387924    0.654283    1.582095
     25          1           0        2.727515    1.142542    0.024345
     26          1           0        1.806003   -1.282203    1.644347
     27          1           0        1.146231   -0.793275    0.087668
     28          1           0        0.393872    1.391208    1.087000
     29          1           0        1.057393    0.899502    2.652524
     30          1           0       -0.314785    0.020212    1.957336
     31          6           0        3.915833   -0.654382   -0.047618
     32          6           0        5.240291    0.026012   -0.395267
     33          6           0        6.218255   -0.911433   -1.104196
     34          1           0        4.116029   -1.526925    0.589549
     35          1           0        3.455619   -1.038667   -0.968202
     36          1           0        5.697313    0.408892    0.526227
     37          1           0        5.037541    0.897819   -1.030453
     38          1           0        5.786151   -1.283886   -2.038630
     39          1           0        6.449671   -1.775592   -0.473105
     40          1           0        7.158329   -0.404596   -1.343441
 ---------------------------------------------------------------------

 SCF Done:  E(RHF) =  -470.732826373     A.U. after   11 cycles
 E2 =    -0.1583450629D+01 EUMP2 =    -0.47231627700252D+03

 The electronic state is 1-A.
 Alpha  occ. eigenvalues --  -11.21684 -11.21632 -11.21591 -11.21575 -11.21455
 Alpha  occ. eigenvalues --  -11.21394 -11.21361 -11.21283 -11.21155 -11.21094
 Alpha  occ. eigenvalues --  -11.21061 -11.21021  -1.08487  -1.08394  -1.03603
 Alpha  occ. eigenvalues --   -1.03494  -0.96046  -0.95951  -0.87066  -0.86969
 Alpha  occ. eigenvalues --   -0.79685  -0.79545  -0.78300  -0.78200  -0.65195
 Alpha  occ. eigenvalues --   -0.64975  -0.61171  -0.60744  -0.59428  -0.59309
 Alpha  occ. eigenvalues --   -0.57716  -0.57523  -0.55452  -0.55124  -0.52764
 Alpha  occ. eigenvalues --   -0.52646  -0.52541  -0.52294  -0.50080  -0.49809
 Alpha  occ. eigenvalues --   -0.47989  -0.47844  -0.46783  -0.46504  -0.45844
 Alpha  occ. eigenvalues --   -0.45789  -0.45729  -0.45607  -0.43804  -0.43751
 Alpha virt. eigenvalues --    0.20437   0.23139   0.23680   0.24902   0.25903
 Alpha virt. eigenvalues --    0.26342   0.26748   0.27375   0.28085   0.29344
 Alpha virt. eigenvalues --    0.30431   0.31365   0.31665   0.31983   0.32288

 Mulliken charges:
               1
     1  C   -0.303978
     2  C   -0.299143
     3  C   -0.481159
     4  H    0.149263
     5  H    0.156401
     6  H    0.151907
     7  H    0.151100
     8  H    0.160403
     9  H    0.155403
    10  H    0.159507
    11  C   -0.298095
    12  C   -0.299478
    13  C   -0.475671
    14  H    0.149349
    15  H    0.149208
    16  H    0.152042
    17  H    0.151212
    18  H    0.155149
    19  H    0.155195
    20  H    0.160192
    21  C   -0.298757
    22  C   -0.299457
    23  C   -0.484302
    24  H    0.149938
    25  H    0.149948
    26  H    0.152216
    27  H    0.151609
    28  H    0.161313
    29  H    0.155922
    30  H    0.162347
    31  C   -0.298344
    32  C   -0.299719
    33  C   -0.475743
    34  H    0.149625
    35  H    0.149656
    36  H    0.152037
    37  H    0.152070
    38  H    0.155226
    39  H    0.155219
    40  H    0.160390
 Sum of Mulliken charges =  -0.00000

 Dipole moment (field-independent basis, Debye):
    X=              0.0374    Y=              0.0028    Z=              0.0265  Tot=              0.0459
 Quadrupole moment (field-independent basis, Debye-Ang):
   XX=            -84.6475   YY=            -85.8743   ZZ=            -84.2824
   XY=             -0.4152   XZ=              0.8295   YZ=             -0.9271

 Normal termination of Gaussian 16 at Wed May  5 23:04:22 2021.
