 Gaussian 16, Revision A.03,
 Gaussian 16:  EM64L-G16RevA.03 25-Dec-2016

 -------------
 #p 6-31g* mp2
 -------------

 ------------------------------------------------------
 Input file generated by CHIRIPA (05-May-2021 14:57:23)
 ------------------------------------------------------
 Symbolic Z-matrix:
 Charge =  0 Multiplicity = 1

                         Standard orientation:
 ---------------------------------------------------------------------
 Center     Atomic      Atomic             Coordinates (Angstroms)
 Number     Number       Type             X           Y           Z
 ---------------------------------------------------------------------
      1          6           0       -1.066883    2.565528   -0.426984
      2          6           0       -0.851063    1.439009   -1.227544
      3          6           0       -1.668918    0.312030   -1.102729
      4          6           0       -2.697954    0.346030   -0.162932
      5          6           0       -2.938276    1.453282    0.649181
      6          6           0       -2.107966    2.569063    0.507176
      7          1           0       -0.426716    3.436643   -0.530620
      8          1           0       -0.043305    1.433445   -1.953865
      9          1           0       -1.524156   -0.573431   -1.709706
     10          1           0       -3.751500    1.429126    1.364374
     11          1           0       -2.277914    3.442534    1.130242
     12          7           0       -3.570373   -0.841125   -0.021697
     13          8           0       -4.470192   -0.786094    0.813728
     14          8           0       -3.337838   -1.804170   -0.749097
     15          6           0        0.484341   -1.956809    0.467572
     16          6           0        1.105852   -1.866301   -0.782249
     17          6           0        2.253181   -1.085197   -0.949759
     18          6           0        2.754272   -0.404879    0.159008
     19          6           0        2.157723   -0.475005    1.416984
     20          6           0        1.011331   -1.262097    1.561272
     21          1           0       -0.406569   -2.565915    0.588678
     22          1           0        0.698801   -2.404728   -1.633395
     23          1           0        2.754345   -0.997439   -1.906080
     24          1           0        2.586846    0.073264    2.246846
     25          1           0        0.530755   -1.330532    2.533078
     26          7           0        3.968403    0.425211   -0.006035
     27          8           0        4.390148    1.014830    0.986495
     28          8           0        4.475302    0.470498   -1.124802
 ---------------------------------------------------------------------

 SCF Done:  E(RHF) =  -868.338114282     A.U. after   16 cycles
 E2 =    -0.2603311837D+01 EUMP2 =    -0.87094142611819D+03

 The electronic state is 1-A.
 Alpha  occ. eigenvalues --  -20.61567 -20.61531 -20.61217 -20.61209 -15.86575
 Alpha  occ. eigenvalues --  -15.86268 -11.31635 -11.31563 -11.28220 -11.28193
 Alpha  occ. eigenvalues --  -11.28152 -11.28110 -11.27835 -11.27681 -11.27106
 Alpha  occ. eigenvalues --  -11.27070 -11.27062 -11.27008  -1.60625  -1.60299
 Alpha  occ. eigenvalues --   -1.40188  -1.39853  -1.19829  -1.19687  -1.09237
 Alpha  occ. eigenvalues --   -1.09095  -1.05206  -1.05065  -0.96133  -0.95933
 Alpha  occ. eigenvalues --   -0.86616  -0.86457  -0.82973  -0.82777  -0.78076
 Alpha  occ. eigenvalues --   -0.77862  -0.72797  -0.72479  -0.71974  -0.71633
 Alpha  occ. eigenvalues --   -0.70918  -0.70701  -0.65447  -0.65368  -0.65208
 Alpha  occ. eigenvalues --   -0.65017  -0.62602  -0.62394  -0.55649  -0.55486
 Alpha  occ. eigenvalues --   -0.54097  -0.53281  -0.53146  -0.52846  -0.49579
 Alpha  occ. eigenvalues --   -0.49520  -0.49245  -0.49230  -0.45648  -0.45275
 Alpha  occ. eigenvalues --   -0.38220  -0.37485  -0.36890  -0.36189
 Alpha virt. eigenvalues --    0.04404   0.04651   0.10489   0.11292   0.15918
 Alpha virt. eigenvalues --    0.16222   0.20349   0.21704   0.25861   0.27289
 Alpha virt. eigenvalues --    0.27964   0.28700   0.30337   0.30991   0.31638

 Mulliken charges:
               1
     1  C   -0.170234
     2  C   -0.215639
     3  C   -0.164441
     4  C    0.154387
     5  C   -0.172332
     6  C   -0.219638
     7  H    0.230479
     8  H    0.225362
     9  H    0.267765
    10  H    0.275174
    11  H    0.225072
    12  N    0.487239
    13  O   -0.457423
    14  O   -0.467980
    15  C   -0.172385
    16  C   -0.227655
    17  C   -0.176854
    18  C    0.157492
    19  C   -0.170215
    20  C   -0.216958
    21  H    0.240800
    22  H    0.226416
    23  H    0.274077
    24  H    0.275492
    25  H    0.226492
    26  N    0.487390
    27  O   -0.460097
    28  O   -0.461785
 Sum of Mulliken charges =  -0.00000

 Dipole moment (field-independent basis, Debye):
    X=             -1.2188    Y=              1.3156    Z=              0.2218  Tot=              1.8071
 Quadrupole moment (field-independent basis, Debye-Ang):
   XX=           -145.6074   YY=            -98.8234   ZZ=            -97.6322
   XY=            -18.2188   XZ=             -0.5796   YZ=              1.5182

 Normal termination of Gaussian 16 at Thu May  6 16:16:55 2021.
