 Gaussian 16, Revision A.03,
 Gaussian 16:  EM64L-G16RevA.03 25-Dec-2016

 -------------
 #p 6-31g* mp2
 -------------

 ------------------------------------------------------
 Input file generated by CHIRIPA (05-May-2021 14:51:13)
 ------------------------------------------------------
 Symbolic Z-matrix:
 Charge =  0 Multiplicity = 1

                         Standard orientation:
 ---------------------------------------------------------------------
 Center     Atomic      Atomic             Coordinates (Angstroms)
 Number     Number       Type             X           Y           Z
 ---------------------------------------------------------------------
      1          6           0        4.974907   -0.126668   -0.301552
      2          6           0        5.851474   -1.113406    0.470434
      3          6           0        7.253484   -1.249274   -0.124294
      4          1           0        4.900820   -0.452828   -1.348011
      5          1           0        5.465544    0.856440   -0.314557
      6          1           0        5.358671   -2.094017    0.483163
      7          1           0        5.923326   -0.784964    1.515221
      8          1           0        7.768101   -0.282958   -0.122299
      9          1           0        7.200237   -1.599449   -1.160220
     10          1           0        7.863121   -1.959482    0.442986
     11          6           0        3.570286    0.019999    0.280906
     12          6           0        2.693719    1.006737   -0.491081
     13          6           0        1.291709    1.142605    0.103648
     14          1           0        3.079649   -0.963109    0.293911
     15          1           0        3.644373    0.346159    1.327365
     16          1           0        2.621867    0.678295   -1.535867
     17          1           0        3.186522    1.987349   -0.503809
     18          1           0        1.344956    1.492780    1.139574
     19          1           0        0.777093    0.176289    0.101652
     20          1           0        0.682072    1.852813   -0.463632
     21          6           0       -3.863181    0.592743   -0.343016
     22          6           0       -3.313782    1.657016    0.607494
     23          6           0       -2.496924    2.729231   -0.114233
     24          1           0       -3.027335    0.121018   -0.877602
     25          1           0       -4.487224    1.079084   -1.105536
     26          1           0       -2.692082    1.168657    1.368816
     27          1           0       -4.151019    2.126129    1.140019
     28          1           0       -3.110306    3.242779   -0.861652
     29          1           0       -1.643079    2.279866   -0.631555
     30          1           0       -2.113799    3.479875    0.584056
     31          6           0       -4.682012   -0.486074    0.363662
     32          6           0       -5.231411   -1.550347   -0.586848
     33          6           0       -6.048269   -2.622562    0.134881
     34          1           0       -4.057969   -0.972416    1.126183
     35          1           0       -5.517859   -0.014350    0.898248
     36          1           0       -4.394174   -2.019461   -1.119373
     37          1           0       -5.853112   -1.061988   -1.348169
     38          1           0       -6.902114   -2.173198    0.652201
     39          1           0       -5.434887   -3.136110    0.882297
     40          1           0       -6.431394   -3.373206   -0.563410
 ---------------------------------------------------------------------

 SCF Done:  E(RHF) =  -470.733181632     A.U. after   11 cycles
 E2 =    -0.1582309719D+01 EUMP2 =    -0.47231549135104D+03

 The electronic state is 1-A.
 Alpha  occ. eigenvalues --  -11.21621 -11.21614 -11.21581 -11.21535 -11.21421
 Alpha  occ. eigenvalues --  -11.21367 -11.21362 -11.21306 -11.21087 -11.21081
 Alpha  occ. eigenvalues --  -11.21056 -11.20973  -1.08447  -1.08387  -1.03554
 Alpha  occ. eigenvalues --   -1.03477  -0.96023  -0.95913  -0.87059  -0.86914
 Alpha  occ. eigenvalues --   -0.79636  -0.79525  -0.78259  -0.78201  -0.65078
 Alpha  occ. eigenvalues --   -0.65019  -0.60955  -0.60903  -0.59375  -0.59302
 Alpha  occ. eigenvalues --   -0.57654  -0.57512  -0.55290  -0.55239  -0.52781
 Alpha  occ. eigenvalues --   -0.52605  -0.52445  -0.52278  -0.49940  -0.49846
 Alpha  occ. eigenvalues --   -0.47951  -0.47842  -0.46646  -0.46572  -0.45802
 Alpha  occ. eigenvalues --   -0.45748  -0.45722  -0.45667  -0.43770  -0.43730
 Alpha virt. eigenvalues --    0.21945   0.22989   0.23632   0.24810   0.26384
 Alpha virt. eigenvalues --    0.26636   0.27046   0.27582   0.27688   0.28820
 Alpha virt. eigenvalues --    0.30314   0.31300   0.31591   0.31870   0.32114

 Mulliken charges:
               1
     1  C   -0.298259
     2  C   -0.299631
     3  C   -0.475710
     4  H    0.149656
     5  H    0.149611
     6  H    0.151884
     7  H    0.151960
     8  H    0.155225
     9  H    0.155192
    10  H    0.160281
    11  C   -0.298599
    12  C   -0.299385
    13  C   -0.480003
    14  H    0.149339
    15  H    0.149685
    16  H    0.151863
    17  H    0.152199
    18  H    0.155586
    19  H    0.154110
    20  H    0.165461
    21  C   -0.298510
    22  C   -0.299386
    23  C   -0.480330
    24  H    0.149767
    25  H    0.149281
    26  H    0.152747
    27  H    0.151499
    28  H    0.154302
    29  H    0.160713
    30  H    0.159851
    31  C   -0.298300
    32  C   -0.299594
    33  C   -0.475677
    34  H    0.149508
    35  H    0.149580
    36  H    0.151761
    37  H    0.151880
    38  H    0.155174
    39  H    0.155127
    40  H    0.160138
 Sum of Mulliken charges =  -0.00000

 Dipole moment (field-independent basis, Debye):
    X=              0.0255    Y=              0.0082    Z=              0.0026  Tot=              0.0269
 Quadrupole moment (field-independent basis, Debye-Ang):
   XX=            -85.5393   YY=            -84.6897   ZZ=            -84.6557
   XY=             -0.4788   XZ=              0.8632   YZ=              0.6545

 Normal termination of Gaussian 16 at Wed May  5 21:36:36 2021.
