 Gaussian 16, Revision A.03,
 Gaussian 16:  EM64L-G16RevA.03 25-Dec-2016

 -------------
 #p 6-31g* mp2
 -------------

 ------------------------------------------------------
 Input file generated by CHIRIPA (05-May-2021 14:55:25)
 ------------------------------------------------------
 Symbolic Z-matrix:
 Charge =  0 Multiplicity = 1

                         Standard orientation:
 ---------------------------------------------------------------------
 Center     Atomic      Atomic             Coordinates (Angstroms)
 Number     Number       Type             X           Y           Z
 ---------------------------------------------------------------------
      1          6           0       -4.330315   -0.757909   -1.315130
      2          6           0       -3.296792   -1.652106   -1.017200
      3          6           0       -2.269800   -1.284396   -0.142772
      4          6           0       -2.307871   -0.008861    0.418345
      5          6           0       -3.323907    0.904467    0.141230
      6          6           0       -4.340556    0.515279   -0.735985
      7          1           0       -5.124090   -1.051897   -1.995489
      8          1           0       -3.286262   -2.641531   -1.465501
      9          1           0       -1.457603   -1.956873    0.105275
     10          1           0       -3.307245    1.883927    0.603613
     11          1           0       -5.141937    1.211798   -0.965537
     12          7           0       -1.226115    0.391786    1.345538
     13          8           0       -1.282584    1.521314    1.826801
     14          8           0       -0.342249   -0.431301    1.573452
     15          6           0        2.959508    0.785209   -0.097796
     16          6           0        3.045144    1.864085   -1.177924
     17          6           0        2.596150    3.237647   -0.678396
     18          1           0        1.925721    0.723676    0.268868
     19          1           0        3.577963    1.084730    0.759640
     20          1           0        2.427810    1.561965   -2.033633
     21          1           0        4.078808    1.922925   -1.542194
     22          1           0        3.218225    3.564511    0.161117
     23          1           0        1.557846    3.201499   -0.333114
     24          1           0        2.665437    3.993831   -1.466587
     25          6           0        3.405054   -0.593484   -0.581968
     26          6           0        3.319418   -1.672361    0.498160
     27          6           0        3.768412   -3.045921   -0.001367
     28          1           0        2.786599   -0.893004   -1.439404
     29          1           0        4.438841   -0.531951   -0.948632
     30          1           0        2.285754   -1.731200    0.862431
     31          1           0        3.936753   -1.370239    1.353869
     32          1           0        4.806716   -3.009774   -0.346650
     33          1           0        3.146337   -3.372786   -0.840880
     34          1           0        3.699125   -3.802106    0.786824
 ---------------------------------------------------------------------

 SCF Done:  E(RHF) =  -669.536393266     A.U. after   15 cycles
 E2 =    -0.2092034201D+01 EUMP2 =    -0.67162842746670D+03

 The electronic state is 1-A.
 Alpha  occ. eigenvalues --  -20.61101 -20.61095 -15.86112 -11.31383 -11.27941
 Alpha  occ. eigenvalues --  -11.27934 -11.27665 -11.26932 -11.26923 -11.20746
 Alpha  occ. eigenvalues --  -11.20536 -11.20457 -11.20387 -11.20219 -11.20155
 Alpha  occ. eigenvalues --   -1.60149  -1.39707  -1.19545  -1.08959  -1.07442
 Alpha  occ. eigenvalues --   -1.04933  -1.02640  -0.95809  -0.95104  -0.86336
 Alpha  occ. eigenvalues --   -0.86122  -0.82646  -0.78679  -0.77711  -0.77214
 Alpha  occ. eigenvalues --   -0.72331  -0.71462  -0.70653  -0.65204  -0.64934
 Alpha  occ. eigenvalues --   -0.64073  -0.62281  -0.60050  -0.58471  -0.56702
 Alpha  occ. eigenvalues --   -0.55439  -0.54408  -0.53268  -0.53023  -0.51836
 Alpha  occ. eigenvalues --   -0.51520  -0.49162  -0.49091  -0.48998  -0.47000
 Alpha  occ. eigenvalues --   -0.45699  -0.45362  -0.44790  -0.44356  -0.42861
 Alpha  occ. eigenvalues --   -0.37519  -0.36531
 Alpha virt. eigenvalues --    0.04772   0.11124   0.16250   0.21152   0.23727
 Alpha virt. eigenvalues --    0.25018   0.26987   0.27400   0.27973   0.28717
 Alpha virt. eigenvalues --    0.29048   0.30969   0.31769   0.32418   0.32586

 Mulliken charges:
               1
     1  C   -0.170368
     2  C   -0.218536
     3  C   -0.170643
     4  C    0.157915
     5  C   -0.170706
     6  C   -0.218542
     7  H    0.226416
     8  H    0.224284
     9  H    0.275699
    10  H    0.276111
    11  H    0.224222
    12  N    0.490512
    13  O   -0.457702
    14  O   -0.461889
    15  C   -0.305452
    16  C   -0.299032
    17  C   -0.475513
    18  H    0.168152
    19  H    0.149179
    20  H    0.145884
    21  H    0.148084
    22  H    0.155923
    23  H    0.159722
    24  H    0.154705
    25  C   -0.295986
    26  C   -0.306386
    27  C   -0.474872
    28  H    0.142227
    29  H    0.144921
    30  H    0.170482
    31  H    0.151491
    32  H    0.152524
    33  H    0.148972
    34  H    0.158200
 Sum of Mulliken charges =  -0.00000

 Dipole moment (field-independent basis, Debye):
    X=             -4.1501    Y=             -1.3729    Z=             -3.0501  Tot=              5.3302
 Quadrupole moment (field-independent basis, Debye-Ang):
   XX=            -76.6546   YY=            -92.4899   ZZ=            -98.3487
   XY=              1.8050   XZ=              6.8836   YZ=              0.0918

 Normal termination of Gaussian 16 at Thu May  6 11:06:14 2021.
