 Gaussian 16, Revision A.03,
 Gaussian 16:  EM64L-G16RevA.03 25-Dec-2016

 -------------
 #p 6-31g* mp2
 -------------

 ------------------------------------------------------
 Input file generated by CHIRIPA (05-May-2021 14:57:24)
 ------------------------------------------------------
 Symbolic Z-matrix:
 Charge =  0 Multiplicity = 1

                         Standard orientation:
 ---------------------------------------------------------------------
 Center     Atomic      Atomic             Coordinates (Angstroms)
 Number     Number       Type             X           Y           Z
 ---------------------------------------------------------------------
      1          6           0       -2.239470    1.495730   -0.288710
      2          6           0       -2.100242    0.110442   -0.423291
      3          6           0       -3.201027   -0.733905   -0.250377
      4          6           0       -4.431814   -0.156476    0.057889
      5          6           0       -4.602480    1.219888    0.198556
      6          6           0       -3.487944    2.045064    0.021237
      7          1           0       -1.379013    2.144193   -0.424744
      8          1           0       -1.131872   -0.318963   -0.663950
      9          1           0       -3.121432   -1.809732   -0.348759
     10          1           0       -5.580564    1.618591    0.438984
     11          1           0       -3.599025    3.120542    0.126363
     12          7           0       -5.604445   -1.040200    0.243277
     13          8           0       -6.677994   -0.506706    0.514414
     14          8           0       -5.427801   -2.249623    0.113935
     15          6           0        6.243605   -1.461430    0.394729
     16          6           0        5.128780   -1.972844   -0.277687
     17          6           0        4.012275   -1.166203   -0.517049
     18          6           0        4.044710    0.153159   -0.068139
     19          6           0        5.140434    0.691777    0.604594
     20          6           0        6.245870   -0.133093    0.832951
     21          1           0        7.106634   -2.095129    0.576396
     22          1           0        5.124230   -3.004069   -0.619152
     23          1           0        3.135976   -1.536460   -1.035149
     24          1           0        5.115559    1.723742    0.932998
     25          1           0        7.110271    0.266767    1.355415
     26          7           0        2.868574    1.016764   -0.315715
     27          8           0        2.921980    2.175757    0.089894
     28          8           0        1.915584    0.518311   -0.910687
 ---------------------------------------------------------------------

 SCF Done:  E(RHF) =  -868.340853480     A.U. after   16 cycles
 E2 =    -0.2598037036D+01 EUMP2 =    -0.87093889051587D+03

 The electronic state is 1-A.
 Alpha  occ. eigenvalues --  -20.61925 -20.61883 -20.60060 -20.60055 -15.86926
 Alpha  occ. eigenvalues --  -15.85105 -11.31960 -11.30241 -11.28500 -11.28475
 Alpha  occ. eigenvalues --  -11.28158 -11.27425 -11.27413 -11.26808 -11.26754
 Alpha  occ. eigenvalues --  -11.26283 -11.25730 -11.25544  -1.60962  -1.59141
 Alpha  occ. eigenvalues --   -1.40526  -1.38702  -1.20099  -1.18365  -1.09553
 Alpha  occ. eigenvalues --   -1.07760  -1.05452  -1.03735  -0.96446  -0.94646
 Alpha  occ. eigenvalues --   -0.86865  -0.85109  -0.83293  -0.81498  -0.78376
 Alpha  occ. eigenvalues --   -0.76609  -0.73170  -0.72252  -0.71327  -0.71201
 Alpha  occ. eigenvalues --   -0.70463  -0.69374  -0.65756  -0.65449  -0.63990
 Alpha  occ. eigenvalues --   -0.63677  -0.62805  -0.61083  -0.55959  -0.54094
 Alpha  occ. eigenvalues --   -0.53796  -0.53539  -0.52082  -0.51788  -0.49935
 Alpha  occ. eigenvalues --   -0.49889  -0.48098  -0.48058  -0.45997  -0.44160
 Alpha  occ. eigenvalues --   -0.38053  -0.37039  -0.36280  -0.35360
 Alpha virt. eigenvalues --    0.04123   0.05912   0.10621   0.12315   0.15674
 Alpha virt. eigenvalues --    0.17493   0.20765   0.22659   0.26714   0.27473
 Alpha virt. eigenvalues --    0.28509   0.29547   0.30434   0.31707   0.32499

 Mulliken charges:
               1
     1  C   -0.173854
     2  C   -0.224451
     3  C   -0.173522
     4  C    0.157652
     5  C   -0.172805
     6  C   -0.219717
     7  H    0.240272
     8  H    0.238052
     9  H    0.271065
    10  H    0.272056
    11  H    0.221151
    12  N    0.488286
    13  O   -0.463126
    14  O   -0.463626
    15  C   -0.169537
    16  C   -0.218320
    17  C   -0.170214
    18  C    0.157731
    19  C   -0.170183
    20  C   -0.218438
    21  H    0.228492
    22  H    0.225959
    23  H    0.273728
    24  H    0.276402
    25  H    0.225904
    26  N    0.491880
    27  O   -0.458060
    28  O   -0.472778
 Sum of Mulliken charges =  -0.00000

 Dipole moment (field-independent basis, Debye):
    X=              8.9530    Y=              0.1398    Z=              0.2242  Tot=              8.9569
 Quadrupole moment (field-independent basis, Debye-Ang):
   XX=           -106.3989   YY=           -100.9618   ZZ=           -105.3604
   XY=            -27.4426   XZ=              7.4443   YZ=              3.4964

 Normal termination of Gaussian 16 at Thu May  6 16:18:45 2021.
