 Gaussian 16, Revision A.03,
 Gaussian 16:  EM64L-G16RevA.03 25-Dec-2016

 -------------
 #p 6-31g* mp2
 -------------

 ------------------------------------------------------
 Input file generated by CHIRIPA (05-May-2021 14:57:22)
 ------------------------------------------------------
 Symbolic Z-matrix:
 Charge =  0 Multiplicity = 1

                         Standard orientation:
 ---------------------------------------------------------------------
 Center     Atomic      Atomic             Coordinates (Angstroms)
 Number     Number       Type             X           Y           Z
 ---------------------------------------------------------------------
      1          6           0        2.237145    0.119609    1.605280
      2          6           0        3.505072    0.420204    2.113732
      3          6           0        4.641043    0.294434    1.308560
      4          6           0        4.471741   -0.136487   -0.006329
      5          6           0        3.221886   -0.443571   -0.541915
      6          6           0        2.099840   -0.310560    0.281413
      7          1           0        1.360104    0.220123    2.237809
      8          1           0        3.614711    0.754495    3.141484
      9          1           0        5.634465    0.520443    1.676596
     10          1           0        3.144268   -0.774536   -1.570436
     11          1           0        1.116391   -0.544708   -0.116139
     12          7           0        5.666971   -0.273466   -0.868339
     13          8           0        5.491073   -0.655028   -2.023375
     14          8           0        6.757059    0.003324   -0.372624
     15          6           0       -2.757998    2.106209   -0.445785
     16          6           0       -4.145780    2.264767   -0.519561
     17          6           0       -4.995772    1.167912   -0.349354
     18          6           0       -4.421386   -0.078697   -0.105766
     19          6           0       -3.042659   -0.268782   -0.026598
     20          6           0       -2.211830    0.842170   -0.199973
     21          1           0       -2.105148    2.963748   -0.579237
     22          1           0       -4.572737    3.245254   -0.710340
     23          1           0       -6.073635    1.262331   -0.401471
     24          1           0       -2.646503   -1.258640    0.164869
     25          1           0       -1.134426    0.716062   -0.142153
     26          7           0       -5.311092   -1.247349    0.076101
     27          8           0       -4.780188   -2.335096    0.289613
     28          8           0       -6.522500   -1.053466    0.001692
 ---------------------------------------------------------------------

 SCF Done:  E(RHF) =  -868.336740927     A.U. after   16 cycles
 E2 =    -0.2599489805D+01 EUMP2 =    -0.87093623073204D+03

 The electronic state is 1-A.
 Alpha  occ. eigenvalues --  -20.61316 -20.61306 -20.61240 -20.61234 -15.86374
 Alpha  occ. eigenvalues --  -15.86301 -11.31852 -11.31796 -11.28512 -11.28432
 Alpha  occ. eigenvalues --  -11.28407 -11.28371 -11.28212 -11.28209 -11.27594
 Alpha  occ. eigenvalues --  -11.27557 -11.27417 -11.27394  -1.60387  -1.60313
 Alpha  occ. eigenvalues --   -1.39938  -1.39863  -1.20048  -1.20003  -1.09416
 Alpha  occ. eigenvalues --   -1.09381  -1.05491  -1.05429  -0.96227  -0.96184
 Alpha  occ. eigenvalues --   -0.86906  -0.86806  -0.83079  -0.83012  -0.78129
 Alpha  occ. eigenvalues --   -0.78014  -0.72588  -0.72516  -0.71713  -0.71639
 Alpha  occ. eigenvalues --   -0.71140  -0.71114  -0.65735  -0.65702  -0.65645
 Alpha  occ. eigenvalues --   -0.65296  -0.62941  -0.62667  -0.55971  -0.55930
 Alpha  occ. eigenvalues --   -0.53788  -0.53778  -0.53693  -0.53401  -0.49359
 Alpha  occ. eigenvalues --   -0.49337  -0.49285  -0.49261  -0.45319  -0.45239
 Alpha  occ. eigenvalues --   -0.38018  -0.38001  -0.37094  -0.37034
 Alpha virt. eigenvalues --    0.04459   0.04520   0.10516   0.10559   0.15911
 Alpha virt. eigenvalues --    0.15964   0.17939   0.21895   0.24556   0.27394
 Alpha virt. eigenvalues --    0.27699   0.28515   0.29902   0.31178   0.31753

 Mulliken charges:
               1
     1  C   -0.171841
     2  C   -0.218439
     3  C   -0.169631
     4  C    0.158918
     5  C   -0.169662
     6  C   -0.223740
     7  H    0.225309
     8  H    0.225927
     9  H    0.277920
    10  H    0.277745
    11  H    0.218415
    12  N    0.487945
    13  O   -0.459025
    14  O   -0.458613
    15  C   -0.171025
    16  C   -0.218291
    17  C   -0.169678
    18  C    0.159043
    19  C   -0.171608
    20  C   -0.223327
    21  H    0.228333
    22  H    0.226156
    23  H    0.277986
    24  H    0.273474
    25  H    0.217876
    26  N    0.488109
    27  O   -0.460098
    28  O   -0.458179
 Sum of Mulliken charges =  -0.00000

 Dipole moment (field-independent basis, Debye):
    X=             -1.0587    Y=              4.6731    Z=              2.4082  Tot=              5.3626
 Quadrupole moment (field-independent basis, Debye-Ang):
   XX=           -163.9131   YY=           -104.3801   ZZ=           -102.7120
   XY=            -17.7711   XZ=             19.5652   YZ=              0.0499

 Normal termination of Gaussian 16 at Thu May  6 03:22:40 2021.
