 Gaussian 16, Revision A.03,
 Gaussian 16:  EM64L-G16RevA.03 25-Dec-2016

 -------------
 #p 6-31g* mp2
 -------------

 ------------------------------------------------------
 Input file generated by CHIRIPA (05-May-2021 14:51:07)
 ------------------------------------------------------
 Symbolic Z-matrix:
 Charge =  0 Multiplicity = 1

                         Standard orientation:
 ---------------------------------------------------------------------
 Center     Atomic      Atomic             Coordinates (Angstroms)
 Number     Number       Type             X           Y           Z
 ---------------------------------------------------------------------
      1          6           0        4.393855   -0.093201    0.362938
      2          6           0        5.370192    0.284721   -0.751479
      3          6           0        6.821908    0.333804   -0.274086
      4          1           0        4.486966    0.630427    1.184302
      5          1           0        4.678781   -1.071425    0.774386
      6          1           0        5.082685    1.261309   -1.161638
      7          1           0        5.274609   -0.439780   -1.570368
      8          1           0        7.132110   -0.640728    0.116637
      9          1           0        6.939095    1.070027    0.527689
     10          1           0        7.502758    0.605863   -1.086667
     11          6           0        2.938632   -0.146436   -0.098820
     12          6           0        1.962295   -0.524357    1.015598
     13          6           0        0.510578   -0.573440    0.538205
     14          1           0        2.653706    0.831788   -0.510268
     15          1           0        2.845520   -0.870063   -0.920184
     16          1           0        2.057878    0.200143    1.834486
     17          1           0        2.249802   -1.500946    1.425757
     18          1           0        0.393391   -1.309663   -0.263571
     19          1           0        0.200377    0.401091    0.147481
     20          1           0       -0.170272   -0.845500    1.350785
     21          6           0       -3.974645    0.785095    0.081781
     22          6           0       -3.138741    1.999316   -0.324317
     23          6           0       -3.768755    3.322882    0.110483
     24          1           0       -4.978404    0.876140   -0.355394
     25          1           0       -4.107325    0.788254    1.172553
     26          1           0       -3.006510    1.993111   -1.413855
     27          1           0       -2.136794    1.905274    0.113718
     28          1           0       -3.885700    3.354801    1.198558
     29          1           0       -4.760357    3.443136   -0.337694
     30          1           0       -3.154738    4.177621   -0.189955
     31          6           0       -3.357842   -0.545458   -0.345900
     32          6           0       -4.193745   -1.759679    0.060199
     33          6           0       -3.563732   -3.083245   -0.374602
     34          1           0       -3.225161   -0.548618   -1.436670
     35          1           0       -2.354082   -0.636504    0.091276
     36          1           0       -5.195692   -1.665638   -0.377836
     37          1           0       -4.325976   -1.753474    1.149737
     38          1           0       -2.572129   -3.203500    0.073576
     39          1           0       -3.446786   -3.115164   -1.462676
     40          1           0       -4.177749   -3.937985   -0.074163
 ---------------------------------------------------------------------

 SCF Done:  E(RHF) =  -470.733006983     A.U. after   11 cycles
 E2 =    -0.1583216436D+01 EUMP2 =    -0.47231622341923D+03

 The electronic state is 1-A.
 Alpha  occ. eigenvalues --  -11.21650 -11.21620 -11.21548 -11.21510 -11.21437
 Alpha  occ. eigenvalues --  -11.21376 -11.21298 -11.21173 -11.21158 -11.21086
 Alpha  occ. eigenvalues --  -11.21038 -11.21007  -1.08468  -1.08334  -1.03576
 Alpha  occ. eigenvalues --   -1.03460  -0.96042  -0.95896  -0.87070  -0.86914
 Alpha  occ. eigenvalues --   -0.79671  -0.79517  -0.78303  -0.78098  -0.65100
 Alpha  occ. eigenvalues --   -0.64973  -0.60997  -0.60841  -0.59416  -0.59265
 Alpha  occ. eigenvalues --   -0.57636  -0.57517  -0.55317  -0.55199  -0.52805
 Alpha  occ. eigenvalues --   -0.52611  -0.52451  -0.52296  -0.49981  -0.49842
 Alpha  occ. eigenvalues --   -0.47973  -0.47841  -0.46720  -0.46503  -0.45940
 Alpha  occ. eigenvalues --   -0.45743  -0.45650  -0.45487  -0.43758  -0.43687
 Alpha virt. eigenvalues --    0.21501   0.23003   0.23941   0.24238   0.25533
 Alpha virt. eigenvalues --    0.26608   0.27020   0.27543   0.27962   0.29423
 Alpha virt. eigenvalues --    0.29631   0.31411   0.31734   0.32018   0.32239

 Mulliken charges:
               1
     1  C   -0.298377
     2  C   -0.299651
     3  C   -0.475727
     4  H    0.149673
     5  H    0.149605
     6  H    0.151995
     7  H    0.152030
     8  H    0.155216
     9  H    0.155195
    10  H    0.160342
    11  C   -0.298666
    12  C   -0.300472
    13  C   -0.480489
    14  H    0.149735
    15  H    0.149913
    16  H    0.151976
    17  H    0.152118
    18  H    0.157179
    19  H    0.159144
    20  H    0.158940
    21  C   -0.297335
    22  C   -0.302824
    23  C   -0.475523
    24  H    0.149139
    25  H    0.148685
    26  H    0.151701
    27  H    0.154554
    28  H    0.155020
    29  H    0.155222
    30  H    0.159753
    31  C   -0.310492
    32  C   -0.298849
    33  C   -0.476086
    34  H    0.148249
    35  H    0.166640
    36  H    0.151390
    37  H    0.151029
    38  H    0.155368
    39  H    0.154878
    40  H    0.159800
 Sum of Mulliken charges =  -0.00000

 Dipole moment (field-independent basis, Debye):
    X=              0.0656    Y=             -0.0039    Z=             -0.0012  Tot=              0.0657
 Quadrupole moment (field-independent basis, Debye-Ang):
   XX=            -86.1014   YY=            -84.9772   ZZ=            -84.0640
   XY=              0.0959   XZ=              0.2655   YZ=             -0.0705

 Normal termination of Gaussian 16 at Wed May  5 15:00:49 2021.
