 Gaussian 16, Revision A.03,
 Gaussian 16:  EM64L-G16RevA.03 25-Dec-2016

 -------------
 #p 6-31g* mp2
 -------------

 ------------------------------------------------------
 Input file generated by CHIRIPA (05-May-2021 14:53:17)
 ------------------------------------------------------
 Symbolic Z-matrix:
 Charge =  0 Multiplicity = 1

                         Standard orientation:
 ---------------------------------------------------------------------
 Center     Atomic      Atomic             Coordinates (Angstroms)
 Number     Number       Type             X           Y           Z
 ---------------------------------------------------------------------
      1          6           0        4.432927   -0.065176   -0.359255
      2          6           0        4.670390   -1.272719    0.548178
      3          6           0        5.981515   -1.995925    0.238792
      4          1           0        4.432389   -0.396217   -1.406803
      5          1           0        5.272942    0.635199   -0.253211
      6          1           0        3.829503   -1.969959    0.441492
      7          1           0        4.670171   -0.938795    1.593697
      8          1           0        6.833322   -1.319629    0.363892
      9          1           0        5.987877   -2.356653   -0.794860
     10          1           0        6.131202   -2.855812    0.899132
     11          6           0        3.126171    0.668211   -0.062168
     12          6           0        2.888708    1.875755   -0.969601
     13          6           0        1.577583    2.598960   -0.660215
     14          1           0        2.286156   -0.032164   -0.168212
     15          1           0        3.126708    0.999252    0.985380
     16          1           0        2.888927    1.541830   -2.015120
     17          1           0        3.729595    2.572995   -0.862915
     18          1           0        1.571221    2.959688    0.373437
     19          1           0        0.725776    1.922665   -0.785315
     20          1           0        1.427896    3.458847   -1.320555
     21          6           0       -0.603819    0.202195    0.974992
     22          6           0       -0.823234   -0.666329   -0.099272
     23          6           0       -2.120471   -0.916286   -0.556705
     24          6           0       -3.179861   -0.277881    0.086274
     25          6           0       -2.993589    0.592667    1.158999
     26          6           0       -1.687785    0.827819    1.599599
     27          1           0        0.407234    0.390617    1.323798
     28          1           0        0.016685   -1.153591   -0.586260
     29          1           0       -2.318869   -1.584066   -1.386239
     30          1           0       -3.850931    1.063697    1.624310
     31          1           0       -1.520375    1.502808    2.434109
     32          7           0       -4.557722   -0.534662   -0.389079
     33          8           0       -5.474102    0.040181    0.194394
     34          8           0       -4.695221   -1.305909   -1.336132
 ---------------------------------------------------------------------

 SCF Done:  E(RHF) =  -669.533678905     A.U. after   15 cycles
 E2 =    -0.2094013534D+01 EUMP2 =    -0.67162769243874D+03

 The electronic state is 1-A.
 Alpha  occ. eigenvalues --  -20.60725 -20.60720 -15.85782 -11.31129 -11.27744
 Alpha  occ. eigenvalues --  -11.27728 -11.27370 -11.26712 -11.26683 -11.22692
 Alpha  occ. eigenvalues --  -11.22529 -11.22498 -11.22345 -11.21820 -11.21774
 Alpha  occ. eigenvalues --   -1.59802  -1.39356  -1.19325  -1.09477  -1.08710
 Alpha  occ. eigenvalues --   -1.04732  -1.04426  -0.96883  -0.95550  -0.87895
 Alpha  occ. eigenvalues --   -0.86133  -0.82396  -0.80500  -0.79351  -0.77431
 Alpha  occ. eigenvalues --   -0.72000  -0.71127  -0.70422  -0.66135  -0.64965
 Alpha  occ. eigenvalues --   -0.64723  -0.62106  -0.61786  -0.60258  -0.58527
 Alpha  occ. eigenvalues --   -0.56201  -0.55219  -0.53511  -0.53496  -0.52917
 Alpha  occ. eigenvalues --   -0.52811  -0.50807  -0.48789  -0.48756  -0.48737
 Alpha  occ. eigenvalues --   -0.47530  -0.46786  -0.46767  -0.44766  -0.44721
 Alpha  occ. eigenvalues --   -0.37189  -0.36345
 Alpha virt. eigenvalues --    0.05106   0.11212   0.16566   0.19741   0.22431
 Alpha virt. eigenvalues --    0.23725   0.24388   0.25802   0.27162   0.28209
 Alpha virt. eigenvalues --    0.29276   0.30352   0.30677   0.31386   0.31460

 Mulliken charges:
               1
     1  C   -0.297774
     2  C   -0.300178
     3  C   -0.476279
     4  H    0.152252
     5  H    0.153769
     6  H    0.148776
     7  H    0.152232
     8  H    0.157188
     9  H    0.156729
    10  H    0.162660
    11  C   -0.306286
    12  C   -0.298485
    13  C   -0.485256
    14  H    0.141809
    15  H    0.147648
    16  H    0.154822
    17  H    0.155669
    18  H    0.149355
    19  H    0.163930
    20  H    0.165558
    21  C   -0.171716
    22  C   -0.225218
    23  C   -0.170173
    24  C    0.157567
    25  C   -0.170223
    26  C   -0.220377
    27  H    0.236291
    28  H    0.224429
    29  H    0.275477
    30  H    0.275543
    31  H    0.223487
    32  N    0.488145
    33  O   -0.460590
    34  O   -0.460785
 Sum of Mulliken charges =  -0.00000

 Dipole moment (field-independent basis, Debye):
    X=              5.0546    Y=              0.9481    Z=              1.6315  Tot=              5.3953
 Quadrupole moment (field-independent basis, Debye-Ang):
   XX=           -125.3096   YY=            -93.7616   ZZ=            -91.8780
   XY=             -4.7404   XZ=             -6.1539   YZ=              2.3605

 Normal termination of Gaussian 16 at Thu May  6 18:55:42 2021.
