 Gaussian 16, Revision A.03,
 Gaussian 16:  EM64L-G16RevA.03 25-Dec-2016

 -------------
 #p 6-31g* mp2
 -------------

 ------------------------------------------------------
 Input file generated by CHIRIPA (05-May-2021 14:57:23)
 ------------------------------------------------------
 Symbolic Z-matrix:
 Charge =  0 Multiplicity = 1

                         Standard orientation:
 ---------------------------------------------------------------------
 Center     Atomic      Atomic             Coordinates (Angstroms)
 Number     Number       Type             X           Y           Z
 ---------------------------------------------------------------------
      1          6           0        1.964252    2.641904   -0.288205
      2          6           0        1.598124    1.599453   -1.145974
      3          6           0        2.133556    0.319177   -0.976400
      4          6           0        3.036510    0.115823    0.066007
      5          6           0        3.420967    1.133970    0.937132
      6          6           0        2.872903    2.406251    0.748782
      7          1           0        1.543409    3.633347   -0.427228
      8          1           0        0.892672    1.779556   -1.952166
      9          1           0        1.867473   -0.505918   -1.625889
     10          1           0        4.126495    0.923801    1.731788
     11          1           0        3.159062    3.213939    1.416463
     12          7           0        3.610035   -1.235315    0.255466
     13          8           0        4.403599   -1.388609    1.181422
     14          8           0        3.255140   -2.115460   -0.525579
     15          6           0       -5.102465    0.489032    0.971913
     16          6           0       -4.838241    0.696411   -0.385916
     17          6           0       -3.644475    0.242215   -0.954398
     18          6           0       -2.733119   -0.418510   -0.132105
     19          6           0       -2.967477   -0.640387    1.224043
     20          6           0       -4.167887   -0.177529    1.771150
     21          1           0       -6.032393    0.845227    1.405222
     22          1           0       -5.562218    1.213759   -1.009018
     23          1           0       -3.414425    0.389296   -2.002665
     24          1           0       -2.226497   -1.159406    1.819850
     25          1           0       -4.370414   -0.339994    2.825964
     26          7           0       -1.465815   -0.903932   -0.722617
     27          8           0       -0.679193   -1.483244    0.023211
     28          8           0       -1.283121   -0.695903   -1.920108
 ---------------------------------------------------------------------

 SCF Done:  E(RHF) =  -868.339405232     A.U. after   16 cycles
 E2 =    -0.2600760225D+01 EUMP2 =    -0.87094016545702D+03

 The electronic state is 1-A.
 Alpha  occ. eigenvalues --  -20.61455 -20.61377 -20.59566 -20.59497 -15.86400
 Alpha  occ. eigenvalues --  -15.84586 -11.31633 -11.29925 -11.28207 -11.28148
 Alpha  occ. eigenvalues --  -11.27897 -11.27177 -11.27139 -11.26675 -11.26450
 Alpha  occ. eigenvalues --  -11.26363 -11.25706 -11.25484  -1.60457  -1.58606
 Alpha  occ. eigenvalues --   -1.40015  -1.38156  -1.19790  -1.18163  -1.09213
 Alpha  occ. eigenvalues --   -1.07589  -1.05169  -1.03555  -0.96071  -0.94405
 Alpha  occ. eigenvalues --   -0.86573  -0.84967  -0.82907  -0.81229  -0.77975
 Alpha  occ. eigenvalues --   -0.76239  -0.72629  -0.71763  -0.70895  -0.70819
 Alpha  occ. eigenvalues --   -0.69915  -0.69313  -0.65444  -0.65170  -0.63823
 Alpha  occ. eigenvalues --   -0.63577  -0.62515  -0.60868  -0.55676  -0.54159
 Alpha  occ. eigenvalues --   -0.53511  -0.53256  -0.51934  -0.51655  -0.49417
 Alpha  occ. eigenvalues --   -0.49343  -0.47593  -0.47545  -0.45444  -0.43564
 Alpha  occ. eigenvalues --   -0.37768  -0.36768  -0.36218  -0.35132
 Alpha virt. eigenvalues --    0.04510   0.06294   0.10889   0.12496   0.16051
 Alpha virt. eigenvalues --    0.17701   0.21047   0.22548   0.26974   0.27873
 Alpha virt. eigenvalues --    0.28541   0.29476   0.30671   0.31899   0.32274

 Mulliken charges:
               1
     1  C   -0.172096
     2  C   -0.229115
     3  C   -0.158537
     4  C    0.156814
     5  C   -0.172351
     6  C   -0.220991
     7  H    0.218954
     8  H    0.226464
     9  H    0.290852
    10  H    0.271331
    11  H    0.217174
    12  N    0.488605
    13  O   -0.468526
    14  O   -0.453671
    15  C   -0.170366
    16  C   -0.218752
    17  C   -0.172102
    18  C    0.159097
    19  C   -0.170187
    20  C   -0.218780
    21  H    0.226951
    22  H    0.224022
    23  H    0.273881
    24  H    0.278661
    25  H    0.225469
    26  N    0.488948
    27  O   -0.451462
    28  O   -0.470288
 Sum of Mulliken charges =  -0.00000

 Dipole moment (field-independent basis, Debye):
    X=             -6.8385    Y=              6.1040    Z=              1.3528  Tot=              9.2657
 Quadrupole moment (field-independent basis, Debye-Ang):
   XX=            -92.6795   YY=           -105.8338   ZZ=            -98.9281
   XY=             11.1873   XZ=             -4.4628   YZ=             -1.2711

 Normal termination of Gaussian 16 at Fri May  7 07:58:33 2021.
