 Gaussian 16, Revision A.03,
 Gaussian 16:  EM64L-G16RevA.03 25-Dec-2016

 -------------
 #p 6-31g* mp2
 -------------

 ------------------------------------------------------
 Input file generated by CHIRIPA (05-May-2021 14:51:08)
 ------------------------------------------------------
 Symbolic Z-matrix:
 Charge =  0 Multiplicity = 1

                         Standard orientation:
 ---------------------------------------------------------------------
 Center     Atomic      Atomic             Coordinates (Angstroms)
 Number     Number       Type             X           Y           Z
 ---------------------------------------------------------------------
      1          6           0       -3.934985   -0.016316    0.072501
      2          6           0       -4.721322   -0.967046   -0.830700
      3          6           0       -6.000709   -0.336435   -1.381420
      4          1           0       -4.576423    0.302317    0.905553
      5          1           0       -3.683341    0.891478   -0.493167
      6          1           0       -4.970212   -1.873370   -0.263913
      7          1           0       -4.077875   -1.283603   -1.661593
      8          1           0       -5.767484    0.556707   -1.970066
      9          1           0       -6.664891   -0.036410   -0.564444
     10          1           0       -6.547233   -1.033370   -2.024422
     11          6           0       -2.653374   -0.632372    0.630783
     12          6           0       -1.867037    0.318358    1.533983
     13          6           0       -0.587650   -0.312253    2.084703
     14          1           0       -2.905018   -1.540166    1.196450
     15          1           0       -2.011936   -0.951005   -0.202269
     16          1           0       -2.510484    0.634915    2.364877
     17          1           0       -1.618147    1.224682    0.967196
     18          1           0        0.076532   -0.612278    1.267728
     19          1           0       -0.820875   -1.205395    2.673350
     20          1           0       -0.041127    0.384683    2.727706
     21          6           0        3.683674   -0.215790   -0.725783
     22          6           0        4.342227   -1.239430    0.199666
     23          6           0        5.117740   -2.313581   -0.563599
     24          1           0        3.007114   -0.737343   -1.416575
     25          1           0        4.457138    0.259363   -1.344957
     26          1           0        3.567919   -1.711522    0.817884
     27          1           0        5.017152   -0.715358    0.888462
     28          1           0        5.910436   -1.860412   -1.167645
     29          1           0        4.452969   -2.862235   -1.238624
     30          1           0        5.580365   -3.034855    0.117285
     31          6           0        2.904686    0.864478    0.022498
     32          6           0        2.246132    1.888119   -0.902949
     33          6           0        1.470619    2.962269   -0.139684
     34          1           0        2.131221    0.389325    0.641674
     35          1           0        3.581245    1.386031    0.713291
     36          1           0        1.571206    1.364047   -1.591745
     37          1           0        3.020440    2.360209   -1.521167
     38          1           0        2.135391    3.510923    0.535340
     39          1           0        0.677922    2.509099    0.464361
     40          1           0        1.007994    3.683543   -0.820569
 ---------------------------------------------------------------------

 SCF Done:  E(RHF) =  -470.732993125     A.U. after   11 cycles
 E2 =    -0.1583480212D+01 EUMP2 =    -0.47231647333679D+03

 The electronic state is 1-A.
 Alpha  occ. eigenvalues --  -11.21677 -11.21633 -11.21587 -11.21574 -11.21458
 Alpha  occ. eigenvalues --  -11.21394 -11.21360 -11.21274 -11.21156 -11.21094
 Alpha  occ. eigenvalues --  -11.21058 -11.21050  -1.08489  -1.08396  -1.03600
 Alpha  occ. eigenvalues --   -1.03499  -0.96042  -0.95956  -0.87070  -0.86964
 Alpha  occ. eigenvalues --   -0.79658  -0.79569  -0.78300  -0.78205  -0.65232
 Alpha  occ. eigenvalues --   -0.64950  -0.61148  -0.60756  -0.59421  -0.59303
 Alpha  occ. eigenvalues --   -0.57690  -0.57532  -0.55372  -0.55227  -0.52742
 Alpha  occ. eigenvalues --   -0.52651  -0.52494  -0.52358  -0.50139  -0.49781
 Alpha  occ. eigenvalues --   -0.48002  -0.47864  -0.46704  -0.46598  -0.45901
 Alpha  occ. eigenvalues --   -0.45752  -0.45735  -0.45493  -0.43834  -0.43755
 Alpha virt. eigenvalues --    0.20190   0.23073   0.23521   0.25215   0.25938
 Alpha virt. eigenvalues --    0.26287   0.26993   0.27316   0.28321   0.29295
 Alpha virt. eigenvalues --    0.30545   0.31502   0.31757   0.31968   0.32189

 Mulliken charges:
               1
     1  C   -0.298497
     2  C   -0.299699
     3  C   -0.475753
     4  H    0.149855
     5  H    0.149886
     6  H    0.151976
     7  H    0.151907
     8  H    0.155304
     9  H    0.155263
    10  H    0.160351
    11  C   -0.298257
    12  C   -0.304192
    13  C   -0.480239
    14  H    0.149774
    15  H    0.149462
    16  H    0.152760
    17  H    0.155348
    18  H    0.158195
    19  H    0.155942
    20  H    0.161618
    21  C   -0.297886
    22  C   -0.299783
    23  C   -0.475650
    24  H    0.148735
    25  H    0.149402
    26  H    0.152142
    27  H    0.152010
    28  H    0.155111
    29  H    0.155016
    30  H    0.160241
    31  C   -0.307209
    32  C   -0.298721
    33  C   -0.481580
    34  H    0.159207
    35  H    0.149356
    36  H    0.150659
    37  H    0.151958
    38  H    0.155341
    39  H    0.160808
    40  H    0.159839
 Sum of Mulliken charges =  -0.00000

 Dipole moment (field-independent basis, Debye):
    X=             -0.0393    Y=             -0.0097    Z=              0.0374  Tot=              0.0551
 Quadrupole moment (field-independent basis, Debye-Ang):
   XX=            -85.0853   YY=            -85.2024   ZZ=            -84.4911
   XY=              1.4655   XZ=             -0.5578   YZ=             -0.4335

 Normal termination of Gaussian 16 at Wed May  5 21:18:51 2021.
