 Gaussian 16, Revision A.03,
 Gaussian 16:  EM64L-G16RevA.03 25-Dec-2016

 -------------
 #p 6-31g* mp2
 -------------

 ------------------------------------------------------
 Input file generated by CHIRIPA (05-May-2021 14:55:23)
 ------------------------------------------------------
 Symbolic Z-matrix:
 Charge =  0 Multiplicity = 1

                         Standard orientation:
 ---------------------------------------------------------------------
 Center     Atomic      Atomic             Coordinates (Angstroms)
 Number     Number       Type             X           Y           Z
 ---------------------------------------------------------------------
      1          6           0       -1.881272    2.237590   -0.614337
      2          6           0       -1.163999    1.036747   -0.618603
      3          6           0       -1.821512   -0.183664   -0.437444
      4          6           0       -3.203287   -0.166293   -0.253904
      5          6           0       -3.945793    1.013490   -0.244654
      6          6           0       -3.267436    2.222156   -0.427705
      7          1           0       -1.362403    3.181072   -0.755800
      8          1           0       -0.087420    1.045705   -0.763321
      9          1           0       -1.290814   -1.128003   -0.436335
     10          1           0       -5.018293    0.972646   -0.098047
     11          1           0       -3.827057    3.153206   -0.423930
     12          7           0       -3.910401   -1.452071   -0.061118
     13          8           0       -5.128326   -1.409822    0.098601
     14          8           0       -3.233321   -2.477766   -0.073381
     15          6           0        3.613956    0.003902    1.048258
     16          6           0        2.123185    0.332393    0.960633
     17          6           0        1.462864    0.453800    2.334324
     18          1           0        3.743987   -0.935136    1.603456
     19          1           0        4.120691    0.784865    1.631964
     20          1           0        1.619643   -0.448233    0.376093
     21          1           0        1.996676    1.270658    0.405413
     22          1           0        1.938766    1.245555    2.921897
     23          1           0        1.559591   -0.483102    2.892411
     24          1           0        0.397431    0.688967    2.248247
     25          6           0        4.288114   -0.120685   -0.316923
     26          6           0        5.778886   -0.449175   -0.229297
     27          6           0        6.439207   -0.570583   -1.602990
     28          1           0        3.781380   -0.901648   -0.900629
     29          1           0        4.158084    0.818353   -0.872121
     30          1           0        5.905394   -1.387442    0.325922
     31          1           0        6.282427    0.331449    0.355242
     32          1           0        6.342480    0.366319   -2.161075
     33          1           0        5.963305   -1.362339   -2.190561
     34          1           0        7.504639   -0.805751   -1.516911
 ---------------------------------------------------------------------

 SCF Done:  E(RHF) =  -669.535096093     A.U. after   15 cycles
 E2 =    -0.2092448451D+01 EUMP2 =    -0.67162754454457D+03

 The electronic state is 1-A.
 Alpha  occ. eigenvalues --  -20.60736 -20.60731 -15.85788 -11.31147 -11.27711
 Alpha  occ. eigenvalues --  -11.27698 -11.27436 -11.26731 -11.26622 -11.22598
 Alpha  occ. eigenvalues --  -11.22079 -11.22059 -11.21973 -11.21676 -11.21460
 Alpha  occ. eigenvalues --   -1.59811  -1.39365  -1.19314  -1.09102  -1.08707
 Alpha  occ. eigenvalues --   -1.04724  -1.04156  -0.96560  -0.95547  -0.87576
 Alpha  occ. eigenvalues --   -0.86112  -0.82390  -0.80298  -0.78933  -0.77405
 Alpha  occ. eigenvalues --   -0.72007  -0.71134  -0.70423  -0.65731  -0.64960
 Alpha  occ. eigenvalues --   -0.64728  -0.62117  -0.61558  -0.59910  -0.58184
 Alpha  occ. eigenvalues --   -0.55826  -0.55208  -0.53313  -0.53129  -0.52830
 Alpha  occ. eigenvalues --   -0.52787  -0.50500  -0.48795  -0.48763  -0.48506
 Alpha  occ. eigenvalues --   -0.47325  -0.46424  -0.46358  -0.44772  -0.44403
 Alpha  occ. eigenvalues --   -0.37293  -0.36290
 Alpha virt. eigenvalues --    0.05087   0.11297   0.16518   0.20404   0.22522
 Alpha virt. eigenvalues --    0.23929   0.25216   0.25725   0.27443   0.27959
 Alpha virt. eigenvalues --    0.28858   0.30272   0.31044   0.31408   0.31890

 Mulliken charges:
               1
     1  C   -0.173481
     2  C   -0.220836
     3  C   -0.174831
     4  C    0.158846
     5  C   -0.171313
     6  C   -0.218361
     7  H    0.225269
     8  H    0.233987
     9  H    0.275439
    10  H    0.275413
    11  H    0.223172
    12  N    0.488192
    13  O   -0.460575
    14  O   -0.460627
    15  C   -0.297196
    16  C   -0.305127
    17  C   -0.479151
    18  H    0.154102
    19  H    0.151795
    20  H    0.147616
    21  H    0.144523
    22  H    0.156682
    23  H    0.160541
    24  H    0.164596
    25  C   -0.299213
    26  C   -0.300156
    27  C   -0.476158
    28  H    0.149809
    29  H    0.147189
    30  H    0.154092
    31  H    0.152700
    32  H    0.154717
    33  H    0.156212
    34  H    0.162132
 Sum of Mulliken charges =  -0.00000

 Dipole moment (field-independent basis, Debye):
    X=              2.6578    Y=              4.4949    Z=             -0.5967  Tot=              5.2558
 Quadrupole moment (field-independent basis, Debye-Ang):
   XX=           -106.8337   YY=            -94.5925   ZZ=            -95.8492
   XY=            -17.3940   XZ=              1.8992   YZ=             -0.9598

 Normal termination of Gaussian 16 at Thu May  6 12:37:16 2021.
