 Gaussian 16, Revision A.03,
 Gaussian 16:  EM64L-G16RevA.03 25-Dec-2016

 -------------
 #p 6-31g* mp2
 -------------

 ------------------------------------------------------
 Input file generated by CHIRIPA (05-May-2021 14:55:23)
 ------------------------------------------------------
 Symbolic Z-matrix:
 Charge =  0 Multiplicity = 1

                         Standard orientation:
 ---------------------------------------------------------------------
 Center     Atomic      Atomic             Coordinates (Angstroms)
 Number     Number       Type             X           Y           Z
 ---------------------------------------------------------------------
      1          6           0       -2.427033   -2.735409   -0.014557
      2          6           0       -2.700752   -1.972627   -1.154629
      3          6           0       -2.587715   -0.579562   -1.120831
      4          6           0       -2.196794    0.020536    0.075142
      5          6           0       -1.917206   -0.712019    1.227741
      6          6           0       -2.036821   -2.103784    1.170899
      7          1           0       -2.517398   -3.817070   -0.049763
      8          1           0       -3.003994   -2.460454   -2.076645
      9          1           0       -2.793553    0.035155   -1.988685
     10          1           0       -1.617009   -0.197267    2.132357
     11          1           0       -1.823612   -2.693634    2.057839
     12          7           0       -2.073644    1.494623    0.123121
     13          8           0       -1.727478    1.999282    1.189012
     14          8           0       -2.325618    2.117442   -0.906075
     15          6           0        3.035718   -0.356155   -0.451592
     16          6           0        3.623305   -1.424070    0.471601
     17          6           0        4.014249   -2.700218   -0.274324
     18          1           0        2.155177   -0.767526   -0.963810
     19          1           0        3.768184   -0.114699   -1.234272
     20          1           0        2.890486   -1.662439    1.253121
     21          1           0        4.502435   -1.010047    0.981825
     22          1           0        4.763392   -2.483198   -1.042626
     23          1           0        3.142283   -3.139298   -0.769789
     24          1           0        4.432018   -3.450105    0.404644
     25          6           0        2.640033    0.925527    0.279470
     26          6           0        2.052446    1.993443   -0.643722
     27          6           0        1.661501    3.269590    0.102203
     28          1           0        1.907567    0.684071    1.062150
     29          1           0        3.520573    1.336898    0.791688
     30          1           0        1.173315    1.579418   -1.153946
     31          1           0        2.785265    2.231812   -1.425242
     32          1           0        2.533467    3.708670    0.597667
     33          1           0        0.912359    3.052570    0.870505
     34          1           0        1.243732    4.019478   -0.576765
 ---------------------------------------------------------------------

 SCF Done:  E(RHF) =  -669.536387045     A.U. after   15 cycles
 E2 =    -0.2092308562D+01 EUMP2 =    -0.67162869560714D+03

 The electronic state is 1-A.
 Alpha  occ. eigenvalues --  -20.60998 -20.60990 -15.86018 -11.31342 -11.27900
 Alpha  occ. eigenvalues --  -11.27891 -11.27626 -11.26900 -11.26890 -11.21555
 Alpha  occ. eigenvalues --  -11.21163 -11.21131 -11.20940 -11.20859 -11.19794
 Alpha  occ. eigenvalues --   -1.60047  -1.39604  -1.19502  -1.08906  -1.08072
 Alpha  occ. eigenvalues --   -1.04896  -1.03069  -0.95751  -0.95489  -0.86508
 Alpha  occ. eigenvalues --   -0.86295  -0.82581  -0.79181  -0.77836  -0.77636
 Alpha  occ. eigenvalues --   -0.72238  -0.71373  -0.70606  -0.65157  -0.64896
 Alpha  occ. eigenvalues --   -0.64709  -0.62242  -0.60462  -0.58942  -0.57088
 Alpha  occ. eigenvalues --   -0.55398  -0.54779  -0.53223  -0.52986  -0.52164
 Alpha  occ. eigenvalues --   -0.51917  -0.49499  -0.48997  -0.48937  -0.47467
 Alpha  occ. eigenvalues --   -0.46268  -0.45429  -0.45369  -0.44789  -0.43330
 Alpha  occ. eigenvalues --   -0.37475  -0.36495
 Alpha virt. eigenvalues --    0.04857   0.11132   0.16321   0.21245   0.23006
 Alpha virt. eigenvalues --    0.24668   0.26694   0.27186   0.27749   0.28315
 Alpha virt. eigenvalues --    0.28677   0.30794   0.31841   0.31922   0.32339

 Mulliken charges:
               1
     1  C   -0.170611
     2  C   -0.218524
     3  C   -0.171129
     4  C    0.158192
     5  C   -0.171337
     6  C   -0.218520
     7  H    0.226324
     8  H    0.224138
     9  H    0.276161
    10  H    0.275814
    11  H    0.224149
    12  N    0.489037
    13  O   -0.459706
    14  O   -0.458335
    15  C   -0.297567
    16  C   -0.298315
    17  C   -0.475203
    18  H    0.147259
    19  H    0.149435
    20  H    0.148148
    21  H    0.152717
    22  H    0.156067
    23  H    0.152407
    24  H    0.158593
    25  C   -0.297938
    26  C   -0.299533
    27  C   -0.483083
    28  H    0.147554
    29  H    0.149088
    30  H    0.148736
    31  H    0.148765
    32  H    0.147426
    33  H    0.175911
    34  H    0.163882
 Sum of Mulliken charges =  -0.00000

 Dipole moment (field-independent basis, Debye):
    X=             -0.6495    Y=             -5.1125    Z=             -0.1463  Tot=              5.1557
 Quadrupole moment (field-independent basis, Debye-Ang):
   XX=            -92.8511   YY=            -96.2494   ZZ=            -90.3726
   XY=             12.1384   XZ=              1.9358   YZ=             -1.0637

 Normal termination of Gaussian 16 at Thu May  6 07:53:18 2021.
