 Gaussian 16, Revision A.03,
 Gaussian 16:  EM64L-G16RevA.03 25-Dec-2016

 -------------
 #p 6-31g* mp2
 -------------

 ------------------------------------------------------
 Input file generated by CHIRIPA (05-May-2021 14:57:24)
 ------------------------------------------------------
 Symbolic Z-matrix:
 Charge =  0 Multiplicity = 1

                         Standard orientation:
 ---------------------------------------------------------------------
 Center     Atomic      Atomic             Coordinates (Angstroms)
 Number     Number       Type             X           Y           Z
 ---------------------------------------------------------------------
      1          6           0        5.054095    1.493157   -0.448735
      2          6           0        4.643916    1.377096    0.883482
      3          6           0        3.636672    0.475603    1.240296
      4          6           0        3.058644   -0.297738    0.234753
      5          6           0        3.445529   -0.205081   -1.101296
      6          6           0        4.454649    0.703091   -1.435133
      7          1           0        5.837276    2.196053   -0.716993
      8          1           0        5.107677    1.989394    1.651638
      9          1           0        3.299901    0.365478    2.263954
     10          1           0        2.964503   -0.828919   -1.844840
     11          1           0        4.771185    0.791100   -2.470558
     12          7           0        1.991326   -1.255644    0.600333
     13          8           0        1.497893   -1.925587   -0.304287
     14          8           0        1.668406   -1.318370    1.784574
     15          6           0       -4.014886    2.506745    0.219041
     16          6           0       -2.866325    2.265764   -0.542048
     17          6           0       -2.424718    0.958430   -0.766564
     18          6           0       -3.159111   -0.088957   -0.212547
     19          6           0       -4.307319    0.118823    0.550169
     20          6           0       -4.730456    1.434396    0.761764
     21          1           0       -4.350763    3.525513    0.388433
     22          1           0       -2.308620    3.096621   -0.964763
     23          1           0       -1.538954    0.743358   -1.351873
     24          1           0       -4.842360   -0.729902    0.958600
     25          1           0       -5.622801    1.618556    1.353246
     26          7           0       -2.701379   -1.477334   -0.443392
     27          8           0       -3.366032   -2.382788    0.055632
     28          8           0       -1.686621   -1.633801   -1.118983
 ---------------------------------------------------------------------

 SCF Done:  E(RHF) =  -868.335240860     A.U. after   16 cycles
 E2 =    -0.2600674991D+01 EUMP2 =    -0.87093591585106D+03

 The electronic state is 1-A.
 Alpha  occ. eigenvalues --  -20.60198 -20.60071 -20.59763 -20.59658 -15.85185
 Alpha  occ. eigenvalues --  -15.84768 -11.30893 -11.30510 -11.27509 -11.27475
 Alpha  occ. eigenvalues --  -11.27304 -11.27142 -11.27114 -11.26955 -11.26593
 Alpha  occ. eigenvalues --  -11.26575 -11.26254 -11.26220  -1.59211  -1.58773
 Alpha  occ. eigenvalues --   -1.38751  -1.38319  -1.19099  -1.18720  -1.08432
 Alpha  occ. eigenvalues --   -1.08048  -1.04545  -1.04186  -0.95205  -0.94818
 Alpha  occ. eigenvalues --   -0.85926  -0.85567  -0.82032  -0.81650  -0.77026
 Alpha  occ. eigenvalues --   -0.76636  -0.71423  -0.70964  -0.70557  -0.70195
 Alpha  occ. eigenvalues --   -0.70077  -0.69838  -0.64735  -0.64546  -0.64368
 Alpha  occ. eigenvalues --   -0.64205  -0.61881  -0.61536  -0.55035  -0.54687
 Alpha  occ. eigenvalues --   -0.52870  -0.52635  -0.52486  -0.52293  -0.48191
 Alpha  occ. eigenvalues --   -0.48144  -0.47756  -0.47728  -0.44169  -0.43512
 Alpha  occ. eigenvalues --   -0.37105  -0.36718  -0.36172  -0.35806
 Alpha virt. eigenvalues --    0.05474   0.05956   0.11477   0.11844   0.16907
 Alpha virt. eigenvalues --    0.17372   0.21604   0.21896   0.27496   0.27763
 Alpha virt. eigenvalues --    0.28521   0.28831   0.31107   0.31426   0.32759

 Mulliken charges:
               1
     1  C   -0.172242
     2  C   -0.218878
     3  C   -0.172280
     4  C    0.157806
     5  C   -0.173205
     6  C   -0.219155
     7  H    0.223912
     8  H    0.221833
     9  H    0.275041
    10  H    0.278663
    11  H    0.222458
    12  N    0.485367
    13  O   -0.444278
    14  O   -0.464801
    15  C   -0.172041
    16  C   -0.218467
    17  C   -0.171075
    18  C    0.161551
    19  C   -0.170713
    20  C   -0.218370
    21  H    0.222470
    22  H    0.219311
    23  H    0.273820
    24  H    0.275618
    25  H    0.221402
    26  N    0.488542
    27  O   -0.463182
    28  O   -0.449107
 Sum of Mulliken charges =  -0.00000

 Dipole moment (field-independent basis, Debye):
    X=              2.1681    Y=              7.9465    Z=             -0.5724  Tot=              8.2569
 Quadrupole moment (field-independent basis, Debye-Ang):
   XX=            -71.0057   YY=           -108.1104   ZZ=           -100.5304
   XY=             -4.3398   XZ=             -7.5456   YZ=              0.7701

 Normal termination of Gaussian 16 at Fri May  7 06:29:25 2021.
