 Gaussian 16, Revision A.03,
 Gaussian 16:  EM64L-G16RevA.03 25-Dec-2016

 -------------
 #p 6-31g* mp2
 -------------

 ------------------------------------------------------
 Input file generated by CHIRIPA (05-May-2021 14:57:25)
 ------------------------------------------------------
 Symbolic Z-matrix:
 Charge =  0 Multiplicity = 1

                         Standard orientation:
 ---------------------------------------------------------------------
 Center     Atomic      Atomic             Coordinates (Angstroms)
 Number     Number       Type             X           Y           Z
 ---------------------------------------------------------------------
      1          6           0        1.637690    1.862784    1.921552
      2          6           0        1.748716    0.545763    2.379426
      3          6           0        2.116815   -0.481227    1.505160
      4          6           0        2.367696   -0.154069    0.173501
      5          6           0        2.265579    1.148351   -0.312877
      6          6           0        1.896021    2.159352    0.579228
      7          1           0        1.351176    2.654364    2.607632
      8          1           0        1.548694    0.312514    3.421363
      9          1           0        2.210267   -1.509434    1.832995
     10          1           0        2.471305    1.349991   -1.357117
     11          1           0        1.810583    3.181266    0.220845
     12          7           0        2.758159   -1.232834   -0.761489
     13          8           0        2.973838   -0.918540   -1.929966
     14          8           0        2.841130   -2.372237   -0.308153
     15          6           0       -1.434298    2.004535   -1.551055
     16          6           0       -0.877500    0.745576   -1.799089
     17          6           0       -1.351119   -0.385152   -1.127011
     18          6           0       -2.387359   -0.219809   -0.209319
     19          6           0       -2.962741    1.021128    0.059568
     20          6           0       -2.473310    2.138057   -0.624152
     21          1           0       -1.060237    2.877552   -2.077663
     22          1           0       -0.070494    0.638892   -2.518396
     23          1           0       -0.938270   -1.371614   -1.299824
     24          1           0       -3.766185    1.095987    0.782267
     25          1           0       -2.907633    3.114543   -0.429514
     26          7           0       -2.897129   -1.409556    0.508343
     27          8           0       -3.810920   -1.237305    1.312054
     28          8           0       -2.373242   -2.491803    0.253545
 ---------------------------------------------------------------------

 SCF Done:  E(RHF) =  -868.336854208     A.U. after   16 cycles
 E2 =    -0.2603583283D+01 EUMP2 =    -0.87094043749073D+03

 The electronic state is 1-A.
 Alpha  occ. eigenvalues --  -20.61299 -20.61239 -20.60846 -20.60820 -15.86304
 Alpha  occ. eigenvalues --  -15.85886 -11.31545 -11.31292 -11.28215 -11.28063
 Alpha  occ. eigenvalues --  -11.27880 -11.27854 -11.27777 -11.27642 -11.27175
 Alpha  occ. eigenvalues --  -11.27047 -11.26952 -11.26823  -1.60347  -1.59914
 Alpha  occ. eigenvalues --   -1.39902  -1.39463  -1.19744  -1.19455  -1.09149
 Alpha  occ. eigenvalues --   -1.08873  -1.05143  -1.04855  -0.96002  -0.95697
 Alpha  occ. eigenvalues --   -0.86556  -0.86263  -0.82839  -0.82517  -0.77913
 Alpha  occ. eigenvalues --   -0.77543  -0.72518  -0.72103  -0.71688  -0.71241
 Alpha  occ. eigenvalues --   -0.70864  -0.70602  -0.65397  -0.65177  -0.65117
 Alpha  occ. eigenvalues --   -0.64854  -0.62520  -0.62169  -0.55637  -0.55420
 Alpha  occ. eigenvalues --   -0.53967  -0.53249  -0.52939  -0.52695  -0.49298
 Alpha  occ. eigenvalues --   -0.49260  -0.48872  -0.48853  -0.45320  -0.44860
 Alpha  occ. eigenvalues --   -0.37878  -0.37851  -0.36654  -0.35901
 Alpha virt. eigenvalues --    0.04521   0.04993   0.10398   0.11678   0.16011
 Alpha virt. eigenvalues --    0.16622   0.20199   0.21793   0.25960   0.26945
 Alpha virt. eigenvalues --    0.28105   0.28782   0.29812   0.31369   0.31889

 Mulliken charges:
               1
     1  C   -0.169437
     2  C   -0.218261
     3  C   -0.169534
     4  C    0.158034
     5  C   -0.171283
     6  C   -0.214155
     7  H    0.226075
     8  H    0.227284
     9  H    0.280234
    10  H    0.268480
    11  H    0.218623
    12  N    0.485989
    13  O   -0.467584
    14  O   -0.453211
    15  C   -0.172312
    16  C   -0.219530
    17  C   -0.173960
    18  C    0.159243
    19  C   -0.172463
    20  C   -0.219301
    21  H    0.221107
    22  H    0.231080
    23  H    0.281776
    24  H    0.274323
    25  H    0.220913
    26  N    0.487145
    27  O   -0.462475
    28  O   -0.456798
 Sum of Mulliken charges =  -0.00000

 Dipole moment (field-independent basis, Debye):
    X=              0.4810    Y=              7.7899    Z=              0.9375  Tot=              7.8608
 Quadrupole moment (field-independent basis, Debye-Ang):
   XX=           -119.4380   YY=           -104.7854   ZZ=            -99.3345
   XY=             -3.2138   XZ=             11.6253   YZ=             -1.2862

 Normal termination of Gaussian 16 at Wed May  5 22:47:43 2021.
