 Gaussian 16, Revision A.03,
 Gaussian 16:  EM64L-G16RevA.03 25-Dec-2016

 -------------
 #p 6-31g* mp2
 -------------

 ------------------------------------------------------
 Input file generated by CHIRIPA (05-May-2021 14:51:07)
 ------------------------------------------------------
 Symbolic Z-matrix:
 Charge =  0 Multiplicity = 1

                         Standard orientation:
 ---------------------------------------------------------------------
 Center     Atomic      Atomic             Coordinates (Angstroms)
 Number     Number       Type             X           Y           Z
 ---------------------------------------------------------------------
      1          6           0       -4.188950   -0.035722    0.341090
      2          6           0       -5.124155    0.818029   -0.515932
      3          6           0       -6.442350    1.140087    0.188648
      4          1           0       -4.699993   -0.970073    0.610845
      5          1           0       -3.983080    0.491165    1.283111
      6          1           0       -5.327093    0.290307   -1.456645
      7          1           0       -4.610757    1.750373   -0.783838
      8          1           0       -6.258355    1.688215    1.118327
      9          1           0       -6.978762    0.219853    0.441697
     10          1           0       -7.095718    1.751181   -0.441855
     11          6           0       -2.867001   -0.366009   -0.349627
     12          6           0       -1.931797   -1.219760    0.507395
     13          6           0       -0.613601   -1.541817   -0.197185
     14          1           0       -3.072871   -0.892896   -1.291647
     15          1           0       -2.355959    0.568343   -0.619382
     16          1           0       -2.445195   -2.152103    0.775301
     17          1           0       -1.728858   -0.692038    1.448109
     18          1           0       -0.077190   -0.621584   -0.450233
     19          1           0       -0.797596   -2.089945   -1.126863
     20          1           0        0.039766   -2.152912    0.433319
     21          6           0        3.436620   -0.463722    0.369522
     22          6           0        3.334945   -1.664155   -0.572077
     23          6           0        3.152427   -2.986495    0.173507
     24          1           0        4.278195   -0.616785    1.058919
     25          1           0        2.530259   -0.414494    0.988781
     26          1           0        4.240616   -1.710295   -1.190337
     27          1           0        2.493632   -1.508127   -1.259437
     28          1           0        2.239384   -2.965495    0.777254
     29          1           0        3.996294   -3.168812    0.846746
     30          1           0        3.082044   -3.831300   -0.518745
     31          6           0        3.619332    0.865452   -0.360986
     32          6           0        3.721007    2.065885    0.580614
     33          6           0        3.903524    3.388226   -0.164970
     34          1           0        4.525693    0.816225   -0.980244
     35          1           0        2.777756    1.018516   -1.050382
     36          1           0        4.562319    1.909857    1.267974
     37          1           0        2.815336    2.112025    1.198874
     38          1           0        3.059658    3.570542   -0.838210
     39          1           0        4.816568    3.367226   -0.768718
     40          1           0        3.973907    4.233030    0.527282
 ---------------------------------------------------------------------

 SCF Done:  E(RHF) =  -470.732899561     A.U. after   11 cycles
 E2 =    -0.1583346664D+01 EUMP2 =    -0.47231624622495D+03

 The electronic state is 1-A.
 Alpha  occ. eigenvalues --  -11.21661 -11.21631 -11.21591 -11.21494 -11.21450
 Alpha  occ. eigenvalues --  -11.21389 -11.21365 -11.21287 -11.21137 -11.21094
 Alpha  occ. eigenvalues --  -11.21068 -11.20995  -1.08480  -1.08379  -1.03598
 Alpha  occ. eigenvalues --   -1.03467  -0.96046  -0.95926  -0.87055  -0.86955
 Alpha  occ. eigenvalues --   -0.79647  -0.79547  -0.78288  -0.78195  -0.65147
 Alpha  occ. eigenvalues --   -0.64992  -0.61040  -0.60894  -0.59395  -0.59275
 Alpha  occ. eigenvalues --   -0.57686  -0.57517  -0.55357  -0.55208  -0.52722
 Alpha  occ. eigenvalues --   -0.52633  -0.52479  -0.52318  -0.50028  -0.49820
 Alpha  occ. eigenvalues --   -0.47972  -0.47860  -0.46678  -0.46561  -0.45860
 Alpha  occ. eigenvalues --   -0.45766  -0.45694  -0.45632  -0.43806  -0.43729
 Alpha virt. eigenvalues --    0.20627   0.23027   0.23608   0.24857   0.25809
 Alpha virt. eigenvalues --    0.26570   0.26703   0.27674   0.27776   0.29327
 Alpha virt. eigenvalues --    0.30416   0.31204   0.31728   0.31820   0.32221

 Mulliken charges:
               1
     1  C   -0.298263
     2  C   -0.299660
     3  C   -0.475730
     4  H    0.149799
     5  H    0.149571
     6  H    0.151995
     7  H    0.151940
     8  H    0.155228
     9  H    0.155244
    10  H    0.160359
    11  C   -0.298698
    12  C   -0.300219
    13  C   -0.481428
    14  H    0.149695
    15  H    0.149435
    16  H    0.152320
    17  H    0.151815
    18  H    0.156006
    19  H    0.155615
    20  H    0.165729
    21  C   -0.299716
    22  C   -0.301575
    23  C   -0.478342
    24  H    0.149229
    25  H    0.151206
    26  H    0.151352
    27  H    0.156501
    28  H    0.157214
    29  H    0.154671
    30  H    0.160012
    31  C   -0.298945
    32  C   -0.299508
    33  C   -0.475642
    34  H    0.149614
    35  H    0.149328
    36  H    0.152028
    37  H    0.151479
    38  H    0.154919
    39  H    0.155280
    40  H    0.160144
 Sum of Mulliken charges =  -0.00000

 Dipole moment (field-independent basis, Debye):
    X=             -0.0337    Y=             -0.0153    Z=             -0.0092  Tot=              0.0381
 Quadrupole moment (field-independent basis, Debye-Ang):
   XX=            -84.6755   YY=            -85.2401   ZZ=            -84.9417
   XY=              0.4599   XZ=              0.6181   YZ=              0.6428

 Normal termination of Gaussian 16 at Thu May  6 02:03:34 2021.
