 Gaussian 16, Revision A.03,
 Gaussian 16:  EM64L-G16RevA.03 25-Dec-2016

 -------------
 #p 6-31g* mp2
 -------------

 ------------------------------------------------------
 Input file generated by CHIRIPA (05-May-2021 14:53:11)
 ------------------------------------------------------
 Symbolic Z-matrix:
 Charge =  0 Multiplicity = 1

                         Standard orientation:
 ---------------------------------------------------------------------
 Center     Atomic      Atomic             Coordinates (Angstroms)
 Number     Number       Type             X           Y           Z
 ---------------------------------------------------------------------
      1          6           0       -5.045603    0.080795   -0.210970
      2          6           0       -5.368844    1.508635    0.230360
      3          6           0       -6.678361    2.028734   -0.363322
      4          1           0       -4.991955    0.046063   -1.307720
      5          1           0       -5.871242   -0.582118    0.082735
      6          1           0       -4.542213    2.168420   -0.062865
      7          1           0       -5.421540    1.540011    1.326195
      8          1           0       -7.517544    1.394293   -0.060242
      9          1           0       -6.633221    2.026273   -1.457194
     10          1           0       -6.890010    3.051056   -0.034807
     11          6           0       -3.739443   -0.453169    0.374314
     12          6           0       -3.416203   -1.881010   -0.067015
     13          6           0       -2.106686   -2.401109    0.526666
     14          1           0       -2.913805    0.209744    0.080610
     15          1           0       -3.793092   -0.418438    1.471064
     16          1           0       -3.363507   -1.912386   -1.162850
     17          1           0       -4.242834   -2.540794    0.226209
     18          1           0       -2.151826   -2.398647    1.620539
     19          1           0       -1.267503   -1.766668    0.223587
     20          1           0       -1.895037   -3.423431    0.198151
     21          6           0        4.436702    2.447691    0.171863
     22          6           0        5.263165    1.319217    0.177055
     23          6           0        4.717238    0.038731    0.047173
     24          6           0        3.334495   -0.077112   -0.086590
     25          6           0        2.484732    1.027928   -0.095377
     26          6           0        3.052564    2.298707    0.035905
     27          1           0        4.869300    3.438632    0.273302
     28          1           0        6.338447    1.431904    0.282487
     29          1           0        5.333817   -0.851913    0.048003
     30          1           0        1.416434    0.883832   -0.202129
     31          1           0        2.408286    3.173311    0.031539
     32          7           0        2.744952   -1.427567   -0.224831
     33          8           0        1.523717   -1.502809   -0.341280
     34          8           0        3.515265   -2.385241   -0.214117
 ---------------------------------------------------------------------

 SCF Done:  E(RHF) =  -669.535844611     A.U. after   15 cycles
 E2 =    -0.2090732164D+01 EUMP2 =    -0.67162657677418D+03

 The electronic state is 1-A.
 Alpha  occ. eigenvalues --  -20.60878 -20.60871 -15.85925 -11.31265 -11.27836
 Alpha  occ. eigenvalues --  -11.27827 -11.27571 -11.26844 -11.26834 -11.21403
 Alpha  occ. eigenvalues --  -11.21034 -11.20920 -11.20892 -11.20787 -11.19794
 Alpha  occ. eigenvalues --   -1.59943  -1.39500  -1.19436  -1.08835  -1.07968
 Alpha  occ. eigenvalues --   -1.04837  -1.02966  -0.95678  -0.95384  -0.86399
 Alpha  occ. eigenvalues --   -0.86235  -0.82511  -0.79059  -0.77762  -0.77553
 Alpha  occ. eigenvalues --   -0.72151  -0.71261  -0.70546  -0.65094  -0.64840
 Alpha  occ. eigenvalues --   -0.64605  -0.62185  -0.60359  -0.58822  -0.56997
 Alpha  occ. eigenvalues --   -0.55339  -0.54662  -0.53166  -0.52929  -0.52054
 Alpha  occ. eigenvalues --   -0.51810  -0.49350  -0.48903  -0.48871  -0.47351
 Alpha  occ. eigenvalues --   -0.46108  -0.45292  -0.45214  -0.44884  -0.43231
 Alpha  occ. eigenvalues --   -0.37415  -0.36439
 Alpha virt. eigenvalues --    0.04972   0.11216   0.16462   0.21217   0.23245
 Alpha virt. eigenvalues --    0.24775   0.26656   0.27349   0.27701   0.28172
 Alpha virt. eigenvalues --    0.28924   0.30680   0.31747   0.32172   0.32561

 Mulliken charges:
               1
     1  C   -0.297763
     2  C   -0.298731
     3  C   -0.475358
     4  H    0.149215
     5  H    0.149479
     6  H    0.148819
     7  H    0.151264
     8  H    0.155513
     9  H    0.154864
    10  H    0.158550
    11  C   -0.296401
    12  C   -0.300111
    13  C   -0.480942
    14  H    0.145137
    15  H    0.148084
    16  H    0.151143
    17  H    0.148439
    18  H    0.148627
    19  H    0.175401
    20  H    0.162406
    21  C   -0.170707
    22  C   -0.218525
    23  C   -0.170814
    24  C    0.157767
    25  C   -0.170291
    26  C   -0.218487
    27  H    0.225899
    28  H    0.223731
    29  H    0.275851
    30  H    0.274887
    31  H    0.223758
    32  N    0.495209
    33  O   -0.466671
    34  O   -0.459243
 Sum of Mulliken charges =  -0.00000

 Dipole moment (field-independent basis, Debye):
    X=              2.3193    Y=              4.7028    Z=              0.4603  Tot=              5.2638
 Quadrupole moment (field-independent basis, Debye-Ang):
   XX=            -78.0796   YY=            -95.3162   ZZ=            -95.3244
   XY=             14.5441   XZ=              1.1476   YZ=             -0.6131

 Normal termination of Gaussian 16 at Thu May  6 02:28:31 2021.
