 Gaussian 16, Revision A.03,
 Gaussian 16:  EM64L-G16RevA.03 25-Dec-2016

 -------------
 #p 6-31g* mp2
 -------------

 ------------------------------------------------------
 Input file generated by CHIRIPA (05-May-2021 14:51:10)
 ------------------------------------------------------
 Symbolic Z-matrix:
 Charge =  0 Multiplicity = 1

                         Standard orientation:
 ---------------------------------------------------------------------
 Center     Atomic      Atomic             Coordinates (Angstroms)
 Number     Number       Type             X           Y           Z
 ---------------------------------------------------------------------
      1          6           0        3.666900    0.971177   -0.486916
      2          6           0        2.643701    1.747196    0.343050
      3          6           0        2.346605    3.133219   -0.230070
      4          1           0        4.597489    1.552028   -0.546597
      5          1           0        3.294212    0.871366   -1.515768
      6          1           0        3.017580    1.844313    1.370376
      7          1           0        1.715504    1.164343    0.400923
      8          1           0        1.949834    3.052537   -1.247254
      9          1           0        3.259308    3.736370   -0.272293
     10          1           0        1.612747    3.670522    0.378715
     11          6           0        3.974343   -0.416368    0.073373
     12          6           0        4.997542   -1.192387   -0.756593
     13          6           0        5.294638   -2.578411   -0.183473
     14          1           0        4.347031   -0.316558    1.102226
     15          1           0        3.043754   -0.997219    0.133055
     16          1           0        5.925739   -0.609535   -0.814465
     17          1           0        4.623663   -1.289505   -1.783919
     18          1           0        4.381935   -3.181562   -0.141250
     19          1           0        5.691409   -2.497729    0.833712
     20          1           0        6.028496   -3.115714   -0.792257
     21          6           0       -4.576143   -0.365041    0.277046
     22          6           0       -5.336340   -0.145494   -1.031344
     23          6           0       -6.846725   -0.324312   -0.874639
     24          1           0       -4.790199   -1.374860    0.653066
     25          1           0       -4.952805    0.336729    1.034039
     26          1           0       -4.957400   -0.846531   -1.786041
     27          1           0       -5.120299    0.863851   -1.404392
     28          1           0       -7.244621    0.384907   -0.141638
     29          1           0       -7.080796   -1.335193   -0.525456
     30          1           0       -7.370538   -0.162820   -1.821950
     31          6           0       -3.065100   -0.189767    0.136497
     32          6           0       -2.304903   -0.409315    1.444887
     33          6           0       -0.794518   -0.230497    1.288181
     34          1           0       -2.688438   -0.891538   -0.620496
     35          1           0       -2.851044    0.820052   -0.239523
     36          1           0       -2.520944   -1.418659    1.817934
     37          1           0       -2.683842    0.291723    2.199583
     38          1           0       -0.560446    0.780385    0.938999
     39          1           0       -0.396623   -0.939716    0.555181
     40          1           0       -0.270704   -0.391988    2.235494
 ---------------------------------------------------------------------

 SCF Done:  E(RHF) =  -470.733077938     A.U. after   11 cycles
 E2 =    -0.1582720777D+01 EUMP2 =    -0.47231579871436D+03

 The electronic state is 1-A.
 Alpha  occ. eigenvalues --  -11.21639 -11.21623 -11.21556 -11.21439 -11.21436
 Alpha  occ. eigenvalues --  -11.21376 -11.21329 -11.21268 -11.21126 -11.21087
 Alpha  occ. eigenvalues --  -11.21039 -11.21017  -1.08464  -1.08354  -1.03572
 Alpha  occ. eigenvalues --   -1.03456  -0.96024  -0.95918  -0.87053  -0.86926
 Alpha  occ. eigenvalues --   -0.79697  -0.79470  -0.78292  -0.78142  -0.65099
 Alpha  occ. eigenvalues --   -0.64986  -0.61020  -0.60823  -0.59383  -0.59291
 Alpha  occ. eigenvalues --   -0.57649  -0.57513  -0.55347  -0.55171  -0.52736
 Alpha  occ. eigenvalues --   -0.52611  -0.52468  -0.52331  -0.50019  -0.49819
 Alpha  occ. eigenvalues --   -0.48076  -0.47758  -0.46738  -0.46451  -0.45906
 Alpha  occ. eigenvalues --   -0.45741  -0.45677  -0.45469  -0.43809  -0.43711
 Alpha virt. eigenvalues --    0.22012   0.22952   0.23801   0.24622   0.25597
 Alpha virt. eigenvalues --    0.26505   0.27101   0.27522   0.27771   0.29212
 Alpha virt. eigenvalues --    0.30622   0.31462   0.31691   0.31817   0.32201

 Mulliken charges:
               1
     1  C   -0.297439
     2  C   -0.309895
     3  C   -0.475693
     4  H    0.149060
     5  H    0.148947
     6  H    0.151012
     7  H    0.165145
     8  H    0.154693
     9  H    0.155069
    10  H    0.159248
    11  C   -0.298809
    12  C   -0.299591
    13  C   -0.475612
    14  H    0.149310
    15  H    0.150365
    16  H    0.151850
    17  H    0.151709
    18  H    0.154994
    19  H    0.155119
    20  H    0.160050
    21  C   -0.298299
    22  C   -0.299672
    23  C   -0.475727
    24  H    0.149724
    25  H    0.149642
    26  H    0.151890
    27  H    0.152012
    28  H    0.155243
    29  H    0.155207
    30  H    0.160323
    31  C   -0.298466
    32  C   -0.300273
    33  C   -0.478285
    34  H    0.149332
    35  H    0.149786
    36  H    0.152038
    37  H    0.152236
    38  H    0.157584
    39  H    0.154481
    40  H    0.161690
 Sum of Mulliken charges =  -0.00000

 Dipole moment (field-independent basis, Debye):
    X=             -0.0469    Y=             -0.0137    Z=              0.0200  Tot=              0.0528
 Quadrupole moment (field-independent basis, Debye-Ang):
   XX=            -85.7008   YY=            -84.8063   ZZ=            -84.5080
   XY=              0.3757   XZ=              0.2876   YZ=              0.7530

 Normal termination of Gaussian 16 at Wed May  5 19:49:12 2021.
