 Gaussian 16, Revision A.03,
 Gaussian 16:  EM64L-G16RevA.03 25-Dec-2016

 -------------
 #p 6-31g* mp2
 -------------

 ------------------------------------------------------
 Input file generated by CHIRIPA (05-May-2021 14:57:24)
 ------------------------------------------------------
 Symbolic Z-matrix:
 Charge =  0 Multiplicity = 1

                         Standard orientation:
 ---------------------------------------------------------------------
 Center     Atomic      Atomic             Coordinates (Angstroms)
 Number     Number       Type             X           Y           Z
 ---------------------------------------------------------------------
      1          6           0       -1.022495   -2.186399    0.790577
      2          6           0       -1.191879   -1.068680    1.614310
      3          6           0       -2.110393   -0.070325    1.276422
      4          6           0       -2.846195   -0.222576    0.102239
      5          6           0       -2.700136   -1.324446   -0.739093
      6          6           0       -1.775836   -2.310496   -0.381429
      7          1           0       -0.306725   -2.957165    1.060738
      8          1           0       -0.608191   -0.969659    2.525105
      9          1           0       -2.261556    0.805335    1.895927
     10          1           0       -3.296380   -1.395273   -1.640700
     11          1           0       -1.646390   -3.177445   -1.023058
     12          7           0       -3.821647    0.827824   -0.265936
     13          8           0       -4.457737    0.670150   -1.305727
     14          8           0       -3.931646    1.788912    0.492251
     15          6           0        1.772486    2.744124   -0.031239
     16          6           0        0.908693    1.669483   -0.266884
     17          6           0        1.403472    0.364061   -0.341818
     18          6           0        2.773689    0.168658   -0.175649
     19          6           0        3.659769    1.218637    0.060350
     20          6           0        3.142851    2.515674    0.131340
     21          1           0        1.379532    3.754951    0.025440
     22          1           0       -0.156003    1.843922   -0.393532
     23          1           0        0.757218   -0.486166   -0.523169
     24          1           0        4.716345    1.013360    0.182517
     25          1           0        3.816039    3.348339    0.314457
     26          7           0        3.309207   -1.208896   -0.252891
     27          8           0        4.520393   -1.354547   -0.103049
     28          8           0        2.507621   -2.116888   -0.461812
 ---------------------------------------------------------------------

 SCF Done:  E(RHF) =  -868.338730853     A.U. after   16 cycles
 E2 =    -0.2603437495D+01 EUMP2 =    -0.87094216834756D+03

 The electronic state is 1-A.
 Alpha  occ. eigenvalues --  -20.61399 -20.61377 -20.61320 -20.61261 -15.86442
 Alpha  occ. eigenvalues --  -15.86330 -11.31772 -11.31386 -11.28310 -11.28275
 Alpha  occ. eigenvalues --  -11.27968 -11.27805 -11.27757 -11.27621 -11.27177
 Alpha  occ. eigenvalues --  -11.27150 -11.26904 -11.26801  -1.60475  -1.60366
 Alpha  occ. eigenvalues --   -1.40025  -1.39930  -1.19938  -1.19548  -1.09274
 Alpha  occ. eigenvalues --   -1.09001  -1.05291  -1.04885  -0.96113  -0.95873
 Alpha  occ. eigenvalues --   -0.86642  -0.86304  -0.82926  -0.82715  -0.78026
 Alpha  occ. eigenvalues --   -0.77818  -0.72637  -0.72570  -0.71824  -0.71689
 Alpha  occ. eigenvalues --   -0.70823  -0.70656  -0.65494  -0.65206  -0.65167
 Alpha  occ. eigenvalues --   -0.64905  -0.62586  -0.62324  -0.55579  -0.55464
 Alpha  occ. eigenvalues --   -0.53732  -0.53280  -0.53193  -0.52843  -0.49412
 Alpha  occ. eigenvalues --   -0.49395  -0.49323  -0.49276  -0.45435  -0.45402
 Alpha  occ. eigenvalues --   -0.37889  -0.37509  -0.37298  -0.36041
 Alpha virt. eigenvalues --    0.04452   0.04682   0.10240   0.11589   0.15732
 Alpha virt. eigenvalues --    0.16459   0.21167   0.21544   0.26867   0.27209
 Alpha virt. eigenvalues --    0.28131   0.28496   0.30755   0.31193   0.32154

 Mulliken charges:
               1
     1  C   -0.177864
     2  C   -0.219016
     3  C   -0.178178
     4  C    0.152967
     5  C   -0.173240
     6  C   -0.220897
     7  H    0.243996
     8  H    0.228397
     9  H    0.275162
    10  H    0.277960
    11  H    0.232192
    12  N    0.487174
    13  O   -0.457455
    14  O   -0.462330
    15  C   -0.170715
    16  C   -0.225651
    17  C   -0.174003
    18  C    0.151786
    19  C   -0.170838
    20  C   -0.219897
    21  H    0.229150
    22  H    0.227807
    23  H    0.284667
    24  H    0.274908
    25  H    0.224048
    26  N    0.488478
    27  O   -0.457929
    28  O   -0.470684
 Sum of Mulliken charges =  -0.00000

 Dipole moment (field-independent basis, Debye):
    X=              1.4595    Y=              0.9489    Z=              1.6157  Tot=              2.3751
 Quadrupole moment (field-independent basis, Debye-Ang):
   XX=           -131.3953   YY=            -99.7144   ZZ=           -102.0259
   XY=             26.1256   XZ=             -0.1292   YZ=              1.0813

 Normal termination of Gaussian 16 at Thu May  6 19:38:30 2021.
