 Gaussian 16, Revision A.03,
 Gaussian 16:  EM64L-G16RevA.03 25-Dec-2016

 -------------
 #p 6-31g* mp2
 -------------

 ------------------------------------------------------
 Input file generated by CHIRIPA (05-May-2021 14:51:10)
 ------------------------------------------------------
 Symbolic Z-matrix:
 Charge =  0 Multiplicity = 1

                         Standard orientation:
 ---------------------------------------------------------------------
 Center     Atomic      Atomic             Coordinates (Angstroms)
 Number     Number       Type             X           Y           Z
 ---------------------------------------------------------------------
      1          6           0       -2.535327   -0.042756   -0.051264
      2          6           0       -2.821684   -0.781156   -1.359220
      3          6           0       -3.207236   -2.244376   -1.139833
      4          1           0       -1.727841   -0.559745    0.485051
      5          1           0       -3.423247   -0.096184    0.593824
      6          1           0       -1.933967   -0.725165   -2.002213
      7          1           0       -3.628452   -0.262238   -1.892574
      8          1           0       -4.106131   -2.317002   -0.519097
      9          1           0       -2.402018   -2.782560   -0.629358
     10          1           0       -3.407595   -2.753235   -2.087873
     11          6           0       -2.148528    1.421126   -0.254158
     12          6           0       -1.862171    2.159526    1.053798
     13          6           0       -1.476619    3.622746    0.834411
     14          1           0       -1.260608    1.474554   -0.899246
     15          1           0       -2.956013    1.938115   -0.790473
     16          1           0       -1.055403    1.640608    1.587152
     17          1           0       -2.749888    2.103535    1.696790
     18          1           0       -2.281836    4.160930    0.323936
     19          1           0       -0.577724    3.695372    0.213674
     20          1           0       -1.276260    4.131605    1.782450
     21          6           0        1.842030   -0.925504    0.679672
     22          6           0        1.457851   -2.398282    0.533668
     23          6           0        0.457093   -2.856192    1.595082
     24          1           0        2.265353   -0.761002    1.680012
     25          1           0        0.934297   -0.309257    0.619192
     26          1           0        2.366197   -3.011471    0.593020
     27          1           0        1.035569   -2.559336   -0.466510
     28          1           0       -0.465158   -2.269444    1.533604
     29          1           0        0.873030   -2.724147    2.599153
     30          1           0        0.196318   -3.911993    1.472037
     31          6           0        2.841826   -0.452866   -0.374249
     32          6           0        3.226004    1.019912   -0.228246
     33          6           0        4.226761    1.477822   -1.289659
     34          1           0        3.749557   -1.069113   -0.313769
     35          1           0        2.418502   -0.617367   -1.374589
     36          1           0        3.648285    1.180966    0.771932
     37          1           0        2.317658    1.633102   -0.287598
     38          1           0        3.810824    1.345778   -2.293732
     39          1           0        5.149013    0.891074   -1.228182
     40          1           0        4.487537    2.533623   -1.166615
 ---------------------------------------------------------------------

 SCF Done:  E(RHF) =  -470.733124111     A.U. after   11 cycles
 E2 =    -0.1584574241D+01 EUMP2 =    -0.47231769835218D+03

 The electronic state is 1-A.
 Alpha  occ. eigenvalues --  -11.21677 -11.21667 -11.21646 -11.21633 -11.21481
 Alpha  occ. eigenvalues --  -11.21455 -11.21420 -11.21394 -11.21117 -11.21116
 Alpha  occ. eigenvalues --  -11.21098 -11.21085  -1.08534  -1.08454  -1.03609
 Alpha  occ. eigenvalues --   -1.03553  -0.96046  -0.96013  -0.87061  -0.87029
 Alpha  occ. eigenvalues --   -0.79678  -0.79611  -0.78393  -0.78228  -0.65449
 Alpha  occ. eigenvalues --   -0.64833  -0.61155  -0.60809  -0.59416  -0.59383
 Alpha  occ. eigenvalues --   -0.57681  -0.57598  -0.55378  -0.55271  -0.52735
 Alpha  occ. eigenvalues --   -0.52702  -0.52502  -0.52407  -0.50027  -0.49941
 Alpha  occ. eigenvalues --   -0.48050  -0.47894  -0.46848  -0.46614  -0.46164
 Alpha  occ. eigenvalues --   -0.45825  -0.45779  -0.45250  -0.43850  -0.43821
 Alpha virt. eigenvalues --    0.18718   0.21570   0.23743   0.24827   0.25849
 Alpha virt. eigenvalues --    0.26603   0.26633   0.27350   0.28781   0.30001
 Alpha virt. eigenvalues --    0.31009   0.31419   0.31606   0.31860   0.32192

 Mulliken charges:
               1
     1  C   -0.309366
     2  C   -0.298943
     3  C   -0.478654
     4  H    0.159151
     5  H    0.150034
     6  H    0.151119
     7  H    0.152271
     8  H    0.155368
     9  H    0.158218
    10  H    0.160321
    11  C   -0.297941
    12  C   -0.302198
    13  C   -0.475834
    14  H    0.148918
    15  H    0.150241
    16  H    0.153968
    17  H    0.152273
    18  H    0.155279
    19  H    0.155112
    20  H    0.160648
    21  C   -0.305017
    22  C   -0.300051
    23  C   -0.483115
    24  H    0.150102
    25  H    0.154732
    26  H    0.152693
    27  H    0.152077
    28  H    0.161394
    29  H    0.155680
    30  H    0.160822
    31  C   -0.297998
    32  C   -0.300146
    33  C   -0.475781
    34  H    0.150047
    35  H    0.149487
    36  H    0.152346
    37  H    0.151506
    38  H    0.155241
    39  H    0.155426
    40  H    0.160569
 Sum of Mulliken charges =  -0.00000

 Dipole moment (field-independent basis, Debye):
    X=              0.0068    Y=             -0.0061    Z=              0.0191  Tot=              0.0212
 Quadrupole moment (field-independent basis, Debye-Ang):
   XX=            -83.6875   YY=            -85.9982   ZZ=            -84.8769
   XY=             -1.1442   XZ=              0.9063   YZ=              0.1881

 Normal termination of Gaussian 16 at Wed May  5 16:42:59 2021.
