 Gaussian 16, Revision A.03,
 Gaussian 16:  EM64L-G16RevA.03 25-Dec-2016

 -------------
 #p 6-31g* mp2
 -------------

 ------------------------------------------------------
 Input file generated by CHIRIPA (05-May-2021 14:55:21)
 ------------------------------------------------------
 Symbolic Z-matrix:
 Charge =  0 Multiplicity = 1

                         Standard orientation:
 ---------------------------------------------------------------------
 Center     Atomic      Atomic             Coordinates (Angstroms)
 Number     Number       Type             X           Y           Z
 ---------------------------------------------------------------------
      1          6           0       -2.877398    1.849724    0.546095
      2          6           0       -3.238022    1.177921   -0.626574
      3          6           0       -2.744197   -0.102881   -0.891585
      4          6           0       -1.888011   -0.684711    0.042069
      5          6           0       -1.510249   -0.040999    1.219448
      6          6           0       -2.016181    1.239196    1.463745
      7          1           0       -3.265715    2.844447    0.743916
      8          1           0       -3.906682    1.649619   -1.341026
      9          1           0       -3.007088   -0.645576   -1.791467
     10          1           0       -0.841878   -0.536991    1.912765
     11          1           0       -1.734408    1.758558    2.375290
     12          7           0       -1.358813   -2.040317   -0.227522
     13          8           0       -0.606047   -2.531144    0.610971
     14          8           0       -1.706813   -2.586347   -1.272215
     15          6           0        2.268052    1.252745    0.166899
     16          6           0        2.141582    2.346931   -0.893642
     17          6           0        1.619732    3.665911   -0.322887
     18          1           0        1.287495    1.089130    0.634535
     19          1           0        2.940295    1.600045    0.963685
     20          1           0        1.470867    1.997131   -1.688877
     21          1           0        3.122513    2.507827   -1.358940
     22          1           0        2.291173    4.040974    0.456276
     23          1           0        0.630144    3.527376    0.124465
     24          1           0        1.537081    4.434056   -1.098118
     25          6           0        2.788537   -0.071842   -0.388341
     26          6           0        2.915007   -1.166028    0.672199
     27          6           0        3.436856   -2.485007    0.101446
     28          1           0        2.116293   -0.419141   -1.185127
     29          1           0        3.769093    0.091773   -0.855976
     30          1           0        1.934075   -1.326923    1.137499
     31          1           0        3.585720   -0.816227    1.467435
     32          1           0        4.426444   -2.346473   -0.345906
     33          1           0        2.765415   -2.860070   -0.677718
     34          1           0        3.519508   -3.253153    0.876675
 ---------------------------------------------------------------------

 SCF Done:  E(RHF) =  -669.536249825     A.U. after   15 cycles
 E2 =    -0.2093930121D+01 EUMP2 =    -0.67163017994579D+03

 The electronic state is 1-A.
 Alpha  occ. eigenvalues --  -20.61028 -20.61018 -15.86049 -11.31382 -11.27950
 Alpha  occ. eigenvalues --  -11.27936 -11.27676 -11.26959 -11.26935 -11.21579
 Alpha  occ. eigenvalues --  -11.21242 -11.21215 -11.20947 -11.20818 -11.20133
 Alpha  occ. eigenvalues --   -1.60082  -1.39638  -1.19555  -1.08950  -1.08115
 Alpha  occ. eigenvalues --   -1.04950  -1.03140  -0.95791  -0.95615  -0.86637
 Alpha  occ. eigenvalues --   -0.86344  -0.82623  -0.79267  -0.77936  -0.77632
 Alpha  occ. eigenvalues --   -0.72273  -0.71402  -0.70651  -0.65210  -0.64953
 Alpha  occ. eigenvalues --   -0.64733  -0.62289  -0.60518  -0.59043  -0.57211
 Alpha  occ. eigenvalues --   -0.55441  -0.54916  -0.53272  -0.53031  -0.52304
 Alpha  occ. eigenvalues --   -0.52047  -0.49583  -0.49037  -0.49023  -0.47567
 Alpha  occ. eigenvalues --   -0.46308  -0.45554  -0.45368  -0.44801  -0.43414
 Alpha  occ. eigenvalues --   -0.37517  -0.36494
 Alpha virt. eigenvalues --    0.04790   0.11012   0.16246   0.20846   0.23058
 Alpha virt. eigenvalues --    0.24438   0.25760   0.27251   0.27633   0.28296
 Alpha virt. eigenvalues --    0.29058   0.30207   0.31423   0.31877   0.32591

 Mulliken charges:
               1
     1  C   -0.170622
     2  C   -0.218168
     3  C   -0.170868
     4  C    0.158130
     5  C   -0.170982
     6  C   -0.218879
     7  H    0.227018
     8  H    0.224449
     9  H    0.276181
    10  H    0.277881
    11  H    0.225576
    12  N    0.488505
    13  O   -0.459838
    14  O   -0.458672
    15  C   -0.301701
    16  C   -0.297922
    17  C   -0.476037
    18  H    0.146450
    19  H    0.147313
    20  H    0.152013
    21  H    0.152806
    22  H    0.154465
    23  H    0.150125
    24  H    0.159079
    25  C   -0.298523
    26  C   -0.306268
    27  C   -0.473894
    28  H    0.150206
    29  H    0.148438
    30  H    0.164335
    31  H    0.145254
    32  H    0.148774
    33  H    0.164534
    34  H    0.160840
 Sum of Mulliken charges =  -0.00000

 Dipole moment (field-independent basis, Debye):
    X=             -2.0906    Y=              4.5900    Z=              0.9215  Tot=              5.1272
 Quadrupole moment (field-independent basis, Debye-Ang):
   XX=            -86.5270   YY=           -102.9535   ZZ=            -91.1516
   XY=             -7.4457   XZ=              0.7941   YZ=             -0.4826

 Normal termination of Gaussian 16 at Thu May  6 10:53:38 2021.
