 Gaussian 16, Revision A.03,
 Gaussian 16:  EM64L-G16RevA.03 25-Dec-2016

 -------------
 #p 6-31g* mp2
 -------------

 ------------------------------------------------------
 Input file generated by CHIRIPA (05-May-2021 14:55:21)
 ------------------------------------------------------
 Symbolic Z-matrix:
 Charge =  0 Multiplicity = 1

                         Standard orientation:
 ---------------------------------------------------------------------
 Center     Atomic      Atomic             Coordinates (Angstroms)
 Number     Number       Type             X           Y           Z
 ---------------------------------------------------------------------
      1          6           0       -2.403418    2.319259    0.207900
      2          6           0       -1.509407    1.462677   -0.442893
      3          6           0       -1.799911    0.101698   -0.576661
      4          6           0       -2.998888   -0.371013   -0.045352
      5          6           0       -3.909921    0.457173    0.608418
      6          6           0       -3.598714    1.814663    0.730557
      7          1           0       -2.169706    3.375145    0.307298
      8          1           0       -0.580378    1.851775   -0.849773
      9          1           0       -1.125718   -0.583718   -1.075746
     10          1           0       -4.828156    0.040034    1.003712
     11          1           0       -4.294893    2.477562    1.236468
     12          7           0       -3.317390   -1.809974   -0.180811
     13          8           0       -4.380333   -2.201725    0.295971
     14          8           0       -2.498059   -2.518833   -0.761200
     15          6           0        3.732179    0.913634    0.205221
     16          6           0        2.644755    1.662686   -0.565762
     17          6           0        2.578699    3.146612   -0.203276
     18          1           0        3.548926    1.021454    1.283061
     19          1           0        4.704501    1.384620    0.004828
     20          1           0        1.674960    1.189575   -0.365065
     21          1           0        2.830509    1.552910   -1.641894
     22          1           0        3.532199    3.638964   -0.420138
     23          1           0        2.370084    3.273564    0.863946
     24          1           0        1.794632    3.662818   -0.765975
     25          6           0        3.810593   -0.570964   -0.146272
     26          6           0        4.898015   -1.320017    0.624711
     27          6           0        4.964072   -2.803943    0.262226
     28          1           0        2.838271   -1.041950    0.054122
     29          1           0        3.993845   -0.678784   -1.224112
     30          1           0        4.712262   -1.210241    1.700844
     31          1           0        5.867810   -0.846906    0.424015
     32          1           0        5.172687   -2.930894   -0.804997
     33          1           0        4.010572   -3.296295    0.479088
     34          1           0        5.748138   -3.320149    0.824926
 ---------------------------------------------------------------------

 SCF Done:  E(RHF) =  -669.535544590     A.U. after   15 cycles
 E2 =    -0.2091419162D+01 EUMP2 =    -0.67162696375194D+03

 The electronic state is 1-A.
 Alpha  occ. eigenvalues --  -20.60756 -20.60751 -15.85809 -11.31172 -11.27746
 Alpha  occ. eigenvalues --  -11.27734 -11.27474 -11.26758 -11.26705 -11.22484
 Alpha  occ. eigenvalues --  -11.22020 -11.21955 -11.21840 -11.21742 -11.21161
 Alpha  occ. eigenvalues --   -1.59832  -1.39385  -1.19344  -1.08954  -1.08736
 Alpha  occ. eigenvalues --   -1.04748  -1.04064  -0.96495  -0.95573  -0.87510
 Alpha  occ. eigenvalues --   -0.86143  -0.82410  -0.80170  -0.78722  -0.77451
 Alpha  occ. eigenvalues --   -0.72027  -0.71155  -0.70449  -0.65616  -0.64993
 Alpha  occ. eigenvalues --   -0.64745  -0.62161  -0.61399  -0.59909  -0.58099
 Alpha  occ. eigenvalues --   -0.55760  -0.55238  -0.53224  -0.53076  -0.52921
 Alpha  occ. eigenvalues --   -0.52819  -0.50421  -0.48789  -0.48782  -0.48458
 Alpha  occ. eigenvalues --   -0.47181  -0.46260  -0.46148  -0.44791  -0.44303
 Alpha  occ. eigenvalues --   -0.37322  -0.36342
 Alpha virt. eigenvalues --    0.05063   0.11275   0.16470   0.19794   0.22734
 Alpha virt. eigenvalues --    0.23749   0.25487   0.26188   0.26602   0.28680
 Alpha virt. eigenvalues --    0.29038   0.30367   0.30821   0.31281   0.32185

 Mulliken charges:
               1
     1  C   -0.171956
     2  C   -0.223781
     3  C   -0.173366
     4  C    0.158685
     5  C   -0.171047
     6  C   -0.218536
     7  H    0.225954
     8  H    0.232615
     9  H    0.275880
    10  H    0.275549
    11  H    0.223346
    12  N    0.488083
    13  O   -0.460539
    14  O   -0.460466
    15  C   -0.297934
    16  C   -0.305457
    17  C   -0.477401
    18  H    0.151580
    19  H    0.151670
    20  H    0.146323
    21  H    0.154300
    22  H    0.161019
    23  H    0.157592
    24  H    0.152788
    25  C   -0.299564
    26  C   -0.300159
    27  C   -0.476554
    28  H    0.150910
    29  H    0.150448
    30  H    0.152745
    31  H    0.151955
    32  H    0.155683
    33  H    0.158372
    34  H    0.161262
 Sum of Mulliken charges =  -0.00000

 Dipole moment (field-independent basis, Debye):
    X=              1.2869    Y=              5.0298    Z=              0.5197  Tot=              5.2177
 Quadrupole moment (field-independent basis, Debye-Ang):
   XX=            -96.8253   YY=           -100.0950   ZZ=            -93.7898
   XY=            -16.2206   XZ=             -4.3556   YZ=             -0.2432

 Normal termination of Gaussian 16 at Thu May  6 17:29:50 2021.
