 Gaussian 16, Revision A.03,
 Gaussian 16:  EM64L-G16RevA.03 25-Dec-2016

 -------------
 #p 6-31g* mp2
 -------------

 ------------------------------------------------------
 Input file generated by CHIRIPA (05-May-2021 14:57:22)
 ------------------------------------------------------
 Symbolic Z-matrix:
 Charge =  0 Multiplicity = 1

                         Standard orientation:
 ---------------------------------------------------------------------
 Center     Atomic      Atomic             Coordinates (Angstroms)
 Number     Number       Type             X           Y           Z
 ---------------------------------------------------------------------
      1          6           0       -3.524249    2.384341    1.115863
      2          6           0       -4.134564    2.112906   -0.113104
      3          6           0       -3.997565    0.857011   -0.711860
      4          6           0       -3.239711   -0.108441   -0.050914
      5          6           0       -2.619447    0.131507    1.174234
      6          6           0       -2.769968    1.394520    1.754483
      7          1           0       -3.635925    3.362714    1.573802
      8          1           0       -4.720935    2.879696   -0.611348
      9          1           0       -4.459293    0.619973   -1.662669
     10          1           0       -2.041107   -0.653071    1.646863
     11          1           0       -2.294862    1.602500    2.708980
     12          7           0       -3.087519   -1.441768   -0.674994
     13          8           0       -2.414628   -2.275276   -0.072400
     14          8           0       -3.644003   -1.628076   -1.754925
     15          6           0        1.996973   -2.104671    0.834092
     16          6           0        1.533465   -1.427296   -0.298535
     17          6           0        2.227867   -0.321570   -0.798261
     18          6           0        3.387363    0.081403   -0.137600
     19          6           0        3.874527   -0.572713    0.992928
     20          6           0        3.163968   -1.675973    1.475079
     21          1           0        1.451269   -2.962667    1.215464
     22          1           0        0.627458   -1.757994   -0.798371
     23          1           0        1.891410    0.221157   -1.673282
     24          1           0        4.780806   -0.219521    1.469720
     25          1           0        3.526279   -2.200110    2.354883
     26          7           0        4.131047    1.250681   -0.657335
     27          8           0        5.149923    1.585833   -0.057166
     28          8           0        3.680990    1.809868   -1.655029
 ---------------------------------------------------------------------

 SCF Done:  E(RHF) =  -868.340004179     A.U. after   16 cycles
 E2 =    -0.2598726326D+01 EUMP2 =    -0.87093873050429D+03

 The electronic state is 1-A.
 Alpha  occ. eigenvalues --  -20.61684 -20.61622 -20.60612 -20.60606 -15.86674
 Alpha  occ. eigenvalues --  -15.85658 -11.31757 -11.30917 -11.28312 -11.28272
 Alpha  occ. eigenvalues --  -11.27955 -11.27486 -11.27413 -11.27233 -11.27213
 Alpha  occ. eigenvalues --  -11.27093 -11.26475 -11.26278  -1.60719  -1.59690
 Alpha  occ. eigenvalues --   -1.40281  -1.39246  -1.19900  -1.19059  -1.09343
 Alpha  occ. eigenvalues --   -1.08456  -1.05257  -1.04432  -0.96225  -0.95317
 Alpha  occ. eigenvalues --   -0.86668  -0.85815  -0.83068  -0.82147  -0.78156
 Alpha  occ. eigenvalues --   -0.77223  -0.72899  -0.72033  -0.71875  -0.71014
 Alpha  occ. eigenvalues --   -0.70996  -0.70124  -0.65553  -0.65250  -0.64690
 Alpha  occ. eigenvalues --   -0.64379  -0.62611  -0.61762  -0.55753  -0.54878
 Alpha  occ. eigenvalues --   -0.53602  -0.53343  -0.52791  -0.52486  -0.49674
 Alpha  occ. eigenvalues --   -0.49624  -0.48641  -0.48623  -0.45730  -0.44675
 Alpha  occ. eigenvalues --   -0.37856  -0.37032  -0.36844  -0.36047
 Alpha virt. eigenvalues --    0.04334   0.05282   0.10788   0.11613   0.15872
 Alpha virt. eigenvalues --    0.16818   0.20938   0.21927   0.26861   0.27486
 Alpha virt. eigenvalues --    0.28032   0.28788   0.30637   0.31509   0.31975

 Mulliken charges:
               1
     1  C   -0.169284
     2  C   -0.218121
     3  C   -0.170597
     4  C    0.156371
     5  C   -0.170400
     6  C   -0.217690
     7  H    0.228752
     8  H    0.226141
     9  H    0.276608
    10  H    0.272325
    11  H    0.225566
    12  N    0.487404
    13  O   -0.468988
    14  O   -0.455297
    15  C   -0.174949
    16  C   -0.225450
    17  C   -0.173128
    18  C    0.157951
    19  C   -0.172874
    20  C   -0.219621
    21  H    0.231389
    22  H    0.238959
    23  H    0.274746
    24  H    0.273721
    25  H    0.221831
    26  N    0.487998
    27  O   -0.461956
    28  O   -0.461406
 Sum of Mulliken charges =  -0.00000

 Dipole moment (field-independent basis, Debye):
    X=             -3.4832    Y=              0.6451    Z=              4.0086  Tot=              5.3496
 Quadrupole moment (field-independent basis, Debye-Ang):
   XX=           -116.2851   YY=           -106.9154   ZZ=           -100.4356
   XY=            -31.5722   XZ=              4.8155   YZ=             -1.2926

 Normal termination of Gaussian 16 at Thu May  6 22:38:32 2021.
