 Gaussian 16, Revision A.03,
 Gaussian 16:  EM64L-G16RevA.03 25-Dec-2016

 -------------
 #p 6-31g* mp2
 -------------

 ------------------------------------------------------
 Input file generated by CHIRIPA (05-May-2021 14:55:20)
 ------------------------------------------------------
 Symbolic Z-matrix:
 Charge =  0 Multiplicity = 1

                         Standard orientation:
 ---------------------------------------------------------------------
 Center     Atomic      Atomic             Coordinates (Angstroms)
 Number     Number       Type             X           Y           Z
 ---------------------------------------------------------------------
      1          6           0       -0.791747    2.218734   -0.227594
      2          6           0       -0.484673    1.082010   -0.982633
      3          6           0       -1.389294    0.019346   -1.066022
      4          6           0       -2.597204    0.127367   -0.378582
      5          6           0       -2.932075    1.246682    0.381869
      6          6           0       -2.012316    2.297303    0.451051
      7          1           0       -0.083136    3.039560   -0.168333
      8          1           0        0.462481    1.018241   -1.510722
      9          1           0       -1.177089   -0.872343   -1.643325
     10          1           0       -3.884210    1.281265    0.897292
     11          1           0       -2.253469    3.178875    1.038182
     12          7           0       -3.562898   -0.991254   -0.459342
     13          8           0       -4.620345   -0.871616    0.155582
     14          8           0       -3.244078   -1.966484   -1.136037
     15          6           0        3.618266   -0.624691   -0.066239
     16          6           0        4.804209    0.326376   -0.230546
     17          6           0        5.790851   -0.138635   -1.302039
     18          1           0        3.991973   -1.626201    0.187264
     19          1           0        3.097414   -0.719883   -1.029072
     20          1           0        5.321848    0.420825    0.732648
     21          1           0        4.427625    1.325783   -0.483500
     22          1           0        5.295026   -0.215108   -2.275132
     23          1           0        6.194329   -1.125207   -1.052073
     24          1           0        6.630767    0.555794   -1.402885
     25          6           0        2.623131   -0.173336    1.001336
     26          6           0        1.437188   -1.124403    1.165643
     27          6           0        0.450547   -0.659392    2.237135
     28          1           0        3.143982   -0.078143    1.964168
     29          1           0        2.249424    0.828174    0.747833
     30          1           0        1.813772   -2.123810    1.418596
     31          1           0        0.919550   -1.218852    0.202448
     32          1           0        0.047069    0.327180    1.987170
     33          1           0        0.946372   -0.582919    3.210228
     34          1           0       -0.389369   -1.353821    2.337981
 ---------------------------------------------------------------------

 SCF Done:  E(RHF) =  -669.533888476     A.U. after   15 cycles
 E2 =    -0.2095835179D+01 EUMP2 =    -0.67162972365508D+03

 The electronic state is 1-A.
 Alpha  occ. eigenvalues --  -20.60841 -20.60836 -15.85895 -11.31304 -11.27861
 Alpha  occ. eigenvalues --  -11.27857 -11.27613 -11.26895 -11.26873 -11.22188
 Alpha  occ. eigenvalues --  -11.21984 -11.21894 -11.21812 -11.21566 -11.21090
 Alpha  occ. eigenvalues --   -1.59915  -1.39468  -1.19489  -1.08964  -1.08837
 Alpha  occ. eigenvalues --   -1.04908  -1.03901  -0.96364  -0.95698  -0.87379
 Alpha  occ. eigenvalues --   -0.86284  -0.82535  -0.79998  -0.78746  -0.77566
 Alpha  occ. eigenvalues --   -0.72113  -0.71240  -0.70589  -0.65680  -0.65137
 Alpha  occ. eigenvalues --   -0.64840  -0.62248  -0.61379  -0.59737  -0.57975
 Alpha  occ. eigenvalues --   -0.55807  -0.55385  -0.53137  -0.53003  -0.52954
 Alpha  occ. eigenvalues --   -0.52693  -0.50285  -0.48876  -0.48866  -0.48281
 Alpha  occ. eigenvalues --   -0.47070  -0.46259  -0.46249  -0.44862  -0.44201
 Alpha  occ. eigenvalues --   -0.37425  -0.36394
 Alpha virt. eigenvalues --    0.04933   0.11043   0.16330   0.19526   0.22952
 Alpha virt. eigenvalues --    0.24139   0.25289   0.26040   0.27162   0.28516
 Alpha virt. eigenvalues --    0.29157   0.31068   0.31244   0.31404   0.31848

 Mulliken charges:
               1
     1  C   -0.174310
     2  C   -0.214445
     3  C   -0.170029
     4  C    0.159854
     5  C   -0.170575
     6  C   -0.217993
     7  H    0.226508
     8  H    0.225997
     9  H    0.276095
    10  H    0.276276
    11  H    0.224413
    12  N    0.487827
    13  O   -0.459958
    14  O   -0.460030
    15  C   -0.298418
    16  C   -0.298949
    17  C   -0.475723
    18  H    0.154128
    19  H    0.142749
    20  H    0.154305
    21  H    0.146784
    22  H    0.154114
    23  H    0.157619
    24  H    0.161422
    25  C   -0.299041
    26  C   -0.297991
    27  C   -0.481157
    28  H    0.152185
    29  H    0.140420
    30  H    0.154326
    31  H    0.147694
    32  H    0.159581
    33  H    0.153321
    34  H    0.163001
 Sum of Mulliken charges =  -0.00000

 Dipole moment (field-independent basis, Debye):
    X=              3.3276    Y=              3.9309    Z=              0.2988  Tot=              5.1589
 Quadrupole moment (field-independent basis, Debye-Ang):
   XX=           -110.8955   YY=            -92.6696   ZZ=            -93.9078
   XY=            -12.0354   XZ=             -3.1802   YZ=             -0.2788

 Normal termination of Gaussian 16 at Thu May  6 12:28:29 2021.
