 Gaussian 16, Revision A.03,
 Gaussian 16:  EM64L-G16RevA.03 25-Dec-2016

 -------------
 #p 6-31g* mp2
 -------------

 ------------------------------------------------------
 Input file generated by CHIRIPA (05-May-2021 14:51:11)
 ------------------------------------------------------
 Symbolic Z-matrix:
 Charge =  0 Multiplicity = 1

                         Standard orientation:
 ---------------------------------------------------------------------
 Center     Atomic      Atomic             Coordinates (Angstroms)
 Number     Number       Type             X           Y           Z
 ---------------------------------------------------------------------
      1          6           0       -2.778121    0.861410   -0.260630
      2          6           0       -2.841087    2.259772    0.354680
      3          6           0       -1.536813    3.039476    0.185197
      4          1           0       -1.952337    0.301966    0.199857
      5          1           0       -2.538529    0.949145   -1.329411
      6          1           0       -3.081852    2.169494    1.421684
      7          1           0       -3.666938    2.815886   -0.107189
      8          1           0       -1.294550    3.159046   -0.875752
      9          1           0       -0.706139    2.508982    0.661808
     10          1           0       -1.603934    4.036202    0.632289
     11          6           0       -4.074550    0.069601   -0.099267
     12          6           0       -4.011584   -1.328760   -0.714576
     13          6           0       -5.315857   -2.108465   -0.545093
     14          1           0       -4.314141   -0.018134    0.969515
     15          1           0       -4.900334    0.629045   -0.559753
     16          1           0       -3.185732   -1.884875   -0.252708
     17          1           0       -3.770818   -1.238483   -1.781581
     18          1           0       -6.146531   -1.577971   -1.021704
     19          1           0       -5.558121   -2.228035    0.515855
     20          1           0       -5.248737   -3.105191   -0.992186
     21          6           0        2.667655   -0.377875    0.167457
     22          6           0        1.940437   -1.241594    1.198539
     23          6           0        0.423311   -1.055213    1.161294
     24          1           0        2.422079    0.678192    0.344550
     25          1           0        2.291803   -0.622205   -0.835754
     26          1           0        2.318534   -0.996688    2.199378
     27          1           0        2.187923   -2.295711    1.019090
     28          1           0        0.026914   -1.318575    0.175338
     29          1           0        0.158267   -0.012171    1.362332
     30          1           0       -0.076578   -1.681947    1.906395
     31          6           0        4.185016   -0.553137    0.192439
     32          6           0        4.912234    0.310582   -0.838642
     33          6           0        6.429359    0.124202   -0.801398
     34          1           0        4.560868   -0.308806    1.195651
     35          1           0        4.430592   -1.609204    0.015346
     36          1           0        4.664746    1.364700   -0.659193
     37          1           0        4.534136    0.065677   -1.839482
     38          1           0        6.694404   -0.918840   -1.002436
     39          1           0        6.825756    0.387564    0.184558
     40          1           0        6.929249    0.750936   -1.546499
 ---------------------------------------------------------------------

 SCF Done:  E(RHF) =  -470.732705821     A.U. after   11 cycles
 E2 =    -0.1583501346D+01 EUMP2 =    -0.47231620716649D+03

 The electronic state is 1-A.
 Alpha  occ. eigenvalues --  -11.21659 -11.21610 -11.21533 -11.21524 -11.21432
 Alpha  occ. eigenvalues --  -11.21371 -11.21284 -11.21170 -11.21160 -11.21077
 Alpha  occ. eigenvalues --  -11.21048 -11.21022  -1.08466  -1.08331  -1.03580
 Alpha  occ. eigenvalues --   -1.03461  -0.96042  -0.95903  -0.87073  -0.86917
 Alpha  occ. eigenvalues --   -0.79692  -0.79502  -0.78312  -0.78088  -0.65099
 Alpha  occ. eigenvalues --   -0.64972  -0.61027  -0.60824  -0.59403  -0.59272
 Alpha  occ. eigenvalues --   -0.57668  -0.57501  -0.55328  -0.55197  -0.52750
 Alpha  occ. eigenvalues --   -0.52631  -0.52532  -0.52274  -0.49981  -0.49854
 Alpha  occ. eigenvalues --   -0.48131  -0.47779  -0.46726  -0.46485  -0.45994
 Alpha  occ. eigenvalues --   -0.45732  -0.45650  -0.45256  -0.43821  -0.43697
 Alpha virt. eigenvalues --    0.21128   0.22934   0.23490   0.24455   0.25615
 Alpha virt. eigenvalues --    0.26109   0.27126   0.27389   0.28128   0.29598
 Alpha virt. eigenvalues --    0.30064   0.31663   0.31753   0.31927   0.32233

 Mulliken charges:
               1
     1  C   -0.310316
     2  C   -0.298970
     3  C   -0.478065
     4  H    0.165819
     5  H    0.147935
     6  H    0.151253
     7  H    0.151538
     8  H    0.155487
     9  H    0.155859
    10  H    0.159988
    11  C   -0.297181
    12  C   -0.300752
    13  C   -0.475564
    14  H    0.148966
    15  H    0.148923
    16  H    0.152863
    17  H    0.151390
    18  H    0.155086
    19  H    0.155072
    20  H    0.159863
    21  C   -0.298580
    22  C   -0.300014
    23  C   -0.481985
    24  H    0.149950
    25  H    0.149977
    26  H    0.152044
    27  H    0.152256
    28  H    0.158046
    29  H    0.158327
    30  H    0.160389
    31  C   -0.298348
    32  C   -0.299705
    33  C   -0.475735
    34  H    0.149547
    35  H    0.149701
    36  H    0.152228
    37  H    0.152016
    38  H    0.155154
    39  H    0.155193
    40  H    0.160345
 Sum of Mulliken charges =  -0.00000

 Dipole moment (field-independent basis, Debye):
    X=              0.0613    Y=             -0.0291    Z=              0.0102  Tot=              0.0686
 Quadrupole moment (field-independent basis, Debye-Ang):
   XX=            -86.8965   YY=            -84.6387   ZZ=            -83.5461
   XY=             -0.6021   XZ=              0.4456   YZ=              0.2038

 Normal termination of Gaussian 16 at Thu May  6 00:41:55 2021.
