 Gaussian 16, Revision A.03,
 Gaussian 16:  EM64L-G16RevA.03 25-Dec-2016

 -------------
 #p 6-31g* mp2
 -------------

 ------------------------------------------------------
 Input file generated by CHIRIPA (05-May-2021 14:55:21)
 ------------------------------------------------------
 Symbolic Z-matrix:
 Charge =  0 Multiplicity = 1

                         Standard orientation:
 ---------------------------------------------------------------------
 Center     Atomic      Atomic             Coordinates (Angstroms)
 Number     Number       Type             X           Y           Z
 ---------------------------------------------------------------------
      1          6           0        0.307312   -2.511958   -0.133500
      2          6           0        0.133842   -1.798242    1.056894
      3          6           0       -0.938182   -0.913026    1.204219
      4          6           0       -1.821659   -0.765220    0.136085
      5          6           0       -1.675659   -1.462060   -1.062409
      6          6           0       -0.596399   -2.341889   -1.187494
      7          1           0        1.142897   -3.197523   -0.239308
      8          1           0        0.834112   -1.928319    1.877106
      9          1           0       -1.096152   -0.347914    2.114776
     10          1           0       -2.390205   -1.311305   -1.862481
     11          1           0       -0.464162   -2.894852   -2.113124
     12          7           0       -2.960393    0.169067    0.280280
     13          8           0       -3.724822    0.281481   -0.675570
     14          8           0       -3.066942    0.771257    1.346418
     15          6           0        2.686764    0.909848    0.253653
     16          6           0        3.403754   -0.252085   -0.434694
     17          6           0        4.592381   -0.774804    0.372601
     18          1           0        3.403132    1.725173    0.423968
     19          1           0        2.342884    0.583733    1.245011
     20          1           0        3.744967    0.075709   -1.425017
     21          1           0        2.685551   -1.064663   -0.603563
     22          1           0        4.264825   -1.128241    1.355653
     23          1           0        5.330261    0.018610    0.529531
     24          1           0        5.090339   -1.605087   -0.137817
     25          6           0        1.496230    1.443308   -0.541192
     26          6           0        0.779240    2.605241    0.147155
     27          6           0       -0.409387    3.127960   -0.660141
     28          1           0        1.840110    1.769423   -1.532550
     29          1           0        0.779862    0.627983   -0.711508
     30          1           0        1.497443    3.417819    0.316024
     31          1           0        0.438026    2.277447    1.137478
     32          1           0       -1.147267    2.334546   -0.817070
     33          1           0       -0.081830    3.481398   -1.643192
     34          1           0       -0.907346    3.958243   -0.149722
 ---------------------------------------------------------------------

 SCF Done:  E(RHF) =  -669.533659126     A.U. after   15 cycles
 E2 =    -0.2098202866D+01 EUMP2 =    -0.67163186199203D+03

 The electronic state is 1-A.
 Alpha  occ. eigenvalues --  -20.60923 -20.60918 -15.85966 -11.31371 -11.27958
 Alpha  occ. eigenvalues --  -11.27932 -11.27680 -11.26973 -11.26946 -11.21997
 Alpha  occ. eigenvalues --  -11.21670 -11.21641 -11.21448 -11.21277 -11.20721
 Alpha  occ. eigenvalues --   -1.59998  -1.39547  -1.19582  -1.08973  -1.08563
 Alpha  occ. eigenvalues --   -1.04965  -1.03667  -0.96103  -0.95779  -0.87118
 Alpha  occ. eigenvalues --   -0.86354  -0.82604  -0.79762  -0.78359  -0.77635
 Alpha  occ. eigenvalues --   -0.72186  -0.71357  -0.70673  -0.65352  -0.65201
 Alpha  occ. eigenvalues --   -0.64917  -0.62296  -0.61086  -0.59516  -0.57695
 Alpha  occ. eigenvalues --   -0.55503  -0.55441  -0.53332  -0.53045  -0.52763
 Alpha  occ. eigenvalues --   -0.52491  -0.50072  -0.48948  -0.48941  -0.48075
 Alpha  occ. eigenvalues --   -0.46841  -0.45868  -0.45646  -0.44932  -0.43878
 Alpha  occ. eigenvalues --   -0.37465  -0.36546
 Alpha virt. eigenvalues --    0.04828   0.10989   0.16193   0.19997   0.23178
 Alpha virt. eigenvalues --    0.23751   0.25491   0.26695   0.27851   0.28354
 Alpha virt. eigenvalues --    0.28985   0.29395   0.31207   0.31596   0.32204

 Mulliken charges:
               1
     1  C   -0.172154
     2  C   -0.214748
     3  C   -0.171959
     4  C    0.156201
     5  C   -0.172167
     6  C   -0.218042
     7  H    0.227977
     8  H    0.225185
     9  H    0.276462
    10  H    0.276994
    11  H    0.225079
    12  N    0.489999
    13  O   -0.459385
    14  O   -0.458711
    15  C   -0.294637
    16  C   -0.304759
    17  C   -0.475281
    18  H    0.151011
    19  H    0.141474
    20  H    0.153453
    21  H    0.149390
    22  H    0.148761
    23  H    0.159156
    24  H    0.158328
    25  C   -0.304540
    26  C   -0.301525
    27  C   -0.473272
    28  H    0.148084
    29  H    0.158453
    30  H    0.151081
    31  H    0.150533
    32  H    0.154073
    33  H    0.153162
    34  H    0.166324
 Sum of Mulliken charges =  -0.00000

 Dipole moment (field-independent basis, Debye):
    X=              3.8112    Y=             -3.3025    Z=             -0.5407  Tot=              5.0719
 Quadrupole moment (field-independent basis, Debye-Ang):
   XX=           -110.3729   YY=            -89.5902   ZZ=            -90.7631
   XY=              4.1703   XZ=              2.3070   YZ=              1.1665

 Normal termination of Gaussian 16 at Thu May  6 14:10:55 2021.
