 Gaussian 16, Revision A.03,
 Gaussian 16:  EM64L-G16RevA.03 25-Dec-2016

 -------------
 #p 6-31g* mp2
 -------------

 ------------------------------------------------------
 Input file generated by CHIRIPA (05-May-2021 14:55:23)
 ------------------------------------------------------
 Symbolic Z-matrix:
 Charge =  0 Multiplicity = 1

                         Standard orientation:
 ---------------------------------------------------------------------
 Center     Atomic      Atomic             Coordinates (Angstroms)
 Number     Number       Type             X           Y           Z
 ---------------------------------------------------------------------
      1          6           0       -0.599029   -1.808590    0.399460
      2          6           0       -1.829030   -2.110211    0.993297
      3          6           0       -2.945351   -1.300131    0.764940
      4          6           0       -2.795287   -0.191295   -0.066476
      5          6           0       -1.583209    0.135488   -0.672586
      6          6           0       -0.480253   -0.688678   -0.430124
      7          1           0        0.262964   -2.443351    0.582332
      8          1           0       -1.924208   -2.979306    1.638014
      9          1           0       -3.909403   -1.510455    1.211914
     10          1           0       -1.519249    1.008628   -1.310515
     11          1           0        0.473742   -0.452006   -0.892643
     12          7           0       -3.970011    0.673757   -0.315694
     13          8           0       -3.811701    1.644916   -1.052189
     14          8           0       -5.026826    0.364245    0.230183
     15          6           0        3.069009    0.967484    0.505263
     16          6           0        3.074794    2.366936   -0.110761
     17          6           0        2.549585    3.436670    0.847162
     18          1           0        2.045734    0.714188    0.814609
     19          1           0        3.679185    0.974175    1.419066
     20          1           0        2.465917    2.357271   -1.023883
     21          1           0        4.098141    2.616853   -0.418852
     22          1           0        3.161479    3.475501    1.754179
     23          1           0        1.519980    3.214445    1.145709
     24          1           0        2.562483    4.429369    0.386462
     25          6           0        3.591287   -0.112788   -0.440234
     26          6           0        3.585502   -1.512239    0.175791
     27          6           0        4.110711   -2.581974   -0.782132
     28          1           0        2.981111   -0.119477   -1.354037
     29          1           0        4.614562    0.140509   -0.749580
     30          1           0        2.562156   -1.762156    0.483881
     31          1           0        4.194379   -1.502574    1.088912
     32          1           0        5.140315   -2.359748   -1.080680
     33          1           0        3.498818   -2.620805   -1.689150
     34          1           0        4.097813   -3.574672   -0.321433
 ---------------------------------------------------------------------

 SCF Done:  E(RHF) =  -669.534825479     A.U. after   15 cycles
 E2 =    -0.2093376960D+01 EUMP2 =    -0.67162820243896D+03

 The electronic state is 1-A.
 Alpha  occ. eigenvalues --  -20.60779 -20.60774 -15.85832 -11.31211 -11.27782
 Alpha  occ. eigenvalues --  -11.27778 -11.27504 -11.26787 -11.26764 -11.22826
 Alpha  occ. eigenvalues --  -11.22488 -11.22299 -11.22197 -11.22109 -11.21534
 Alpha  occ. eigenvalues --   -1.59854  -1.39407  -1.19385  -1.09419  -1.08770
 Alpha  occ. eigenvalues --   -1.04789  -1.04417  -0.96839  -0.95611  -0.87846
 Alpha  occ. eigenvalues --   -0.86189  -0.82446  -0.80512  -0.79184  -0.77492
 Alpha  occ. eigenvalues --   -0.72051  -0.71177  -0.70521  -0.66301  -0.65033
 Alpha  occ. eigenvalues --   -0.64614  -0.62111  -0.61818  -0.60222  -0.58442
 Alpha  occ. eigenvalues --   -0.56185  -0.55266  -0.53509  -0.53253  -0.53108
 Alpha  occ. eigenvalues --   -0.52838  -0.50783  -0.48818  -0.48807  -0.48784
 Alpha  occ. eigenvalues --   -0.47573  -0.46692  -0.46654  -0.44810  -0.44675
 Alpha  occ. eigenvalues --   -0.37348  -0.36378
 Alpha virt. eigenvalues --    0.05040   0.11128   0.16483   0.18410   0.22604
 Alpha virt. eigenvalues --    0.23643   0.25031   0.25530   0.26992   0.28379
 Alpha virt. eigenvalues --    0.29314   0.30661   0.30990   0.31214   0.32004

 Mulliken charges:
               1
     1  C   -0.176975
     2  C   -0.218351
     3  C   -0.170601
     4  C    0.158629
     5  C   -0.173734
     6  C   -0.223584
     7  H    0.230988
     8  H    0.223848
     9  H    0.275723
    10  H    0.276002
    11  H    0.232627
    12  N    0.488065
    13  O   -0.460334
    14  O   -0.460330
    15  C   -0.305112
    16  C   -0.299451
    17  C   -0.476637
    18  H    0.151090
    19  H    0.153550
    20  H    0.148295
    21  H    0.154554
    22  H    0.156540
    23  H    0.157627
    24  H    0.163635
    25  C   -0.302628
    26  C   -0.304897
    27  C   -0.476316
    28  H    0.143333
    29  H    0.156897
    30  H    0.142673
    31  H    0.158270
    32  H    0.160590
    33  H    0.154529
    34  H    0.161487
 Sum of Mulliken charges =  -0.00000

 Dipole moment (field-independent basis, Debye):
    X=              4.3172    Y=             -2.9782    Z=              0.9313  Tot=              5.3268
 Quadrupole moment (field-independent basis, Debye-Ang):
   XX=           -115.0268   YY=            -92.7107   ZZ=            -93.9109
   XY=             10.2132   XZ=             -4.0303   YZ=             -2.3712

 Normal termination of Gaussian 16 at Thu May  6 01:31:36 2021.
