 Gaussian 16, Revision A.03,
 Gaussian 16:  EM64L-G16RevA.03 25-Dec-2016

 -------------
 #p 6-31g* mp2
 -------------

 ------------------------------------------------------
 Input file generated by CHIRIPA (05-May-2021 14:57:22)
 ------------------------------------------------------
 Symbolic Z-matrix:
 Charge =  0 Multiplicity = 1

                         Standard orientation:
 ---------------------------------------------------------------------
 Center     Atomic      Atomic             Coordinates (Angstroms)
 Number     Number       Type             X           Y           Z
 ---------------------------------------------------------------------
      1          6           0       -4.227665    2.497545   -0.378252
      2          6           0       -3.618280    2.100833    0.816650
      3          6           0       -3.274957    0.762217    1.028275
      4          6           0       -3.556763   -0.157310    0.019145
      5          6           0       -4.162988    0.206934   -1.182149
      6          6           0       -4.497598    1.550998   -1.372086
      7          1           0       -4.490982    3.539530   -0.534224
      8          1           0       -3.407457    2.833757    1.590227
      9          1           0       -2.802380    0.427734    1.943813
     10          1           0       -4.360610   -0.546623   -1.934822
     11          1           0       -4.970769    1.856221   -2.301060
     12          7           0       -3.197915   -1.577327    0.231703
     13          8           0       -3.456772   -2.368063   -0.672933
     14          8           0       -2.664587   -1.872712    1.298917
     15          6           0        1.395825   -1.176092    0.493959
     16          6           0        2.082231   -1.470057   -0.688814
     17          6           0        3.313043   -0.866849   -0.964113
     18          6           0        3.830536    0.029557   -0.030331
     19          6           0        3.170707    0.342965    1.156974
     20          6           0        1.941291   -0.272113    1.411461
     21          1           0        0.440241   -1.649289    0.699734
     22          1           0        1.661015   -2.171705   -1.403175
     23          1           0        3.865663   -1.076318   -1.871941
     24          1           0        3.615907    1.046545    1.849933
     25          1           0        1.410444   -0.041918    2.330838
     26          7           0        5.132802    0.674429   -0.310761
     27          8           0        5.567344    1.460668    0.528071
     28          8           0        5.694318    0.381430   -1.364083
 ---------------------------------------------------------------------

 SCF Done:  E(RHF) =  -868.339912794     A.U. after   16 cycles
 E2 =    -0.2598511790D+01 EUMP2 =    -0.87093842458401D+03

 The electronic state is 1-A.
 Alpha  occ. eigenvalues --  -20.61914 -20.61867 -20.60499 -20.60492 -15.86905
 Alpha  occ. eigenvalues --  -15.85549 -11.31996 -11.30797 -11.28557 -11.28507
 Alpha  occ. eigenvalues --  -11.28191 -11.27477 -11.27449 -11.27388 -11.27354
 Alpha  occ. eigenvalues --  -11.26907 -11.26325 -11.26263  -1.60955  -1.59578
 Alpha  occ. eigenvalues --   -1.40515  -1.39134  -1.20138  -1.18950  -1.09578
 Alpha  occ. eigenvalues --   -1.08333  -1.05498  -1.04347  -0.96459  -0.95190
 Alpha  occ. eigenvalues --   -0.86908  -0.85729  -0.83301  -0.82039  -0.78390
 Alpha  occ. eigenvalues --   -0.77134  -0.73124  -0.72273  -0.71767  -0.71234
 Alpha  occ. eigenvalues --   -0.70902  -0.69947  -0.65790  -0.65491  -0.64586
 Alpha  occ. eigenvalues --   -0.64333  -0.62854  -0.61705  -0.55991  -0.54709
 Alpha  occ. eigenvalues --   -0.53837  -0.53583  -0.52677  -0.52423  -0.49906
 Alpha  occ. eigenvalues --   -0.49857  -0.48531  -0.48514  -0.45963  -0.44567
 Alpha  occ. eigenvalues --   -0.38089  -0.37089  -0.36880  -0.35974
 Alpha virt. eigenvalues --    0.04091   0.05411   0.10567   0.11693   0.15631
 Alpha virt. eigenvalues --    0.16945   0.20677   0.22002   0.26592   0.27354
 Alpha virt. eigenvalues --    0.27916   0.28885   0.30506   0.31574   0.31858

 Mulliken charges:
               1
     1  C   -0.169403
     2  C   -0.217733
     3  C   -0.171434
     4  C    0.157535
     5  C   -0.170503
     6  C   -0.218111
     7  H    0.228979
     8  H    0.225559
     9  H    0.272216
    10  H    0.276584
    11  H    0.226380
    12  N    0.487057
    13  O   -0.456023
    14  O   -0.467198
    15  C   -0.179199
    16  C   -0.220375
    17  C   -0.171512
    18  C    0.157417
    19  C   -0.171911
    20  C   -0.220750
    21  H    0.243293
    22  H    0.226326
    23  H    0.274221
    24  H    0.272983
    25  H    0.221243
    26  N    0.488210
    27  O   -0.462391
    28  O   -0.461459
 Sum of Mulliken charges =  -0.00000

 Dipole moment (field-independent basis, Debye):
    X=             -6.2512    Y=              2.7683    Z=              0.1297  Tot=              6.8379
 Quadrupole moment (field-independent basis, Debye-Ang):
   XX=           -131.7055   YY=           -105.7807   ZZ=            -97.3935
   XY=            -26.9827   XZ=              8.5616   YZ=              4.0095

 Normal termination of Gaussian 16 at Thu May  6 12:52:26 2021.
