 Gaussian 16, Revision A.03,
 Gaussian 16:  EM64L-G16RevA.03 25-Dec-2016

 -------------
 #p 6-31g* mp2
 -------------

 ------------------------------------------------------
 Input file generated by CHIRIPA (05-May-2021 14:57:24)
 ------------------------------------------------------
 Symbolic Z-matrix:
 Charge =  0 Multiplicity = 1

                         Standard orientation:
 ---------------------------------------------------------------------
 Center     Atomic      Atomic             Coordinates (Angstroms)
 Number     Number       Type             X           Y           Z
 ---------------------------------------------------------------------
      1          6           0        0.961191   -0.054005   -0.536558
      2          6           0        1.585436   -1.155575    0.057903
      3          6           0        2.966171   -1.156313    0.277265
      4          6           0        3.695341   -0.033761   -0.111937
      5          6           0        3.102397    1.079001   -0.706467
      6          6           0        1.720326    1.057807   -0.916176
      7          1           0       -0.111916   -0.061951   -0.703214
      8          1           0        0.998396   -2.020394    0.353736
      9          1           0        3.475035   -1.995662    0.735489
     10          1           0        3.714070    1.926647   -0.990667
     11          1           0        1.238211    1.914710   -1.378051
     12          7           0        5.157771   -0.022933    0.115183
     13          8           0        5.777812    0.978235   -0.236738
     14          8           0        5.656290   -1.015819    0.640819
     15          6           0       -3.198397    2.513263    0.551052
     16          6           0       -4.266613    2.034953   -0.214883
     17          6           0       -4.418294    0.664159   -0.443936
     18          6           0       -3.479056   -0.203991    0.110535
     19          6           0       -2.404104    0.241804    0.878021
     20          6           0       -2.272186    1.616742    1.094102
     21          1           0       -3.088243    3.579738    0.723948
     22          1           0       -4.987440    2.728884   -0.637864
     23          1           0       -5.235863    0.266729   -1.033045
     24          1           0       -1.701560   -0.474378    1.286594
     25          1           0       -1.441609    1.985359    1.689342
     26          7           0       -3.629174   -1.657382   -0.125086
     27          8           0       -2.788186   -2.401591    0.374442
     28          8           0       -4.584983   -2.024822   -0.804834
 ---------------------------------------------------------------------

 SCF Done:  E(RHF) =  -868.337728137     A.U. after   16 cycles
 E2 =    -0.2601297667D+01 EUMP2 =    -0.87093902580389D+03

 The electronic state is 1-A.
 Alpha  occ. eigenvalues --  -20.61854 -20.61812 -20.60848 -20.60839 -15.86886
 Alpha  occ. eigenvalues --  -15.85899 -11.32300 -11.31283 -11.28854 -11.28778
 Alpha  occ. eigenvalues --  -11.28507 -11.27876 -11.27833 -11.27810 -11.27788
 Alpha  occ. eigenvalues --  -11.27493 -11.26897 -11.26764  -1.60906  -1.59922
 Alpha  occ. eigenvalues --   -1.40460  -1.39474  -1.20456  -1.19451  -1.09818
 Alpha  occ. eigenvalues --   -1.08841  -1.05847  -1.04847  -0.96659  -0.95671
 Alpha  occ. eigenvalues --   -0.87230  -0.86235  -0.83476  -0.82497  -0.78539
 Alpha  occ. eigenvalues --   -0.77544  -0.73094  -0.72246  -0.72114  -0.71567
 Alpha  occ. eigenvalues --   -0.71246  -0.70514  -0.66076  -0.65799  -0.65086
 Alpha  occ. eigenvalues --   -0.64829  -0.63161  -0.62176  -0.56298  -0.55511
 Alpha  occ. eigenvalues --   -0.54031  -0.53862  -0.53181  -0.52912  -0.49863
 Alpha  occ. eigenvalues --   -0.49840  -0.48875  -0.48870  -0.45852  -0.44875
 Alpha  occ. eigenvalues --   -0.38416  -0.37722  -0.37150  -0.36466
 Alpha virt. eigenvalues --    0.03917   0.05002   0.10061   0.11145   0.15419
 Alpha virt. eigenvalues --    0.16494   0.20234   0.21654   0.25796   0.26778
 Alpha virt. eigenvalues --    0.27930   0.28476   0.30245   0.30945   0.31328

 Mulliken charges:
               1
     1  C   -0.179857
     2  C   -0.226306
     3  C   -0.170590
     4  C    0.158371
     5  C   -0.171558
     6  C   -0.222547
     7  H    0.232831
     8  H    0.234826
     9  H    0.277268
    10  H    0.274775
    11  H    0.221310
    12  N    0.488000
    13  O   -0.461067
    14  O   -0.459294
    15  C   -0.171841
    16  C   -0.217590
    17  C   -0.170588
    18  C    0.160430
    19  C   -0.187548
    20  C   -0.220088
    21  H    0.229531
    22  H    0.227593
    23  H    0.278786
    24  H    0.276239
    25  H    0.229711
    26  N    0.488751
    27  O   -0.464916
    28  O   -0.454633
 Sum of Mulliken charges =  -0.00000

 Dipole moment (field-independent basis, Debye):
    X=             -4.9088    Y=              5.1040    Z=              0.0416  Tot=              7.0815
 Quadrupole moment (field-independent basis, Debye-Ang):
   XX=           -142.9244   YY=           -102.8236   ZZ=           -103.4186
   XY=            -19.1298   XZ=             -2.6630   YZ=             -2.1037

 Normal termination of Gaussian 16 at Fri May  7 03:23:46 2021.
