 Gaussian 16, Revision A.03,
 Gaussian 16:  EM64L-G16RevA.03 25-Dec-2016

 -------------
 #p 6-31g* mp2
 -------------

 ------------------------------------------------------
 Input file generated by CHIRIPA (05-May-2021 14:51:08)
 ------------------------------------------------------
 Symbolic Z-matrix:
 Charge =  0 Multiplicity = 1

                         Standard orientation:
 ---------------------------------------------------------------------
 Center     Atomic      Atomic             Coordinates (Angstroms)
 Number     Number       Type             X           Y           Z
 ---------------------------------------------------------------------
      1          6           0       -1.857111   -0.566151    0.356772
      2          6           0       -2.275408   -1.728764    1.257519
      3          6           0       -1.139206   -2.720692    1.508356
      4          1           0       -1.497755   -0.964362   -0.601996
      5          1           0       -1.007087   -0.042923    0.816214
      6          1           0       -3.125277   -2.248799    0.797191
      7          1           0       -2.633989   -1.327729    2.214183
      8          1           0       -0.291659   -2.221995    1.989570
      9          1           0       -0.785737   -3.148299    0.564527
     10          1           0       -1.460098   -3.543674    2.154566
     11          6           0       -2.982229    0.433968    0.096768
     12          6           0       -2.563932    1.596580   -0.803978
     13          6           0       -3.700134    2.588508   -1.054815
     14          1           0       -3.832253   -0.089260   -0.362673
     15          1           0       -3.341585    0.832178    1.055537
     16          1           0       -2.205351    1.195546   -1.760643
     17          1           0       -1.714063    2.116616   -0.343651
     18          1           0       -4.053602    3.016115   -0.110986
     19          1           0       -4.547681    2.089812   -1.536029
     20          1           0       -3.379242    3.411491   -1.701025
     21          6           0        2.897119    0.657612   -0.152079
     22          6           0        2.422257    1.695406    0.865504
     23          6           0        3.387972    2.872725    1.003738
     24          1           0        3.887877    0.287991    0.145786
     25          1           0        3.025717    1.144204   -1.128852
     26          1           0        2.293264    1.206706    1.839747
     27          1           0        1.432431    2.062459    0.565285
     28          1           0        3.509235    3.386198    0.044446
     29          1           0        4.374959    2.525583    1.326149
     30          1           0        3.029068    3.602505    1.736179
     31          6           0        1.942221   -0.525428   -0.301461
     32          6           0        2.417083   -1.563222   -1.319045
     33          6           0        1.451368   -2.740541   -1.457279
     34          1           0        1.813622   -1.012020    0.675312
     35          1           0        0.951462   -0.155808   -0.599326
     36          1           0        3.406909   -1.930275   -1.018826
     37          1           0        2.546075   -1.074522   -2.293288
     38          1           0        0.464380   -2.393400   -1.779689
     39          1           0        1.330105   -3.254014   -0.497987
     40          1           0        1.810272   -3.470322   -2.189720
 ---------------------------------------------------------------------

 SCF Done:  E(RHF) =  -470.731088562     A.U. after   11 cycles
 E2 =    -0.1585991935D+01 EUMP2 =    -0.47231708049678D+03

 The electronic state is 1-A.
 Alpha  occ. eigenvalues --  -11.21656 -11.21623 -11.21550 -11.21548 -11.21379
 Alpha  occ. eigenvalues --  -11.21335 -11.21287 -11.21203 -11.21105 -11.21083
 Alpha  occ. eigenvalues --  -11.21024 -11.20939  -1.08477  -1.08334  -1.03571
 Alpha  occ. eigenvalues --   -1.03460  -0.96026  -0.95898  -0.87066  -0.86901
 Alpha  occ. eigenvalues --   -0.79774  -0.79458  -0.78614  -0.77807  -0.65065
 Alpha  occ. eigenvalues --   -0.65025  -0.60940  -0.60927  -0.59460  -0.59198
 Alpha  occ. eigenvalues --   -0.57793  -0.57383  -0.55415  -0.55103  -0.52720
 Alpha  occ. eigenvalues --   -0.52652  -0.52637  -0.52131  -0.50087  -0.49723
 Alpha  occ. eigenvalues --   -0.48327  -0.47612  -0.46647  -0.46587  -0.46511
 Alpha  occ. eigenvalues --   -0.45705  -0.45539  -0.44769  -0.43767  -0.43734
 Alpha virt. eigenvalues --    0.20925   0.22211   0.23423   0.23791   0.24873
 Alpha virt. eigenvalues --    0.25476   0.26490   0.27706   0.29384   0.30130
 Alpha virt. eigenvalues --    0.30871   0.31036   0.31410   0.31756   0.31957

 Mulliken charges:
               1
     1  C   -0.305383
     2  C   -0.299035
     3  C   -0.482198
     4  H    0.151790
     5  H    0.155829
     6  H    0.151284
     7  H    0.151320
     8  H    0.155316
     9  H    0.163040
    10  H    0.159022
    11  C   -0.297447
    12  C   -0.301469
    13  C   -0.475486
    14  H    0.149273
    15  H    0.149662
    16  H    0.151148
    17  H    0.152253
    18  H    0.155483
    19  H    0.155464
    20  H    0.160208
    21  C   -0.297495
    22  C   -0.301622
    23  C   -0.475525
    24  H    0.149109
    25  H    0.149195
    26  H    0.151145
    27  H    0.152521
    28  H    0.155392
    29  H    0.155424
    30  H    0.160018
    31  C   -0.306275
    32  C   -0.299230
    33  C   -0.481100
    34  H    0.150736
    35  H    0.159317
    36  H    0.151380
    37  H    0.151211
    38  H    0.155640
    39  H    0.160300
    40  H    0.159789
 Sum of Mulliken charges =  -0.00000

 Dipole moment (field-independent basis, Debye):
    X=             -0.0088    Y=             -0.0111    Z=             -0.0053  Tot=              0.0151
 Quadrupole moment (field-independent basis, Debye-Ang):
   XX=            -85.4859   YY=            -85.7601   ZZ=            -83.7883
   XY=             -0.1062   XZ=              0.3535   YZ=              0.1153

 Normal termination of Gaussian 16 at Wed May  5 15:03:39 2021.
