 Gaussian 16, Revision A.03,
 Gaussian 16:  EM64L-G16RevA.03 25-Dec-2016

 -------------
 #p 6-31g* mp2
 -------------

 ------------------------------------------------------
 Input file generated by CHIRIPA (05-May-2021 14:53:14)
 ------------------------------------------------------
 Symbolic Z-matrix:
 Charge =  0 Multiplicity = 1

                         Standard orientation:
 ---------------------------------------------------------------------
 Center     Atomic      Atomic             Coordinates (Angstroms)
 Number     Number       Type             X           Y           Z
 ---------------------------------------------------------------------
      1          6           0        2.623558    1.426079   -0.458978
      2          6           0        1.842517    2.355902    0.470209
      3          6           0        1.444686    3.668709   -0.205114
      4          1           0        3.524373    1.945085   -0.814096
      5          1           0        2.014931    1.212190   -1.348483
      6          1           0        2.451885    2.566863    1.358343
      7          1           0        0.943555    1.834553    0.823308
      8          1           0        0.815821    3.476532   -1.080441
      9          1           0        2.332721    4.213003   -0.542366
     10          1           0        0.887349    4.318280    0.477009
     11          6           0        3.028355    0.109552    0.201798
     12          6           0        3.809396   -0.820271   -0.727389
     13          6           0        4.207227   -2.133079   -0.052066
     14          1           0        3.636982    0.323440    1.091303
     15          1           0        2.127540   -0.409455    0.556916
     16          1           0        4.708358   -0.298922   -1.080488
     17          1           0        3.200028   -1.031233   -1.615523
     18          1           0        3.319192   -2.677373    0.285186
     19          1           0        4.836092   -1.940902    0.823261
     20          1           0        4.764564   -2.782650   -0.734189
     21          6           0       -4.231744    0.800868   -0.454028
     22          6           0       -3.710303   -0.082867   -1.404623
     23          6           0       -2.589250   -0.863894   -1.108333
     24          6           0       -2.012109   -0.735272    0.154067
     25          6           0       -2.508285    0.136160    1.122419
     26          6           0       -3.630132    0.907374    0.804241
     27          1           0       -5.102913    1.403777   -0.692695
     28          1           0       -4.175465   -0.167663   -2.382621
     29          1           0       -2.164967   -1.556043   -1.825500
     30          1           0       -2.022895    0.198753    2.088803
     31          1           0       -4.032930    1.592857    1.544451
     32          7           0       -0.824881   -1.556917    0.479322
     33          8           0       -0.334733   -1.425081    1.598702
     34          8           0       -0.406960   -2.317198   -0.391282
 ---------------------------------------------------------------------

 SCF Done:  E(RHF) =  -669.536791092     A.U. after   15 cycles
 E2 =    -0.2092373548D+01 EUMP2 =    -0.67162916463943D+03

 The electronic state is 1-A.
 Alpha  occ. eigenvalues --  -20.61105 -20.61095 -15.86101 -11.31383 -11.27932
 Alpha  occ. eigenvalues --  -11.27928 -11.27656 -11.26925 -11.26915 -11.21109
 Alpha  occ. eigenvalues --  -11.20801 -11.20659 -11.20462 -11.20147 -11.19771
 Alpha  occ. eigenvalues --   -1.60148  -1.39703  -1.19539  -1.08953  -1.07559
 Alpha  occ. eigenvalues --   -1.04925  -1.02691  -0.95801  -0.95143  -0.86328
 Alpha  occ. eigenvalues --   -0.86160  -0.82636  -0.78809  -0.77698  -0.77291
 Alpha  occ. eigenvalues --   -0.72316  -0.71469  -0.70643  -0.65193  -0.64926
 Alpha  occ. eigenvalues --   -0.64184  -0.62271  -0.60084  -0.58571  -0.56739
 Alpha  occ. eigenvalues --   -0.55430  -0.54424  -0.53257  -0.53014  -0.51890
 Alpha  occ. eigenvalues --   -0.51555  -0.49194  -0.49089  -0.48978  -0.47108
 Alpha  occ. eigenvalues --   -0.45860  -0.45304  -0.44840  -0.44465  -0.42926
 Alpha  occ. eigenvalues --   -0.37509  -0.36519
 Alpha virt. eigenvalues --    0.04779   0.11089   0.16276   0.21239   0.23494
 Alpha virt. eigenvalues --    0.25176   0.26992   0.27368   0.27960   0.28585
 Alpha virt. eigenvalues --    0.28798   0.30987   0.31927   0.32337   0.32394

 Mulliken charges:
               1
     1  C   -0.298177
     2  C   -0.298496
     3  C   -0.474722
     4  H    0.146685
     5  H    0.145884
     6  H    0.152171
     7  H    0.149233
     8  H    0.152430
     9  H    0.155038
    10  H    0.155917
    11  C   -0.308750
    12  C   -0.296945
    13  C   -0.478761
    14  H    0.145919
    15  H    0.171885
    16  H    0.144985
    17  H    0.152320
    18  H    0.171438
    19  H    0.150515
    20  H    0.154669
    21  C   -0.170260
    22  C   -0.218513
    23  C   -0.170942
    24  C    0.159121
    25  C   -0.171128
    26  C   -0.218328
    27  H    0.226473
    28  H    0.224207
    29  H    0.275952
    30  H    0.276539
    31  H    0.224401
    32  N    0.487257
    33  O   -0.458681
    34  O   -0.459335
 Sum of Mulliken charges =  -0.00000

 Dipole moment (field-independent basis, Debye):
    X=             -4.4499    Y=              2.6838    Z=             -1.0684  Tot=              5.3052
 Quadrupole moment (field-independent basis, Debye-Ang):
   XX=            -78.5727   YY=            -99.9996   ZZ=            -91.1350
   XY=             -2.3698   XZ=              2.3437   YZ=              3.9412

 Normal termination of Gaussian 16 at Thu May  6 17:05:10 2021.
