 Gaussian 16, Revision A.03,
 Gaussian 16:  EM64L-G16RevA.03 25-Dec-2016

 -------------
 #p 6-31g* mp2
 -------------

 ------------------------------------------------------
 Input file generated by CHIRIPA (05-May-2021 14:57:22)
 ------------------------------------------------------
 Symbolic Z-matrix:
 Charge =  0 Multiplicity = 1

                         Standard orientation:
 ---------------------------------------------------------------------
 Center     Atomic      Atomic             Coordinates (Angstroms)
 Number     Number       Type             X           Y           Z
 ---------------------------------------------------------------------
      1          6           0       -2.857285    2.349437    0.084005
      2          6           0       -1.673230    1.607105    0.025035
      3          6           0       -1.713031    0.211460   -0.046638
      4          6           0       -2.959793   -0.412045   -0.057399
      5          6           0       -4.156987    0.299782    0.000216
      6          6           0       -4.093206    1.694561    0.071429
      7          1           0       -2.817052    3.433272    0.139504
      8          1           0       -0.711975    2.113012    0.034638
      9          1           0       -0.811808   -0.387738   -0.093294
     10          1           0       -5.100221   -0.232759   -0.011079
     11          1           0       -5.014376    2.268496    0.117121
     12          7           0       -3.014622   -1.889094   -0.133032
     13          8           0       -4.125679   -2.414571   -0.141059
     14          8           0       -1.945502   -2.493360   -0.182856
     15          6           0        2.046613    2.522304   -0.047649
     16          6           0        1.974776    1.791153    1.142637
     17          6           0        2.472550    0.486232    1.205475
     18          6           0        3.038166   -0.058937    0.053884
     19          6           0        3.124310    0.644070   -1.146803
     20          6           0        2.620140    1.947443   -1.186562
     21          1           0        1.657446    3.535397   -0.087499
     22          1           0        1.529904    2.235047    2.028690
     23          1           0        2.429793   -0.102264    2.113915
     24          1           0        3.573436    0.174695   -2.013631
     25          1           0        2.677278    2.512909   -2.112319
     26          7           0        3.568523   -1.439579    0.108192
     27          8           0        4.062056   -1.897180   -0.920236
     28          8           0        3.480641   -2.037983    1.178158
 ---------------------------------------------------------------------

 SCF Done:  E(RHF) =  -868.336025828     A.U. after   16 cycles
 E2 =    -0.2602541778D+01 EUMP2 =    -0.87093856760644D+03

 The electronic state is 1-A.
 Alpha  occ. eigenvalues --  -20.61127 -20.61117 -20.60779 -20.60762 -15.86192
 Alpha  occ. eigenvalues --  -15.85829 -11.31946 -11.31319 -11.28517 -11.28481
 Alpha  occ. eigenvalues --  -11.28382 -11.27902 -11.27867 -11.27708 -11.27671
 Alpha  occ. eigenvalues --  -11.27613 -11.26962 -11.26858  -1.60190  -1.59848
 Alpha  occ. eigenvalues --   -1.39733  -1.39397  -1.20162  -1.19505  -1.09512
 Alpha  occ. eigenvalues --   -1.08891  -1.05582  -1.04913  -0.96264  -0.95702
 Alpha  occ. eigenvalues --   -0.86973  -0.86321  -0.83061  -0.82521  -0.78024
 Alpha  occ. eigenvalues --   -0.77547  -0.72402  -0.72041  -0.71518  -0.71270
 Alpha  occ. eigenvalues --   -0.71177  -0.70643  -0.65798  -0.65571  -0.65154
 Alpha  occ. eigenvalues --   -0.64933  -0.62879  -0.62296  -0.56122  -0.55498
 Alpha  occ. eigenvalues --   -0.53967  -0.53643  -0.53258  -0.52917  -0.49189
 Alpha  occ. eigenvalues --   -0.49132  -0.48814  -0.48792  -0.45052  -0.44773
 Alpha  occ. eigenvalues --   -0.38167  -0.37535  -0.37241  -0.36465
 Alpha virt. eigenvalues --    0.04421   0.04992   0.10291   0.11192   0.15708
 Alpha virt. eigenvalues --    0.16485   0.20146   0.21713   0.26350   0.26851
 Alpha virt. eigenvalues --    0.27709   0.28443   0.30268   0.31370   0.31859

 Mulliken charges:
               1
     1  C   -0.173915
     2  C   -0.223654
     3  C   -0.176120
     4  C    0.159355
     5  C   -0.171121
     6  C   -0.218239
     7  H    0.221713
     8  H    0.225733
     9  H    0.277570
    10  H    0.276282
    11  H    0.223122
    12  N    0.487703
    13  O   -0.460453
    14  O   -0.456953
    15  C   -0.185454
    16  C   -0.221755
    17  C   -0.172727
    18  C    0.159468
    19  C   -0.170315
    20  C   -0.216594
    21  H    0.224618
    22  H    0.226742
    23  H    0.281203
    24  H    0.280188
    25  H    0.226912
    26  N    0.488621
    27  O   -0.456638
    28  O   -0.455294
 Sum of Mulliken charges =  -0.00000

 Dipole moment (field-independent basis, Debye):
    X=             -1.3337    Y=              9.7727    Z=              0.0521  Tot=              9.8634
 Quadrupole moment (field-independent basis, Debye-Ang):
   XX=           -111.8184   YY=           -111.2357   ZZ=           -100.9059
   XY=             -0.7666   XZ=             -3.1355   YZ=             -0.5856

 Normal termination of Gaussian 16 at Thu May  6 22:40:38 2021.
