 Gaussian 16, Revision A.03,
 Gaussian 16:  EM64L-G16RevA.03 25-Dec-2016

 -------------
 #p 6-31g* mp2
 -------------

 ------------------------------------------------------
 Input file generated by CHIRIPA (05-May-2021 14:53:16)
 ------------------------------------------------------
 Symbolic Z-matrix:
 Charge =  0 Multiplicity = 1

                         Standard orientation:
 ---------------------------------------------------------------------
 Center     Atomic      Atomic             Coordinates (Angstroms)
 Number     Number       Type             X           Y           Z
 ---------------------------------------------------------------------
      1          6           0        3.235593    0.864801    0.170140
      2          6           0        3.646554    2.028906   -0.732054
      3          6           0        3.210801    3.386715   -0.180448
      4          1           0        2.144664    0.876725    0.299283
      5          1           0        3.670161    1.012621    1.168486
      6          1           0        3.212479    1.878226   -1.728794
      7          1           0        4.736612    2.014095   -0.859220
      8          1           0        3.655093    3.562964    0.804510
      9          1           0        2.122300    3.426323   -0.070005
     10          1           0        3.514767    4.204700   -0.841027
     11          6           0        3.664165   -0.499222   -0.367908
     12          6           0        3.253204   -1.663328    0.534286
     13          6           0        3.688957   -3.021136   -0.017320
     14          1           0        3.229596   -0.647042   -1.366254
     15          1           0        4.755093   -0.511147   -0.497051
     16          1           0        2.163146   -1.648517    0.661452
     17          1           0        3.687279   -1.512648    1.531026
     18          1           0        4.777458   -3.060745   -0.127763
     19          1           0        3.244665   -3.197386   -1.002277
     20          1           0        3.384991   -3.839122    0.643260
     21          6           0       -5.112707    0.397170   -0.402430
     22          6           0       -4.524550    0.821933    0.793466
     23          6           0       -3.185873    0.528435    1.069783
     24          6           0       -2.461505   -0.195007    0.123627
     25          6           0       -3.019140   -0.632097   -1.076908
     26          6           0       -4.359453   -0.327211   -1.332162
     27          1           0       -6.153259    0.629591   -0.608900
     28          1           0       -5.107122    1.384657    1.517342
     29          1           0       -2.705518    0.845016    1.987636
     30          1           0       -2.412953   -1.191371   -1.779166
     31          1           0       -4.813600   -0.658373   -2.261747
     32          7           0       -1.043441   -0.511748    0.405002
     33          8           0       -0.426759   -1.150517   -0.444888
     34          8           0       -0.575496   -0.115243    1.470108
 ---------------------------------------------------------------------

 SCF Done:  E(RHF) =  -669.537344922     A.U. after   15 cycles
 E2 =    -0.2092462659D+01 EUMP2 =    -0.67162980758059D+03

 The electronic state is 1-A.
 Alpha  occ. eigenvalues --  -20.61278 -20.61270 -15.86247 -11.31474 -11.28016
 Alpha  occ. eigenvalues --  -11.28012 -11.27734 -11.26995 -11.26986 -11.20450
 Alpha  occ. eigenvalues --  -11.20170 -11.19774 -11.19715 -11.19578 -11.19519
 Alpha  occ. eigenvalues --   -1.60295  -1.39853  -1.19625  -1.09049  -1.06866
 Alpha  occ. eigenvalues --   -1.05002  -1.02078  -0.95904  -0.94583  -0.86407
 Alpha  occ. eigenvalues --   -0.85614  -0.82741  -0.78152  -0.77811  -0.76612
 Alpha  occ. eigenvalues --   -0.72444  -0.71592  -0.70731  -0.65279  -0.65006
 Alpha  occ. eigenvalues --   -0.63488  -0.62348  -0.59473  -0.57984  -0.56176
 Alpha  occ. eigenvalues --   -0.55511  -0.53879  -0.53338  -0.53090  -0.51349
 Alpha  occ. eigenvalues --   -0.51009  -0.49321  -0.49221  -0.48521  -0.46472
 Alpha  occ. eigenvalues --   -0.45297  -0.45126  -0.44197  -0.43876  -0.42304
 Alpha  occ. eigenvalues --   -0.37597  -0.36596
 Alpha virt. eigenvalues --    0.04686   0.11061   0.16213   0.21200   0.24358
 Alpha virt. eigenvalues --    0.25676   0.27140   0.27963   0.28295   0.29035
 Alpha virt. eigenvalues --    0.29421   0.30856   0.32315   0.32714   0.33112

 Mulliken charges:
               1
     1  C   -0.302663
     2  C   -0.298704
     3  C   -0.473971
     4  H    0.166051
     5  H    0.145028
     6  H    0.148847
     7  H    0.147763
     8  H    0.153838
     9  H    0.153442
    10  H    0.154963
    11  C   -0.294608
    12  C   -0.310464
    13  C   -0.474254
    14  H    0.148790
    15  H    0.140525
    16  H    0.184269
    17  H    0.143493
    18  H    0.147391
    19  H    0.153771
    20  H    0.155392
    21  C   -0.170110
    22  C   -0.218643
    23  C   -0.170492
    24  C    0.159177
    25  C   -0.170505
    26  C   -0.218620
    27  H    0.226719
    28  H    0.224546
    29  H    0.276419
    30  H    0.276159
    31  H    0.224497
    32  N    0.488158
    33  O   -0.458595
    34  O   -0.457609
 Sum of Mulliken charges =  -0.00000

 Dipole moment (field-independent basis, Debye):
    X=             -5.6047    Y=              1.0726    Z=             -0.9229  Tot=              5.7806
 Quadrupole moment (field-independent basis, Debye-Ang):
   XX=            -71.7239   YY=            -96.8611   ZZ=            -91.2145
   XY=             -1.6398   XZ=              2.2441   YZ=              2.7081

 Normal termination of Gaussian 16 at Thu May  6 17:14:39 2021.
