 Gaussian 16, Revision A.03,
 Gaussian 16:  EM64L-G16RevA.03 25-Dec-2016

 -------------
 #p 6-31g* mp2
 -------------

 ------------------------------------------------------
 Input file generated by CHIRIPA (05-May-2021 14:53:17)
 ------------------------------------------------------
 Symbolic Z-matrix:
 Charge =  0 Multiplicity = 1

                         Standard orientation:
 ---------------------------------------------------------------------
 Center     Atomic      Atomic             Coordinates (Angstroms)
 Number     Number       Type             X           Y           Z
 ---------------------------------------------------------------------
      1          6           0        4.788501   -0.181734    0.169788
      2          6           0        5.768054    0.914778   -0.249882
      3          6           0        7.205345    0.619725    0.180154
      4          1           0        4.828784   -0.302548    1.260992
      5          1           0        5.112575   -1.138421   -0.262787
      6          1           0        5.441456    1.869367    0.182219
      7          1           0        5.725294    1.033128   -1.340194
      8          1           0        7.554908   -0.318685   -0.262332
      9          1           0        7.269457    0.522304    1.268731
     10          1           0        7.888756    1.416349   -0.130004
     11          6           0        3.347587    0.098888   -0.252997
     12          6           0        2.368034   -0.997624    0.166673
     13          6           0        0.930743   -0.702570   -0.263364
     14          1           0        3.023513    1.055575    0.179578
     15          1           0        3.307304    0.219702   -1.344201
     16          1           0        2.410794   -1.115974    1.256985
     17          1           0        2.694632   -1.952212   -0.265428
     18          1           0        0.866631   -0.605150   -1.351941
     19          1           0        0.581180    0.235840    0.179122
     20          1           0        0.247332   -1.499195    0.046795
     21          6           0       -3.762196    2.486903    0.039644
     22          6           0       -3.687872    1.788561   -1.170032
     23          6           0       -3.365136    0.428364   -1.185955
     24          6           0       -3.121697   -0.204934    0.031813
     25          6           0       -3.187975    0.463422    1.253368
     26          6           0       -3.512450    1.823275    1.245357
     27          1           0       -4.013580    3.543403    0.042717
     28          1           0       -3.881330    2.301364   -2.107930
     29          1           0       -3.300740   -0.136464   -2.108041
     30          1           0       -2.989875   -0.074947    2.172245
     31          1           0       -3.569451    2.363081    2.186317
     32          7           0       -2.779110   -1.644733    0.027625
     33          8           0       -2.569074   -2.179720    1.114046
     34          8           0       -2.727114   -2.210994   -1.061999
 ---------------------------------------------------------------------

 SCF Done:  E(RHF) =  -669.536038465     A.U. after   15 cycles
 E2 =    -0.2091435252D+01 EUMP2 =    -0.67162747371713D+03

 The electronic state is 1-A.
 Alpha  occ. eigenvalues --  -20.60799 -20.60791 -15.85834 -11.31183 -11.27752
 Alpha  occ. eigenvalues --  -11.27746 -11.27498 -11.26768 -11.26757 -11.21456
 Alpha  occ. eigenvalues --  -11.21197 -11.21165 -11.21090 -11.20945 -11.20572
 Alpha  occ. eigenvalues --   -1.59869  -1.39421  -1.19353  -1.08755  -1.08170
 Alpha  occ. eigenvalues --   -1.04756  -1.03242  -0.95697  -0.95594  -0.86722
 Alpha  occ. eigenvalues --   -0.86155  -0.82429  -0.79321  -0.77983  -0.77478
 Alpha  occ. eigenvalues --   -0.72060  -0.71197  -0.70468  -0.65011  -0.64803
 Alpha  occ. eigenvalues --   -0.64763  -0.62105  -0.60643  -0.59052  -0.57290
 Alpha  occ. eigenvalues --   -0.55264  -0.54995  -0.53093  -0.52852  -0.52366
 Alpha  occ. eigenvalues --   -0.52109  -0.49652  -0.48820  -0.48818  -0.47625
 Alpha  occ. eigenvalues --   -0.46357  -0.45525  -0.45452  -0.44825  -0.43494
 Alpha  occ. eigenvalues --   -0.37324  -0.36356
 Alpha virt. eigenvalues --    0.05038   0.11291   0.16530   0.21415   0.23114
 Alpha virt. eigenvalues --    0.24603   0.26887   0.27329   0.27741   0.28014
 Alpha virt. eigenvalues --    0.28440   0.30899   0.31626   0.32078   0.32281

 Mulliken charges:
               1
     1  C   -0.298113
     2  C   -0.299259
     3  C   -0.475550
     4  H    0.149424
     5  H    0.150405
     6  H    0.150471
     7  H    0.151467
     8  H    0.155628
     9  H    0.154998
    10  H    0.159297
    11  C   -0.297839
    12  C   -0.298871
    13  C   -0.484766
    14  H    0.146694
    15  H    0.148717
    16  H    0.152133
    17  H    0.154611
    18  H    0.154483
    19  H    0.149126
    20  H    0.174550
    21  C   -0.170688
    22  C   -0.218650
    23  C   -0.170472
    24  C    0.160641
    25  C   -0.171217
    26  C   -0.218918
    27  H    0.225519
    28  H    0.223397
    29  H    0.275689
    30  H    0.275611
    31  H    0.223306
    32  N    0.488490
    33  O   -0.460885
    34  O   -0.459429
 Sum of Mulliken charges =  -0.00000

 Dipole moment (field-independent basis, Debye):
    X=             -1.2918    Y=              4.9970    Z=              0.0052  Tot=              5.1613
 Quadrupole moment (field-independent basis, Debye-Ang):
   XX=            -89.4799   YY=            -97.1880   ZZ=            -89.0409
   XY=            -16.0250   XZ=             -0.0274   YZ=              0.7208

 Normal termination of Gaussian 16 at Thu May  6 13:56:12 2021.
