 Gaussian 16, Revision A.03,
 Gaussian 16:  EM64L-G16RevA.03 25-Dec-2016

 -------------
 #p 6-31g* mp2
 -------------

 ------------------------------------------------------
 Input file generated by CHIRIPA (05-May-2021 14:55:19)
 ------------------------------------------------------
 Symbolic Z-matrix:
 Charge =  0 Multiplicity = 1

                         Standard orientation:
 ---------------------------------------------------------------------
 Center     Atomic      Atomic             Coordinates (Angstroms)
 Number     Number       Type             X           Y           Z
 ---------------------------------------------------------------------
      1          6           0       -2.574994    2.568312    0.210567
      2          6           0       -2.303599    1.797632    1.345872
      3          6           0       -2.491151    0.412373    1.325121
      4          6           0       -2.953407   -0.171951    0.146913
      5          6           0       -3.232679    0.568796   -1.000515
      6          6           0       -3.037852    1.952520   -0.956945
      7          1           0       -2.426473    3.643818    0.235550
      8          1           0       -1.944036    2.273163    2.253963
      9          1           0       -2.288877   -0.208174    2.189658
     10          1           0       -3.590038    0.066301   -1.891139
     11          1           0       -3.249441    2.548534   -1.840145
     12          7           0       -3.155810   -1.637650    0.112866
     13          8           0       -3.563963   -2.128411   -0.937468
     14          8           0       -2.902469   -2.267951    1.137159
     15          6           0        4.405707    0.280276   -0.168706
     16          6           0        5.572962   -0.607913    0.263292
     17          6           0        6.902650    0.145343    0.311553
     18          1           0        4.623686    0.706017   -1.157733
     19          1           0        4.322865    1.128200    0.525238
     20          1           0        5.652713   -1.454654   -0.430456
     21          1           0        5.352095   -1.031741    1.251321
     22          1           0        6.847193    0.979945    1.017928
     23          1           0        7.149519    0.554629   -0.673404
     24          1           0        7.723376   -0.508472    0.622671
     25          6           0        3.069616   -0.458487   -0.221756
     26          6           0        1.902361    0.429702   -0.653754
     27          6           0        0.572673   -0.323555   -0.702015
     28          1           0        3.152458   -1.306411   -0.915700
     29          1           0        2.851637   -0.884229    0.767271
     30          1           0        2.123228    0.853530   -1.641783
     31          1           0        1.822611    1.276443    0.039994
     32          1           0        0.325805   -0.732840    0.282942
     33          1           0        0.628130   -1.158156   -1.408390
     34          1           0       -0.248053    0.330260   -1.013133
 ---------------------------------------------------------------------

 SCF Done:  E(RHF) =  -669.534621009     A.U. after   15 cycles
 E2 =    -0.2093458591D+01 EUMP2 =    -0.67162807960014D+03

 The electronic state is 1-A.
 Alpha  occ. eigenvalues --  -20.60751 -20.60746 -15.85801 -11.31153 -11.27769
 Alpha  occ. eigenvalues --  -11.27759 -11.27560 -11.26830 -11.26810 -11.21613
 Alpha  occ. eigenvalues --  -11.21605 -11.21415 -11.21330 -11.21100 -11.20868
 Alpha  occ. eigenvalues --   -1.59820  -1.39376  -1.19394  -1.08775  -1.08426
 Alpha  occ. eigenvalues --   -1.04804  -1.03513  -0.95961  -0.95599  -0.86980
 Alpha  occ. eigenvalues --   -0.86193  -0.82438  -0.79593  -0.78243  -0.77476
 Alpha  occ. eigenvalues --   -0.72027  -0.71138  -0.70502  -0.65065  -0.65040
 Alpha  occ. eigenvalues --   -0.64805  -0.62148  -0.60922  -0.59391  -0.57598
 Alpha  occ. eigenvalues --   -0.55317  -0.55270  -0.53636  -0.52892  -0.52406
 Alpha  occ. eigenvalues --   -0.52009  -0.49876  -0.48784  -0.48778  -0.47890
 Alpha  occ. eigenvalues --   -0.46626  -0.45782  -0.45716  -0.44773  -0.43746
 Alpha  occ. eigenvalues --   -0.37327  -0.36388
 Alpha virt. eigenvalues --    0.05045   0.11204   0.16543   0.21360   0.22861
 Alpha virt. eigenvalues --    0.24325   0.26606   0.27245   0.27464   0.27862
 Alpha virt. eigenvalues --    0.28378   0.30795   0.31368   0.31833   0.31919

 Mulliken charges:
               1
     1  C   -0.171074
     2  C   -0.217506
     3  C   -0.169897
     4  C    0.165596
     5  C   -0.174633
     6  C   -0.218384
     7  H    0.225969
     8  H    0.223471
     9  H    0.275210
    10  H    0.275913
    11  H    0.223884
    12  N    0.488487
    13  O   -0.460498
    14  O   -0.461141
    15  C   -0.297933
    16  C   -0.299688
    17  C   -0.475621
    18  H    0.149053
    19  H    0.147319
    20  H    0.153047
    21  H    0.152306
    22  H    0.154198
    23  H    0.154919
    24  H    0.160688
    25  C   -0.298465
    26  C   -0.298544
    27  C   -0.483379
    28  H    0.151666
    29  H    0.150270
    30  H    0.150200
    31  H    0.147010
    32  H    0.155144
    33  H    0.158322
    34  H    0.164092
 Sum of Mulliken charges =  -0.00000

 Dipole moment (field-independent basis, Debye):
    X=              0.6280    Y=              5.1386    Z=              0.1205  Tot=              5.1783
 Quadrupole moment (field-independent basis, Debye-Ang):
   XX=           -100.4324   YY=            -97.2541   ZZ=            -89.3155
   XY=            -16.2948   XZ=              1.1937   YZ=              0.6485

 Normal termination of Gaussian 16 at Wed May  5 17:21:35 2021.
