 Gaussian 16, Revision A.03,
 Gaussian 16:  EM64L-G16RevA.03 25-Dec-2016

 -------------
 #p 6-31g* mp2
 -------------

 ------------------------------------------------------
 Input file generated by CHIRIPA (05-May-2021 14:57:21)
 ------------------------------------------------------
 Symbolic Z-matrix:
 Charge =  0 Multiplicity = 1

                         Standard orientation:
 ---------------------------------------------------------------------
 Center     Atomic      Atomic             Coordinates (Angstroms)
 Number     Number       Type             X           Y           Z
 ---------------------------------------------------------------------
      1          6           0       -5.539855    1.533614   -0.080466
      2          6           0       -4.719956    1.559191    1.052509
      3          6           0       -3.650202    0.667476    1.175062
      4          6           0       -3.428141   -0.240623    0.140975
      5          6           0       -4.227212   -0.290778   -1.000191
      6          6           0       -5.291304    0.610339   -1.101400
      7          1           0       -6.368667    2.229971   -0.167377
      8          1           0       -4.910619    2.275128    1.846944
      9          1           0       -2.999745    0.665506    2.041272
     10          1           0       -4.012225   -1.015944   -1.775648
     11          1           0       -5.926401    0.588193   -1.982426
     12          7           0       -2.298637   -1.189618    0.259418
     13          8           0       -2.124044   -1.979959   -0.665523
     14          8           0       -1.609311   -1.125130    1.274952
     15          6           0        2.597466   -2.224857   -0.108966
     16          6           0        3.848767   -2.007838    0.477266
     17          6           0        4.421782   -0.732612    0.476190
     18          6           0        3.712600    0.307450   -0.122662
     19          6           0        2.464188    0.122998   -0.714890
     20          6           0        1.910381   -1.160623   -0.702128
     21          1           0        2.159794   -3.218744   -0.103591
     22          1           0        4.384643   -2.832462    0.938652
     23          1           0        5.388989   -0.536570    0.922840
     24          1           0        1.953996    0.964772   -1.167153
     25          1           0        0.938446   -1.326224   -1.158157
     26          7           0        4.309058    1.661918   -0.129986
     27          8           0        3.664008    2.561542   -0.664051
     28          8           0        5.410317    1.798279    0.398475
 ---------------------------------------------------------------------

 SCF Done:  E(RHF) =  -868.340379580     A.U. after   16 cycles
 E2 =    -0.2598496274D+01 EUMP2 =    -0.87093887585416D+03

 The electronic state is 1-A.
 Alpha  occ. eigenvalues --  -20.61719 -20.61679 -20.60054 -20.60048 -15.86705
 Alpha  occ. eigenvalues --  -15.85096 -11.31769 -11.30209 -11.28315 -11.28281
 Alpha  occ. eigenvalues --  -11.27980 -11.27248 -11.27222 -11.26764 -11.26693
 Alpha  occ. eigenvalues --  -11.26318 -11.25728 -11.25508  -1.60767  -1.59134
 Alpha  occ. eigenvalues --   -1.40321  -1.38695  -1.19913  -1.18326  -1.09366
 Alpha  occ. eigenvalues --   -1.07745  -1.05266  -1.03688  -0.96248  -0.94638
 Alpha  occ. eigenvalues --   -0.86678  -0.85079  -0.83087  -0.81486  -0.78172
 Alpha  occ. eigenvalues --   -0.76584  -0.72928  -0.72072  -0.71322  -0.71012
 Alpha  occ. eigenvalues --   -0.70452  -0.69405  -0.65565  -0.65263  -0.63967
 Alpha  occ. eigenvalues --   -0.63651  -0.62614  -0.61044  -0.55775  -0.54137
 Alpha  occ. eigenvalues --   -0.53614  -0.53350  -0.52028  -0.51765  -0.49709
 Alpha  occ. eigenvalues --   -0.49663  -0.48092  -0.48049  -0.45783  -0.44159
 Alpha  occ. eigenvalues --   -0.37875  -0.36854  -0.36248  -0.35279
 Alpha virt. eigenvalues --    0.04305   0.05930   0.10805   0.12385   0.15867
 Alpha virt. eigenvalues --    0.17520   0.20987   0.22609   0.26922   0.27821
 Alpha virt. eigenvalues --    0.28489   0.29424   0.30584   0.32014   0.32261

 Mulliken charges:
               1
     1  C   -0.169476
     2  C   -0.218334
     3  C   -0.170130
     4  C    0.157223
     5  C   -0.171089
     6  C   -0.218437
     7  H    0.228191
     8  H    0.226327
     9  H    0.277333
    10  H    0.274835
    11  H    0.225233
    12  N    0.487334
    13  O   -0.468613
    14  O   -0.456877
    15  C   -0.169033
    16  C   -0.219075
    17  C   -0.173114
    18  C    0.157967
    19  C   -0.173716
    20  C   -0.216423
    21  H    0.229887
    22  H    0.220095
    23  H    0.271691
    24  H    0.270382
    25  H    0.237019
    26  N    0.488250
    27  O   -0.464129
    28  O   -0.463322
 Sum of Mulliken charges =  -0.00000

 Dipole moment (field-independent basis, Debye):
    X=             -6.5910    Y=             -1.4999    Z=             -0.3225  Tot=              6.7672
 Quadrupole moment (field-independent basis, Debye-Ang):
   XX=            -90.8857   YY=           -109.1256   ZZ=           -100.5591
   XY=            -31.1375   XZ=              4.6053   YZ=              2.2937

 Normal termination of Gaussian 16 at Thu May  6 01:42:06 2021.
