 Gaussian 16, Revision A.03,
 Gaussian 16:  EM64L-G16RevA.03 25-Dec-2016

 -------------
 #p 6-31g* mp2
 -------------

 ------------------------------------------------------
 Input file generated by CHIRIPA (05-May-2021 14:55:19)
 ------------------------------------------------------
 Symbolic Z-matrix:
 Charge =  0 Multiplicity = 1

                         Standard orientation:
 ---------------------------------------------------------------------
 Center     Atomic      Atomic             Coordinates (Angstroms)
 Number     Number       Type             X           Y           Z
 ---------------------------------------------------------------------
      1          6           0        0.707506   -1.482784    0.487168
      2          6           0        0.737394   -0.385281   -0.379501
      3          6           0        1.943983    0.259722   -0.667011
      4          6           0        3.106973   -0.221424   -0.067644
      5          6           0        3.109686   -1.312509    0.800007
      6          6           0        1.891660   -1.942085    1.073122
      7          1           0       -0.234244   -1.977846    0.704922
      8          1           0       -0.180680   -0.026405   -0.836001
      9          1           0        1.995791    1.111476   -1.334281
     10          1           0        4.041253   -1.647320    1.239898
     11          1           0        1.871453   -2.794200    1.746574
     12          7           0        4.390389    0.453246   -0.364398
     13          8           0        5.401153    0.009993    0.176453
     14          8           0        4.361265    1.412531   -1.132227
     15          6           0       -4.163435   -0.031540   -0.382508
     16          6           0       -4.054869   -1.504541    0.013048
     17          6           0       -4.975673   -2.406812   -0.809036
     18          1           0       -5.204583    0.297967   -0.262586
     19          1           0       -3.923458    0.072979   -1.449692
     20          1           0       -4.293632   -1.606062    1.079492
     21          1           0       -3.013821   -1.830528   -0.107647
     22          1           0       -4.734365   -2.335116   -1.874508
     23          1           0       -6.021447   -2.109376   -0.680624
     24          1           0       -4.881995   -3.455396   -0.509778
     25          6           0       -3.248919    0.883041    0.430469
     26          6           0       -3.357485    2.356043    0.034913
     27          6           0       -2.436681    3.258314    0.856996
     28          1           0       -3.488896    0.778524    1.497654
     29          1           0       -2.207771    0.553535    0.310547
     30          1           0       -4.398533    2.682029    0.155608
     31          1           0       -3.118722    2.457564   -1.031531
     32          1           0       -1.390906    2.960878    0.728584
     33          1           0       -2.677990    3.186618    1.922468
     34          1           0       -2.530359    4.306899    0.557739
 ---------------------------------------------------------------------

 SCF Done:  E(RHF) =  -669.535418143     A.U. after   15 cycles
 E2 =    -0.2091979468D+01 EUMP2 =    -0.67162739761131D+03

 The electronic state is 1-A.
 Alpha  occ. eigenvalues --  -20.60762 -20.60757 -15.85816 -11.31188 -11.27766
 Alpha  occ. eigenvalues --  -11.27762 -11.27497 -11.26769 -11.26758 -11.22686
 Alpha  occ. eigenvalues --  -11.22402 -11.22349 -11.22307 -11.21916 -11.21672
 Alpha  occ. eigenvalues --   -1.59837  -1.39391  -1.19364  -1.09373  -1.08754
 Alpha  occ. eigenvalues --   -1.04771  -1.04383  -0.96807  -0.95588  -0.87818
 Alpha  occ. eigenvalues --   -0.86171  -0.82422  -0.80458  -0.79199  -0.77469
 Alpha  occ. eigenvalues --   -0.72034  -0.71161  -0.70468  -0.66091  -0.65014
 Alpha  occ. eigenvalues --   -0.64734  -0.62139  -0.61769  -0.60180  -0.58420
 Alpha  occ. eigenvalues --   -0.56100  -0.55260  -0.53474  -0.53242  -0.53087
 Alpha  occ. eigenvalues --   -0.52858  -0.50745  -0.48811  -0.48789  -0.48744
 Alpha  occ. eigenvalues --   -0.47509  -0.46712  -0.46640  -0.44795  -0.44654
 Alpha  occ. eigenvalues --   -0.37332  -0.36368
 Alpha virt. eigenvalues --    0.05067   0.11166   0.16531   0.18292   0.22541
 Alpha virt. eigenvalues --    0.23250   0.24882   0.25957   0.27104   0.27436
 Alpha virt. eigenvalues --    0.29442   0.30888   0.31057   0.31185   0.32289

 Mulliken charges:
               1
     1  C   -0.173954
     2  C   -0.221639
     3  C   -0.171648
     4  C    0.158506
     5  C   -0.170561
     6  C   -0.218939
     7  H    0.229681
     8  H    0.226710
     9  H    0.275725
    10  H    0.275682
    11  H    0.223772
    12  N    0.488041
    13  O   -0.460376
    14  O   -0.460407
    15  C   -0.299138
    16  C   -0.300666
    17  C   -0.475970
    18  H    0.154599
    19  H    0.149509
    20  H    0.154560
    21  H    0.141657
    22  H    0.156888
    23  H    0.158822
    24  H    0.161498
    25  C   -0.303356
    26  C   -0.300696
    27  C   -0.476139
    28  H    0.153188
    29  H    0.142550
    30  H    0.155482
    31  H    0.151097
    32  H    0.154390
    33  H    0.157226
    34  H    0.163904
 Sum of Mulliken charges =  -0.00000

 Dipole moment (field-independent basis, Debye):
    X=             -4.7190    Y=             -2.3177    Z=              1.0820  Tot=              5.3676
 Quadrupole moment (field-independent basis, Debye-Ang):
   XX=           -120.9745   YY=            -92.3020   ZZ=            -93.3765
   XY=             -8.8958   XZ=              4.3809   YZ=             -2.5829

 Normal termination of Gaussian 16 at Thu May  6 14:04:20 2021.
