 Gaussian 16, Revision A.03,
 Gaussian 16:  EM64L-G16RevA.03 25-Dec-2016

 -------------
 #p 6-31g* mp2
 -------------

 ------------------------------------------------------
 Input file generated by CHIRIPA (05-May-2021 14:57:25)
 ------------------------------------------------------
 Symbolic Z-matrix:
 Charge =  0 Multiplicity = 1

                         Standard orientation:
 ---------------------------------------------------------------------
 Center     Atomic      Atomic             Coordinates (Angstroms)
 Number     Number       Type             X           Y           Z
 ---------------------------------------------------------------------
      1          6           0        5.544905    1.717725   -0.227282
      2          6           0        4.592613    1.506231   -1.229745
      3          6           0        3.617183    0.515241   -1.084752
      4          6           0        3.623422   -0.249309    0.080887
      5          6           0        4.558805   -0.062688    1.097508
      6          6           0        5.524997    0.933972    0.931103
      7          1           0        6.299054    2.489752   -0.348234
      8          1           0        4.605662    2.113394   -2.130427
      9          1           0        2.868120    0.330248   -1.845081
     10          1           0        4.520387   -0.683845    1.984135
     11          1           0        6.263319    1.095993    1.711279
     12          7           0        2.595668   -1.301427    0.245719
     13          8           0        2.622617   -1.961568    1.282119
     14          8           0        1.782625   -1.446015   -0.664607
     15          6           0       -5.752436    1.551949    0.535413
     16          6           0       -4.466212    2.095553    0.453916
     17          6           0       -3.373052    1.287144    0.128298
     18          6           0       -3.603358   -0.066791   -0.110675
     19          6           0       -4.872864   -0.637974   -0.037229
     20          6           0       -5.951307    0.189323    0.290014
     21          1           0       -6.595913    2.187276    0.788993
     22          1           0       -4.308792    3.153446    0.643986
     23          1           0       -2.366719    1.681885    0.058366
     24          1           0       -4.998440   -1.696124   -0.232083
     25          1           0       -6.949097   -0.235583    0.352589
     26          7           0       -2.453869   -0.932615   -0.456253
     27          8           0       -2.683235   -2.122403   -0.662243
     28          8           0       -1.345300   -0.405065   -0.514582
 ---------------------------------------------------------------------

 SCF Done:  E(RHF) =  -868.334768470     A.U. after   16 cycles
 E2 =    -0.2600486945D+01 EUMP2 =    -0.87093525541460D+03

 The electronic state is 1-A.
 Alpha  occ. eigenvalues --  -20.59820 -20.59797 -20.59603 -20.59439 -15.84889
 Alpha  occ. eigenvalues --  -15.84574 -11.30611 -11.30374 -11.27240 -11.27211
 Alpha  occ. eigenvalues --  -11.27034 -11.27016 -11.26968 -11.26840 -11.26332
 Alpha  occ. eigenvalues --  -11.26307 -11.26127 -11.26106  -1.58879  -1.58589
 Alpha  occ. eigenvalues --   -1.38431  -1.38129  -1.18818  -1.18594  -1.08144
 Alpha  occ. eigenvalues --   -1.07912  -1.04277  -1.04060  -0.94919  -0.94667
 Alpha  occ. eigenvalues --   -0.85658  -0.85438  -0.81758  -0.81494  -0.76745
 Alpha  occ. eigenvalues --   -0.76470  -0.71150  -0.70723  -0.70237  -0.69940
 Alpha  occ. eigenvalues --   -0.69902  -0.69701  -0.64464  -0.64287  -0.64229
 Alpha  occ. eigenvalues --   -0.64072  -0.61624  -0.61399  -0.54766  -0.54560
 Alpha  occ. eigenvalues --   -0.52584  -0.52381  -0.52368  -0.52159  -0.47908
 Alpha  occ. eigenvalues --   -0.47839  -0.47546  -0.47470  -0.43776  -0.43388
 Alpha  occ. eigenvalues --   -0.36819  -0.36605  -0.35897  -0.35687
 Alpha virt. eigenvalues --    0.05803   0.06077   0.11752   0.11962   0.17232
 Alpha virt. eigenvalues --    0.17480   0.21834   0.22036   0.27714   0.27917
 Alpha virt. eigenvalues --    0.28753   0.28982   0.31354   0.31554   0.32994

 Mulliken charges:
               1
     1  C   -0.172474
     2  C   -0.219174
     3  C   -0.171283
     4  C    0.159413
     5  C   -0.172116
     6  C   -0.218827
     7  H    0.222177
     8  H    0.220630
     9  H    0.278864
    10  H    0.274287
    11  H    0.220392
    12  N    0.486503
    13  O   -0.467006
    14  O   -0.441371
    15  C   -0.171995
    16  C   -0.218415
    17  C   -0.171518
    18  C    0.159683
    19  C   -0.171270
    20  C   -0.218420
    21  H    0.223298
    22  H    0.220662
    23  H    0.273510
    24  H    0.275869
    25  H    0.221867
    26  N    0.487274
    27  O   -0.458513
    28  O   -0.452048
 Sum of Mulliken charges =  -0.00000

 Dipole moment (field-independent basis, Debye):
    X=             -0.5378    Y=              6.5449    Z=              0.4963  Tot=              6.5857
 Quadrupole moment (field-independent basis, Debye-Ang):
   XX=            -50.3786   YY=           -104.9351   ZZ=           -102.3542
   XY=              4.1517   XZ=             -3.7774   YZ=             -0.7100

 Normal termination of Gaussian 16 at Wed May  5 19:30:09 2021.
