 Gaussian 16, Revision A.03,
 Gaussian 16:  EM64L-G16RevA.03 25-Dec-2016

 -------------
 #p 6-31g* mp2
 -------------

 ------------------------------------------------------
 Input file generated by CHIRIPA (05-May-2021 14:57:25)
 ------------------------------------------------------
 Symbolic Z-matrix:
 Charge =  0 Multiplicity = 1

                         Standard orientation:
 ---------------------------------------------------------------------
 Center     Atomic      Atomic             Coordinates (Angstroms)
 Number     Number       Type             X           Y           Z
 ---------------------------------------------------------------------
      1          6           0        1.601171    0.010657    0.702260
      2          6           0        2.281705    1.227536    0.590007
      3          6           0        3.633818    1.254811    0.235614
      4          6           0        4.277279    0.040927   -0.000460
      5          6           0        3.626692   -1.187595    0.103271
      6          6           0        2.274649   -1.190906    0.458963
      7          1           0        0.550844   -0.001223    0.978066
      8          1           0        1.761220    2.162233    0.778370
      9          1           0        4.184881    2.182658    0.141556
     10          1           0        4.172378   -2.103037   -0.090667
     11          1           0        1.748676   -2.137441    0.545390
     12          7           0        5.708664    0.057117   -0.376327
     13          8           0        6.252893   -1.026088   -0.579101
     14          8           0        6.259250    1.152706   -0.461042
     15          6           0       -4.453636    2.449479   -0.145870
     16          6           0       -3.189671    1.960752    0.200623
     17          6           0       -2.949849    0.584330    0.250579
     18          6           0       -4.001513   -0.278764   -0.053329
     19          6           0       -5.271805    0.177401   -0.401988
     20          6           0       -5.488845    1.557817   -0.445541
     21          1           0       -4.631088    3.520268   -0.182190
     22          1           0       -2.383841    2.650890    0.433846
     23          1           0       -1.981010    0.178827    0.515789
     24          1           0       -6.055350   -0.535210   -0.629272
     25          1           0       -6.471472    1.934524   -0.714949
     26          7           0       -3.759683   -1.738033   -0.003833
     27          8           0       -4.702872   -2.477610   -0.275971
     28          8           0       -2.631528   -2.114601    0.306164
 ---------------------------------------------------------------------

 SCF Done:  E(RHF) =  -868.337459774     A.U. after   16 cycles
 E2 =    -0.2599411977D+01 EUMP2 =    -0.87093687175100D+03

 The electronic state is 1-A.
 Alpha  occ. eigenvalues --  -20.61638 -20.61596 -20.60760 -20.60749 -15.86674
 Alpha  occ. eigenvalues --  -15.85810 -11.32033 -11.31201 -11.28718 -11.28528
 Alpha  occ. eigenvalues --  -11.28282 -11.27802 -11.27702 -11.27650 -11.27581
 Alpha  occ. eigenvalues --  -11.27529 -11.26898 -11.26687  -1.60687  -1.59831
 Alpha  occ. eigenvalues --   -1.40247  -1.39384  -1.20190  -1.19373  -1.09572
 Alpha  occ. eigenvalues --   -1.08778  -1.05606  -1.04770  -0.96421  -0.95610
 Alpha  occ. eigenvalues --   -0.86999  -0.86172  -0.83265  -0.82434  -0.78331
 Alpha  occ. eigenvalues --   -0.77462  -0.72899  -0.72029  -0.72003  -0.71325
 Alpha  occ. eigenvalues --   -0.71154  -0.70515  -0.65848  -0.65611  -0.65030
 Alpha  occ. eigenvalues --   -0.64770  -0.62981  -0.62107  -0.56089  -0.55331
 Alpha  occ. eigenvalues --   -0.53908  -0.53686  -0.53106  -0.52860  -0.49665
 Alpha  occ. eigenvalues --   -0.49633  -0.48789  -0.48782  -0.45653  -0.44784
 Alpha  occ. eigenvalues --   -0.38135  -0.37377  -0.37197  -0.36363
 Alpha virt. eigenvalues --    0.04236   0.05052   0.10462   0.11286   0.15747
 Alpha virt. eigenvalues --    0.16483   0.18162   0.22016   0.24716   0.26460
 Alpha virt. eigenvalues --    0.27613   0.29371   0.30138   0.30919   0.32697

 Mulliken charges:
               1
     1  C   -0.174313
     2  C   -0.219905
     3  C   -0.170913
     4  C    0.158906
     5  C   -0.170886
     6  C   -0.220357
     7  H    0.226888
     8  H    0.216912
     9  H    0.274741
    10  H    0.277307
    11  H    0.234241
    12  N    0.487931
    13  O   -0.459145
    14  O   -0.461192
    15  C   -0.169841
    16  C   -0.219648
    17  C   -0.175556
    18  C    0.159311
    19  C   -0.168940
    20  C   -0.218253
    21  H    0.228380
    22  H    0.220336
    23  H    0.273817
    24  H    0.278115
    25  H    0.226688
    26  N    0.487622
    27  O   -0.455590
    28  O   -0.466654
 Sum of Mulliken charges =  -0.00000

 Dipole moment (field-independent basis, Debye):
    X=             -6.1269    Y=              4.9740    Z=              1.0721  Tot=              7.9642
 Quadrupole moment (field-independent basis, Debye-Ang):
   XX=           -135.6103   YY=           -102.8075   ZZ=           -106.1799
   XY=            -20.6394   XZ=              8.1405   YZ=              0.3110

 Normal termination of Gaussian 16 at Wed May  5 19:32:08 2021.
