 Gaussian 16, Revision A.03,
 Gaussian 16:  EM64L-G16RevA.03 25-Dec-2016

 -------------
 #p 6-31g* mp2
 -------------

 ------------------------------------------------------
 Input file generated by CHIRIPA (05-May-2021 14:53:12)
 ------------------------------------------------------
 Symbolic Z-matrix:
 Charge =  0 Multiplicity = 1

                         Standard orientation:
 ---------------------------------------------------------------------
 Center     Atomic      Atomic             Coordinates (Angstroms)
 Number     Number       Type             X           Y           Z
 ---------------------------------------------------------------------
      1          6           0       -2.415725   -0.266538    0.162109
      2          6           0       -3.599075   -1.134319    0.591788
      3          6           0       -3.186013   -2.562572    0.948534
      4          1           0       -1.921306   -0.733156   -0.700888
      5          1           0       -1.673880   -0.243123    0.972363
      6          1           0       -4.339095   -1.154965   -0.218496
      7          1           0       -4.090850   -0.665482    1.453742
      8          1           0       -2.465000   -2.560674    1.772389
      9          1           0       -2.714656   -3.052938    0.090650
     10          1           0       -4.047297   -3.165429    1.252856
     11          6           0       -2.812696    1.164079   -0.197718
     12          6           0       -1.629346    2.031860   -0.627397
     13          6           0       -2.042409    3.460112   -0.984144
     14          1           0       -3.554542    1.140663   -1.007973
     15          1           0       -3.307115    1.630697    0.665278
     16          1           0       -1.137572    1.563023   -1.489352
     17          1           0       -0.889326    2.052506    0.182886
     18          1           0       -2.513765    3.950479   -0.126260
     19          1           0       -2.763421    3.458215   -1.807999
     20          1           0       -1.181124    4.062970   -1.288465
     21          6           0        2.659711    0.946505    2.088110
     22          6           0        3.378862    1.136805    0.903572
     23          6           0        3.045616    0.423549   -0.251746
     24          6           0        1.982668   -0.476001   -0.186616
     25          6           0        1.247108   -0.687689    0.978472
     26          6           0        1.598001    0.036469    2.121720
     27          1           0        2.925439    1.504814    2.980900
     28          1           0        4.203875    1.842889    0.874544
     29          1           0        3.585548    0.551382   -1.182096
     30          1           0        0.429704   -1.398509    0.976571
     31          1           0        1.037737   -0.113362    3.040251
     32          7           0        1.620534   -1.236865   -1.403311
     33          8           0        0.679847   -2.023494   -1.319895
     34          8           0        2.284239   -1.032193   -2.417334
 ---------------------------------------------------------------------

 SCF Done:  E(RHF) =  -669.535426496     A.U. after   15 cycles
 E2 =    -0.2094026231D+01 EUMP2 =    -0.67162945272674D+03

 The electronic state is 1-A.
 Alpha  occ. eigenvalues --  -20.60874 -20.60868 -15.85902 -11.31191 -11.27790
 Alpha  occ. eigenvalues --  -11.27739 -11.27538 -11.26786 -11.26774 -11.21476
 Alpha  occ. eigenvalues --  -11.21440 -11.21247 -11.21125 -11.21007 -11.20915
 Alpha  occ. eigenvalues --   -1.59933  -1.39489  -1.19384  -1.08791  -1.08287
 Alpha  occ. eigenvalues --   -1.04784  -1.03400  -0.95856  -0.95631  -0.86871
 Alpha  occ. eigenvalues --   -0.86181  -0.82474  -0.79470  -0.78208  -0.77443
 Alpha  occ. eigenvalues --   -0.72127  -0.71240  -0.70504  -0.65085  -0.64913
 Alpha  occ. eigenvalues --   -0.64756  -0.62145  -0.60791  -0.59218  -0.57465
 Alpha  occ. eigenvalues --   -0.55307  -0.55131  -0.53140  -0.52904  -0.52534
 Alpha  occ. eigenvalues --   -0.52256  -0.49794  -0.48899  -0.48882  -0.47773
 Alpha  occ. eigenvalues --   -0.46491  -0.45715  -0.45596  -0.44714  -0.43643
 Alpha  occ. eigenvalues --   -0.37358  -0.36326
 Alpha virt. eigenvalues --    0.04963   0.11254   0.16370   0.20614   0.23119
 Alpha virt. eigenvalues --    0.23836   0.26149   0.26986   0.27723   0.28015
 Alpha virt. eigenvalues --    0.29323   0.30899   0.31473   0.31844   0.32075

 Mulliken charges:
               1
     1  C   -0.308734
     2  C   -0.298772
     3  C   -0.477946
     4  H    0.171462
     5  H    0.136181
     6  H    0.154263
     7  H    0.148122
     8  H    0.144805
     9  H    0.168049
    10  H    0.160137
    11  C   -0.297158
    12  C   -0.302505
    13  C   -0.475301
    14  H    0.151535
    15  H    0.146212
    16  H    0.155358
    17  H    0.150245
    18  H    0.153070
    19  H    0.156750
    20  H    0.159031
    21  C   -0.170092
    22  C   -0.218972
    23  C   -0.170392
    24  C    0.156990
    25  C   -0.167577
    26  C   -0.221711
    27  H    0.225746
    28  H    0.223450
    29  H    0.275502
    30  H    0.281045
    31  H    0.223383
    32  N    0.488062
    33  O   -0.460548
    34  O   -0.459691
 Sum of Mulliken charges =  -0.00000

 Dipole moment (field-independent basis, Debye):
    X=              1.3286    Y=              2.5801    Z=              4.0989  Tot=              5.0222
 Quadrupole moment (field-independent basis, Debye-Ang):
   XX=            -87.3462   YY=            -98.0237   ZZ=            -94.8312
   XY=              7.1825   XZ=              6.8128   YZ=             -3.0526

 Normal termination of Gaussian 16 at Thu May  6 02:33:54 2021.
