 Gaussian 16, Revision A.03,
 Gaussian 16:  EM64L-G16RevA.03 25-Dec-2016

 -------------
 #p 6-31g* mp2
 -------------

 ------------------------------------------------------
 Input file generated by CHIRIPA (05-May-2021 14:51:12)
 ------------------------------------------------------
 Symbolic Z-matrix:
 Charge =  0 Multiplicity = 1

                         Standard orientation:
 ---------------------------------------------------------------------
 Center     Atomic      Atomic             Coordinates (Angstroms)
 Number     Number       Type             X           Y           Z
 ---------------------------------------------------------------------
      1          6           0       -3.747670    0.592859    0.178970
      2          6           0       -3.014999    1.432023   -0.868400
      3          6           0       -2.184109    2.556378   -0.249338
      4          1           0       -4.399324    1.247535    0.773690
      5          1           0       -3.013212    0.166176    0.876041
      6          1           0       -3.750502    1.855870   -1.564106
      7          1           0       -2.365158    0.775243   -1.460821
      8          1           0       -1.428899    2.148093    0.430046
      9          1           0       -2.822114    3.234860    0.326174
     10          1           0       -1.668888    3.143619   -1.015860
     11          6           0       -4.582601   -0.535183   -0.424469
     12          6           0       -5.315271   -1.374346    0.622901
     13          6           0       -6.146161   -2.498702    0.003839
     14          1           0       -5.317059   -0.108499   -1.121540
     15          1           0       -3.930946   -1.189858   -1.019189
     16          1           0       -5.965112   -0.717566    1.215322
     17          1           0       -4.579769   -1.798193    1.318607
     18          1           0       -5.508157   -3.177183   -0.571673
     19          1           0       -6.901372   -2.090417   -0.675544
     20          1           0       -6.661382   -3.085942    0.770361
     21          6           0        3.580265    0.391905   -0.130892
     22          6           0        2.620852    0.827115    0.977306
     23          6           0        1.455985    1.668096    0.454210
     24          1           0        3.969874    1.283544   -0.640923
     25          1           0        3.022804   -0.180922   -0.884881
     26          1           0        3.180230    1.397772    1.729677
     27          1           0        2.233630   -0.065657    1.484882
     28          1           0        0.873012    1.103791   -0.280843
     29          1           0        1.824990    2.575535   -0.034656
     30          1           0        0.782591    1.968371    1.263059
     31          6           0        4.750004   -0.449582    0.376391
     32          6           0        5.709418   -0.884791   -0.731807
     33          6           0        6.874286   -1.725773   -0.208712
     34          1           0        5.307467    0.123246    1.130381
     35          1           0        4.360396   -1.341221    0.886421
     36          1           0        6.096641    0.007980   -1.239383
     37          1           0        5.150040   -1.455449   -1.484179
     38          1           0        6.505280   -2.633212    0.280155
     39          1           0        7.457259   -1.161467    0.526342
     40          1           0        7.547679   -2.026047   -1.017561
 ---------------------------------------------------------------------

 SCF Done:  E(RHF) =  -470.732616222     A.U. after   11 cycles
 E2 =    -0.1582664777D+01 EUMP2 =    -0.47231528099980D+03

 The electronic state is 1-A.
 Alpha  occ. eigenvalues --  -11.21615 -11.21612 -11.21584 -11.21526 -11.21423
 Alpha  occ. eigenvalues --  -11.21370 -11.21364 -11.21308 -11.21083 -11.21081
 Alpha  occ. eigenvalues --  -11.21060 -11.20862  -1.08450  -1.08384  -1.03564
 Alpha  occ. eigenvalues --   -1.03457  -0.96050  -0.95872  -0.87108  -0.86852
 Alpha  occ. eigenvalues --   -0.79680  -0.79473  -0.78263  -0.78197  -0.65094
 Alpha  occ. eigenvalues --   -0.65008  -0.61034  -0.60815  -0.59393  -0.59282
 Alpha  occ. eigenvalues --   -0.57656  -0.57484  -0.55431  -0.55100  -0.52840
 Alpha  occ. eigenvalues --   -0.52592  -0.52405  -0.52236  -0.50037  -0.49711
 Alpha  occ. eigenvalues --   -0.47938  -0.47836  -0.46682  -0.46523  -0.45804
 Alpha  occ. eigenvalues --   -0.45750  -0.45716  -0.45661  -0.43769  -0.43705
 Alpha virt. eigenvalues --    0.21988   0.23031   0.23650   0.24860   0.26474
 Alpha virt. eigenvalues --    0.26618   0.27105   0.27449   0.27677   0.29135
 Alpha virt. eigenvalues --    0.30086   0.30923   0.31629   0.32040   0.32216

 Mulliken charges:
               1
     1  C   -0.298265
     2  C   -0.299762
     3  C   -0.481210
     4  H    0.149589
     5  H    0.149183
     6  H    0.151498
     7  H    0.150949
     8  H    0.164136
     9  H    0.153429
    10  H    0.159730
    11  C   -0.298183
    12  C   -0.299605
    13  C   -0.475666
    14  H    0.149529
    15  H    0.149322
    16  H    0.151938
    17  H    0.151757
    18  H    0.155054
    19  H    0.155191
    20  H    0.160166
    21  C   -0.298637
    22  C   -0.299966
    23  C   -0.477251
    24  H    0.149766
    25  H    0.149398
    26  H    0.152012
    27  H    0.151545
    28  H    0.156548
    29  H    0.155961
    30  H    0.161712
    31  C   -0.298276
    32  C   -0.299635
    33  C   -0.475708
    34  H    0.149618
    35  H    0.149572
    36  H    0.151996
    37  H    0.151884
    38  H    0.155161
    39  H    0.155223
    40  H    0.160299
 Sum of Mulliken charges =  -0.00000

 Dipole moment (field-independent basis, Debye):
    X=              0.0468    Y=              0.0140    Z=              0.0117  Tot=              0.0503
 Quadrupole moment (field-independent basis, Debye-Ang):
   XX=            -85.2184   YY=            -84.7952   ZZ=            -84.9418
   XY=              0.0531   XZ=             -0.3012   YZ=             -0.0020

 Normal termination of Gaussian 16 at Wed May  5 23:08:02 2021.
