 Gaussian 16, Revision A.03,
 Gaussian 16:  EM64L-G16RevA.03 25-Dec-2016

 -------------
 #p 6-31g* mp2
 -------------

 ------------------------------------------------------
 Input file generated by CHIRIPA (05-May-2021 14:53:11)
 ------------------------------------------------------
 Symbolic Z-matrix:
 Charge =  0 Multiplicity = 1

                         Standard orientation:
 ---------------------------------------------------------------------
 Center     Atomic      Atomic             Coordinates (Angstroms)
 Number     Number       Type             X           Y           Z
 ---------------------------------------------------------------------
      1          6           0        2.296025    1.119742   -0.458755
      2          6           0        1.855770    2.355912    0.326130
      3          6           0        0.634151    3.041253   -0.286854
      4          1           0        2.518355    1.410853   -1.494500
      5          1           0        1.460526    0.407675   -0.506697
      6          1           0        2.692292    3.064840    0.373762
      7          1           0        1.634646    2.061858    1.360177
      8          1           0       -0.217225    2.353735   -0.319722
      9          1           0        0.846431    3.362415   -1.311741
     10          1           0        0.336553    3.922437    0.290043
     11          6           0        3.516134    0.423679    0.141709
     12          6           0        3.956389   -0.812491   -0.643176
     13          6           0        5.178008   -1.497831   -0.030192
     14          1           0        4.351633    1.135746    0.189651
     15          1           0        3.293804    0.132568    1.177454
     16          1           0        4.177513   -0.518437   -1.677223
     17          1           0        3.119867   -1.521418   -0.690808
     18          1           0        4.965728   -1.818994    0.994695
     19          1           0        6.029384   -0.810313    0.002676
     20          1           0        5.475606   -2.379016   -0.607089
     21          6           0       -0.032702   -1.585083    0.751590
     22          6           0       -0.541898   -1.771089   -0.537845
     23          6           0       -1.780653   -1.231419   -0.896721
     24          6           0       -2.486705   -0.507946    0.063158
     25          6           0       -2.006108   -0.305328    1.355932
     26          6           0       -0.765141   -0.854084    1.692703
     27          1           0        0.930451   -2.007840    1.021787
     28          1           0        0.024732   -2.338344   -1.270783
     29          1           0       -2.198439   -1.360159   -1.887830
     30          1           0       -2.594046    0.264856    2.064901
     31          1           0       -0.372166   -0.708029    2.694843
     32          7           0       -3.799290    0.068189   -0.305067
     33          8           0       -4.401826    0.701590    0.558873
     34          8           0       -4.200704   -0.124547   -1.450648
 ---------------------------------------------------------------------

 SCF Done:  E(RHF) =  -669.534733335     A.U. after   15 cycles
 E2 =    -0.2094747942D+01 EUMP2 =    -0.67162948127775D+03

 The electronic state is 1-A.
 Alpha  occ. eigenvalues --  -20.60855 -20.60850 -15.85914 -11.31342 -11.27927
 Alpha  occ. eigenvalues --  -11.27905 -11.27642 -11.26922 -11.26899 -11.22479
 Alpha  occ. eigenvalues --  -11.22055 -11.21902 -11.21851 -11.21640 -11.21183
 Alpha  occ. eigenvalues --   -1.59931  -1.39482  -1.19526  -1.09039  -1.08854
 Alpha  occ. eigenvalues --   -1.04922  -1.04047  -0.96471  -0.95727  -0.87483
 Alpha  occ. eigenvalues --   -0.86318  -0.82550  -0.80151  -0.78762  -0.77586
 Alpha  occ. eigenvalues --   -0.72128  -0.71256  -0.70636  -0.65676  -0.65164
 Alpha  occ. eigenvalues --   -0.64891  -0.62259  -0.61474  -0.59861  -0.58079
 Alpha  occ. eigenvalues --   -0.55792  -0.55398  -0.53328  -0.53163  -0.53002
 Alpha  occ. eigenvalues --   -0.52864  -0.50426  -0.48892  -0.48880  -0.48442
 Alpha  occ. eigenvalues --   -0.47226  -0.46293  -0.46180  -0.44875  -0.44282
 Alpha  occ. eigenvalues --   -0.37385  -0.36509
 Alpha virt. eigenvalues --    0.04924   0.11015   0.16321   0.19213   0.23099
 Alpha virt. eigenvalues --    0.23521   0.25549   0.25940   0.27321   0.28094
 Alpha virt. eigenvalues --    0.29271   0.30143   0.31077   0.31486   0.31957

 Mulliken charges:
               1
     1  C   -0.308309
     2  C   -0.297602
     3  C   -0.477384
     4  H    0.149716
     5  H    0.160104
     6  H    0.152026
     7  H    0.146705
     8  H    0.157648
     9  H    0.156079
    10  H    0.161523
    11  C   -0.298122
    12  C   -0.299667
    13  C   -0.475529
    14  H    0.153115
    15  H    0.142398
    16  H    0.156313
    17  H    0.139601
    18  H    0.152306
    19  H    0.159256
    20  H    0.161395
    21  C   -0.173643
    22  C   -0.219245
    23  C   -0.170120
    24  C    0.158288
    25  C   -0.170885
    26  C   -0.217174
    27  H    0.229632
    28  H    0.225420
    29  H    0.276659
    30  H    0.276698
    31  H    0.224399
    32  N    0.488032
    33  O   -0.459833
    34  O   -0.459799
 Sum of Mulliken charges =  -0.00000

 Dipole moment (field-independent basis, Debye):
    X=              4.5452    Y=             -2.0199    Z=              1.2568  Tot=              5.1301
 Quadrupole moment (field-independent basis, Debye-Ang):
   XX=           -118.6243   YY=            -92.6577   ZZ=            -90.2022
   XY=              3.4856   XZ=             -4.2485   YZ=              1.0330

 Normal termination of Gaussian 16 at Wed May  5 21:40:59 2021.
