 Gaussian 16, Revision A.03,
 Gaussian 16:  EM64L-G16RevA.03 25-Dec-2016

 -------------
 #p 6-31g* mp2
 -------------

 ------------------------------------------------------
 Input file generated by CHIRIPA (05-May-2021 14:53:18)
 ------------------------------------------------------
 Symbolic Z-matrix:
 Charge =  0 Multiplicity = 1

                         Standard orientation:
 ---------------------------------------------------------------------
 Center     Atomic      Atomic             Coordinates (Angstroms)
 Number     Number       Type             X           Y           Z
 ---------------------------------------------------------------------
      1          6           0       -3.466354   -0.429545   -0.234316
      2          6           0       -4.707082   -1.322932   -0.213316
      3          6           0       -4.365575   -2.810944   -0.296899
      4          1           0       -2.896787   -0.625443   -1.153099
      5          1           0       -2.811231   -0.703995    0.604067
      6          1           0       -5.360323   -1.045949   -1.050676
      7          1           0       -5.273862   -1.124747    0.705432
      8          1           0       -3.733057   -3.108942    0.545550
      9          1           0       -3.820009   -3.029697   -1.220536
     10          1           0       -5.267100   -3.431298   -0.280348
     11          6           0       -3.791489    1.060806   -0.151435
     12          6           0       -2.550761    1.954193   -0.172434
     13          6           0       -2.892268    3.442205   -0.088852
     14          1           0       -4.446612    1.335256   -0.989818
     15          1           0       -4.361057    1.256703    0.767348
     16          1           0       -1.983981    1.756008   -1.091182
     17          1           0       -1.897520    1.677210    0.664926
     18          1           0       -3.437834    3.660957    0.834786
     19          1           0       -3.524786    3.740203   -0.931300
     20          1           0       -1.990743    4.062559   -0.105402
     21          6           0        5.146439    0.369041   -0.652196
     22          6           0        4.727498   -0.965181   -0.681522
     23          6           0        3.449020   -1.317820   -0.239156
     24          6           0        2.611643   -0.306103    0.228303
     25          6           0        2.999982    1.032084    0.269992
     26          6           0        4.282866    1.361666   -0.177369
     27          1           0        6.141303    0.634023   -0.997775
     28          1           0        5.396030   -1.738170   -1.049758
     29          1           0        3.099046   -2.342905   -0.250857
     30          1           0        2.311120    1.780475    0.642548
     31          1           0        4.605534    2.398660   -0.153440
     32          7           0        1.255843   -0.667221    0.699260
     33          8           0        0.537055    0.242814    1.106467
     34          8           0        0.937627   -1.853461    0.652272
 ---------------------------------------------------------------------

 SCF Done:  E(RHF) =  -669.536198208     A.U. after   15 cycles
 E2 =    -0.2091284174D+01 EUMP2 =    -0.67162748238227D+03

 The electronic state is 1-A.
 Alpha  occ. eigenvalues --  -20.60962 -20.60945 -15.85983 -11.31299 -11.27860
 Alpha  occ. eigenvalues --  -11.27857 -11.27598 -11.26867 -11.26857 -11.20509
 Alpha  occ. eigenvalues --  -11.20269 -11.20201 -11.20168 -11.20017 -11.19981
 Alpha  occ. eigenvalues --   -1.60010  -1.39567  -1.19466  -1.08872  -1.07208
 Alpha  occ. eigenvalues --   -1.04861  -1.02408  -0.95715  -0.94886  -0.86262
 Alpha  occ. eigenvalues --   -0.85903  -0.82553  -0.78449  -0.77602  -0.76977
 Alpha  occ. eigenvalues --   -0.72208  -0.71320  -0.70575  -0.65123  -0.64865
 Alpha  occ. eigenvalues --   -0.63840  -0.62208  -0.59810  -0.58255  -0.56486
 Alpha  occ. eigenvalues --   -0.55367  -0.54181  -0.53194  -0.52953  -0.51624
 Alpha  occ. eigenvalues --   -0.51301  -0.48992  -0.48961  -0.48818  -0.46782
 Alpha  occ. eigenvalues --   -0.45473  -0.45019  -0.44550  -0.44306  -0.42641
 Alpha  occ. eigenvalues --   -0.37444  -0.36462
 Alpha virt. eigenvalues --    0.04918   0.11193   0.16405   0.21306   0.24042
 Alpha virt. eigenvalues --    0.25318   0.27241   0.27816   0.28074   0.28906
 Alpha virt. eigenvalues --    0.29099   0.30917   0.32267   0.32466   0.32799

 Mulliken charges:
               1
     1  C   -0.300423
     2  C   -0.299070
     3  C   -0.474961
     4  H    0.146406
     5  H    0.167379
     6  H    0.146913
     7  H    0.149269
     8  H    0.160350
     9  H    0.153641
    10  H    0.154964
    11  C   -0.297636
    12  C   -0.305973
    13  C   -0.474495
    14  H    0.143106
    15  H    0.146470
    16  H    0.145718
    17  H    0.177021
    18  H    0.153126
    19  H    0.150619
    20  H    0.154042
    21  C   -0.170595
    22  C   -0.218604
    23  C   -0.170650
    24  C    0.157794
    25  C   -0.170602
    26  C   -0.218568
    27  H    0.226006
    28  H    0.223824
    29  H    0.275888
    30  H    0.275796
    31  H    0.223870
    32  N    0.492279
    33  O   -0.463604
    34  O   -0.459301
 Sum of Mulliken charges =  -0.00000

 Dipole moment (field-independent basis, Debye):
    X=              5.1193    Y=              1.1397    Z=             -1.5044  Tot=              5.4561
 Quadrupole moment (field-independent basis, Debye-Ang):
   XX=            -71.6147   YY=            -92.9423   ZZ=            -95.1969
   XY=              1.2945   XZ=             -4.0933   YZ=              1.9478

 Normal termination of Gaussian 16 at Thu May  6 02:51:29 2021.
