 Gaussian 16, Revision A.03,
 Gaussian 16:  EM64L-G16RevA.03 25-Dec-2016

 -------------
 #p 6-31g* mp2
 -------------

 ------------------------------------------------------
 Input file generated by CHIRIPA (05-May-2021 14:53:12)
 ------------------------------------------------------
 Symbolic Z-matrix:
 Charge =  0 Multiplicity = 1

                         Standard orientation:
 ---------------------------------------------------------------------
 Center     Atomic      Atomic             Coordinates (Angstroms)
 Number     Number       Type             X           Y           Z
 ---------------------------------------------------------------------
      1          6           0        2.597104    0.579428   -0.796974
      2          6           0        2.688066    2.105614   -0.818575
      3          6           0        1.574766    2.752558   -1.643087
      4          1           0        2.635450    0.201548   -1.827839
      5          1           0        1.619771    0.283018   -0.391565
      6          1           0        3.665477    2.399042   -1.222533
      7          1           0        2.649691    2.479893    0.212473
      8          1           0        0.592433    2.488657   -1.238143
      9          1           0        1.613990    2.407346   -2.681303
     10          1           0        1.658929    3.843783   -1.644993
     11          6           0        3.703272   -0.081839    0.023297
     12          6           0        3.612310   -1.608026    0.044898
     13          6           0        4.725610   -2.254970    0.869410
     14          1           0        4.680605    0.214570   -0.382111
     15          1           0        3.664926    0.296041    1.054162
     16          1           0        3.650685   -1.982305   -0.986150
     17          1           0        2.634899   -1.901453    0.448856
     18          1           0        4.686385   -1.909757    1.907626
     19          1           0        5.707943   -1.991068    0.464466
     20          1           0        4.641447   -3.346195    0.871316
     21          6           0       -1.204646    1.079093    2.081424
     22          6           0       -0.580751    0.029051    1.399744
     23          6           0       -1.267288   -0.683460    0.412048
     24          6           0       -2.582552   -0.317485    0.130210
     25          6           0       -3.231521    0.723815    0.791895
     26          6           0       -2.525711    1.422518    1.775863
     27          1           0       -0.663841    1.627226    2.847242
     28          1           0        0.445118   -0.239859    1.634957
     29          1           0       -0.808437   -1.500676   -0.131121
     30          1           0       -4.255080    0.968672    0.535396
     31          1           0       -3.012767    2.237543    2.303647
     32          7           0       -3.319560   -1.064479   -0.913446
     33          8           0       -4.477531   -0.722461   -1.143149
     34          8           0       -2.725301   -1.977847   -1.481998
 ---------------------------------------------------------------------

 SCF Done:  E(RHF) =  -669.534907058     A.U. after   15 cycles
 E2 =    -0.2093217856D+01 EUMP2 =    -0.67162812491481D+03

 The electronic state is 1-A.
 Alpha  occ. eigenvalues --  -20.60800 -20.60795 -15.85855 -11.31255 -11.27833
 Alpha  occ. eigenvalues --  -11.27827 -11.27584 -11.26854 -11.26844 -11.22306
 Alpha  occ. eigenvalues --  -11.22087 -11.22046 -11.21880 -11.21626 -11.21364
 Alpha  occ. eigenvalues --   -1.59875  -1.39427  -1.19443  -1.09038  -1.08822
 Alpha  occ. eigenvalues --   -1.04856  -1.04058  -0.96490  -0.95653  -0.87501
 Alpha  occ. eigenvalues --   -0.86243  -0.82497  -0.80134  -0.78859  -0.77518
 Alpha  occ. eigenvalues --   -0.72073  -0.71198  -0.70538  -0.65821  -0.65088
 Alpha  occ. eigenvalues --   -0.64766  -0.62182  -0.61470  -0.59857  -0.58099
 Alpha  occ. eigenvalues --   -0.55794  -0.55332  -0.53213  -0.53160  -0.52967
 Alpha  occ. eigenvalues --   -0.52850  -0.50432  -0.48836  -0.48825  -0.48435
 Alpha  occ. eigenvalues --   -0.47193  -0.46356  -0.46314  -0.44824  -0.44325
 Alpha  occ. eigenvalues --   -0.37415  -0.36387
 Alpha virt. eigenvalues --    0.04982   0.11159   0.16322   0.18943   0.22996
 Alpha virt. eigenvalues --    0.23662   0.25131   0.26273   0.27181   0.28404
 Alpha virt. eigenvalues --    0.29773   0.30558   0.31345   0.31454   0.32246

 Mulliken charges:
               1
     1  C   -0.305841
     2  C   -0.298071
     3  C   -0.477890
     4  H    0.154512
     5  H    0.148527
     6  H    0.153920
     7  H    0.146511
     8  H    0.158058
     9  H    0.158233
    10  H    0.160151
    11  C   -0.299431
    12  C   -0.299788
    13  C   -0.475732
    14  H    0.153713
    15  H    0.144030
    16  H    0.157609
    17  H    0.142483
    18  H    0.153527
    19  H    0.157960
    20  H    0.163125
    21  C   -0.172834
    22  C   -0.220220
    23  C   -0.170320
    24  C    0.158207
    25  C   -0.170734
    26  C   -0.218601
    27  H    0.226237
    28  H    0.227699
    29  H    0.276956
    30  H    0.276065
    31  H    0.223946
    32  N    0.488133
    33  O   -0.460269
    34  O   -0.459868
 Sum of Mulliken charges =  -0.00000

 Dipole moment (field-independent basis, Debye):
    X=              2.6177    Y=              2.6263    Z=              3.5939  Tot=              5.1639
 Quadrupole moment (field-independent basis, Debye-Ang):
   XX=           -104.8891   YY=            -95.5791   ZZ=            -93.8636
   XY=            -10.1648   XZ=            -11.1669   YZ=              0.1498

 Normal termination of Gaussian 16 at Thu May  6 11:58:52 2021.
