 Gaussian 16, Revision A.03,
 Gaussian 16:  EM64L-G16RevA.03 25-Dec-2016

 -------------
 #p 6-31g* mp2
 -------------

 ------------------------------------------------------
 Input file generated by CHIRIPA (05-May-2021 14:57:25)
 ------------------------------------------------------
 Symbolic Z-matrix:
 Charge =  0 Multiplicity = 1

                         Standard orientation:
 ---------------------------------------------------------------------
 Center     Atomic      Atomic             Coordinates (Angstroms)
 Number     Number       Type             X           Y           Z
 ---------------------------------------------------------------------
      1          6           0        1.741462   -1.540056    0.672543
      2          6           0        2.606511   -1.126307    1.690886
      3          6           0        3.721460   -0.335439    1.397691
      4          6           0        3.942185    0.024926    0.069268
      5          6           0        3.098737   -0.371466   -0.967438
      6          6           0        1.989898   -1.161982   -0.651036
      7          1           0        0.877716   -2.154285    0.909318
      8          1           0        2.416051   -1.418416    2.719693
      9          1           0        4.407406   -0.001155    2.166554
     10          1           0        3.314713   -0.064373   -1.983541
     11          1           0        1.319794   -1.481840   -1.443939
     12          7           0        5.119297    0.861996   -0.253409
     13          8           0        5.291707    1.166049   -1.431740
     14          8           0        5.847219    1.198188    0.678117
     15          6           0       -2.929842   -2.218353   -0.633211
     16          6           0       -4.132811   -2.034114    0.056312
     17          6           0       -4.595911   -0.746910    0.344746
     18          6           0       -3.827297    0.338424   -0.073070
     19          6           0       -2.624711    0.187412   -0.761747
     20          6           0       -2.180952   -1.108959   -1.039324
     21          1           0       -2.577607   -3.221844   -0.853057
     22          1           0       -4.716488   -2.893836    0.372926
     23          1           0       -5.523647   -0.575556    0.877065
     24          1           0       -2.064780    1.063901   -1.064501
     25          1           0       -1.246338   -1.249030   -1.574973
     26          7           0       -4.307323    1.705980    0.226535
     27          8           0       -3.611678    2.645719   -0.152419
     28          8           0       -5.370124    1.812238    0.834649
 ---------------------------------------------------------------------

 SCF Done:  E(RHF) =  -868.336564283     A.U. after   16 cycles
 E2 =    -0.2599954742D+01 EUMP2 =    -0.87093651902462D+03

 The electronic state is 1-A.
 Alpha  occ. eigenvalues --  -20.61285 -20.61279 -20.61097 -20.61090 -15.86346
 Alpha  occ. eigenvalues --  -15.86158 -11.31882 -11.31649 -11.28503 -11.28463
 Alpha  occ. eigenvalues --  -11.28322 -11.28301 -11.28223 -11.28067 -11.27642
 Alpha  occ. eigenvalues --  -11.27508 -11.27425 -11.27243  -1.60358  -1.60169
 Alpha  occ. eigenvalues --   -1.39905  -1.39719  -1.20094  -1.19858  -1.09470
 Alpha  occ. eigenvalues --   -1.09235  -1.05526  -1.05292  -0.96262  -0.96039
 Alpha  occ. eigenvalues --   -0.86941  -0.86683  -0.83093  -0.82876  -0.78112
 Alpha  occ. eigenvalues --   -0.77887  -0.72560  -0.72374  -0.71685  -0.71494
 Alpha  occ. eigenvalues --   -0.71210  -0.70971  -0.65751  -0.65726  -0.65510
 Alpha  occ. eigenvalues --   -0.65207  -0.62917  -0.62578  -0.56052  -0.55804
 Alpha  occ. eigenvalues --   -0.53853  -0.53725  -0.53573  -0.53318  -0.49336
 Alpha  occ. eigenvalues --   -0.49303  -0.49143  -0.49118  -0.45272  -0.45096
 Alpha  occ. eigenvalues --   -0.38123  -0.37852  -0.37120  -0.36879
 Alpha virt. eigenvalues --    0.04440   0.04670   0.10379   0.10756   0.15866
 Alpha virt. eigenvalues --    0.16102   0.18377   0.21893   0.24556   0.27171
 Alpha virt. eigenvalues --    0.27802   0.28668   0.29281   0.31510   0.31614

 Mulliken charges:
               1
     1  C   -0.169226
     2  C   -0.218182
     3  C   -0.169112
     4  C    0.159152
     5  C   -0.169840
     6  C   -0.222384
     7  H    0.223987
     8  H    0.225686
     9  H    0.278009
    10  H    0.276712
    11  H    0.214875
    12  N    0.488098
    13  O   -0.459498
    14  O   -0.458441
    15  C   -0.174400
    16  C   -0.218468
    17  C   -0.169866
    18  C    0.158812
    19  C   -0.169849
    20  C   -0.222895
    21  H    0.224535
    22  H    0.225470
    23  H    0.278045
    24  H    0.279017
    25  H    0.218413
    26  N    0.487924
    27  O   -0.457860
    28  O   -0.458713
 Sum of Mulliken charges =  -0.00000

 Dipole moment (field-independent basis, Debye):
    X=             -2.4836    Y=             -7.6131    Z=              0.2384  Tot=              8.0115
 Quadrupole moment (field-independent basis, Debye-Ang):
   XX=           -146.3437   YY=           -108.9005   ZZ=            -99.4405
   XY=              9.1584   XZ=              7.5778   YZ=             -1.3164

 Normal termination of Gaussian 16 at Fri May  7 08:04:13 2021.
