 Gaussian 16, Revision A.03,
 Gaussian 16:  EM64L-G16RevA.03 25-Dec-2016

 -------------
 #p 6-31g* mp2
 -------------

 ------------------------------------------------------
 Input file generated by CHIRIPA (05-May-2021 14:55:20)
 ------------------------------------------------------
 Symbolic Z-matrix:
 Charge =  0 Multiplicity = 1

                         Standard orientation:
 ---------------------------------------------------------------------
 Center     Atomic      Atomic             Coordinates (Angstroms)
 Number     Number       Type             X           Y           Z
 ---------------------------------------------------------------------
      1          6           0        0.444655   -1.446731    1.942824
      2          6           0        0.267427   -1.801884    0.601564
      3          6           0        1.118214   -1.295364   -0.385424
      4          6           0        2.140470   -0.432198    0.006017
      5          6           0        2.342705   -0.059616    1.334014
      6          6           0        1.479903   -0.578262    2.304131
      7          1           0       -0.220924   -1.844918    2.702988
      8          1           0       -0.535711   -2.476154    0.318059
      9          1           0        1.003649   -1.553781   -1.431136
     10          1           0        3.152266    0.614587    1.585964
     11          1           0        1.619914   -0.300713    3.345000
     12          7           0        3.047520    0.110451   -1.029933
     13          8           0        3.940571    0.869163   -0.659186
     14          8           0        2.848241   -0.233208   -2.193042
     15          6           0       -2.966419    0.065390   -0.011842
     16          6           0       -2.998734   -1.052391   -1.054676
     17          6           0       -3.838870   -2.250449   -0.611255
     18          1           0       -2.569508   -0.333478    0.931721
     19          1           0       -3.994319    0.393796    0.195442
     20          1           0       -1.970980   -1.377641   -1.260952
     21          1           0       -3.395436   -0.650769   -1.995923
     22          1           0       -4.874005   -1.946968   -0.424180
     23          1           0       -3.441456   -2.677970    0.314967
     24          1           0       -3.848253   -3.037639   -1.371586
     25          6           0       -2.130484    1.269990   -0.440650
     26          6           0       -2.098169    2.387772    0.602186
     27          6           0       -1.258033    3.585829    0.158764
     28          1           0       -1.102584    0.941584   -0.647933
     29          1           0       -2.527395    1.668858   -1.384213
     30          1           0       -1.701467    1.986149    1.543431
     31          1           0       -3.125923    2.713022    0.808460
     32          1           0       -1.655447    4.013351   -0.767458
     33          1           0       -0.222898    3.282349   -0.028312
     34          1           0       -1.248650    4.373019    0.919095
 ---------------------------------------------------------------------

 SCF Done:  E(RHF) =  -669.534581513     A.U. after   15 cycles
 E2 =    -0.2095210253D+01 EUMP2 =    -0.67162979176591D+03

 The electronic state is 1-A.
 Alpha  occ. eigenvalues --  -20.60862 -20.60856 -15.85917 -11.31338 -11.27885
 Alpha  occ. eigenvalues --  -11.27882 -11.27629 -11.26916 -11.26884 -11.22259
 Alpha  occ. eigenvalues --  -11.21888 -11.21853 -11.21785 -11.21549 -11.21126
 Alpha  occ. eigenvalues --   -1.59937  -1.39489  -1.19508  -1.08931  -1.08788
 Alpha  occ. eigenvalues --   -1.04917  -1.03953  -0.96387  -0.95716  -0.87406
 Alpha  occ. eigenvalues --   -0.86301  -0.82554  -0.80039  -0.78602  -0.77589
 Alpha  occ. eigenvalues --   -0.72132  -0.71264  -0.70599  -0.65688  -0.65152
 Alpha  occ. eigenvalues --   -0.64788  -0.62342  -0.61233  -0.59781  -0.57986
 Alpha  occ. eigenvalues --   -0.55735  -0.55382  -0.53222  -0.53084  -0.52990
 Alpha  occ. eigenvalues --   -0.52773  -0.50340  -0.48896  -0.48885  -0.48336
 Alpha  occ. eigenvalues --   -0.47098  -0.46136  -0.46056  -0.44881  -0.44170
 Alpha  occ. eigenvalues --   -0.37455  -0.36436
 Alpha virt. eigenvalues --    0.04902   0.11037   0.16281   0.19540   0.23077
 Alpha virt. eigenvalues --    0.23764   0.25639   0.25960   0.27201   0.28522
 Alpha virt. eigenvalues --    0.28752   0.30519   0.30990   0.31247   0.32207

 Mulliken charges:
               1
     1  C   -0.172964
     2  C   -0.216193
     3  C   -0.174108
     4  C    0.158798
     5  C   -0.171392
     6  C   -0.218420
     7  H    0.226374
     8  H    0.229953
     9  H    0.276650
    10  H    0.276287
    11  H    0.224322
    12  N    0.488001
    13  O   -0.459926
    14  O   -0.459769
    15  C   -0.296670
    16  C   -0.303230
    17  C   -0.477045
    18  H    0.143465
    19  H    0.150915
    20  H    0.144362
    21  H    0.158009
    22  H    0.160373
    23  H    0.146163
    24  H    0.162424
    25  C   -0.301493
    26  C   -0.299442
    27  C   -0.476132
    28  H    0.155126
    29  H    0.151162
    30  H    0.149030
    31  H    0.150941
    32  H    0.156943
    33  H    0.157853
    34  H    0.159633
 Sum of Mulliken charges =  -0.00000

 Dipole moment (field-independent basis, Debye):
    X=             -3.1440    Y=             -1.8568    Z=              3.6124  Tot=              5.1363
 Quadrupole moment (field-independent basis, Debye-Ang):
   XX=           -107.2688   YY=            -93.1364   ZZ=            -92.3351
   XY=             -2.2287   XZ=             10.5764   YZ=              0.3266

 Normal termination of Gaussian 16 at Thu May  6 10:50:54 2021.
