 Gaussian 16, Revision A.03,
 Gaussian 16:  EM64L-G16RevA.03 25-Dec-2016

 -------------
 #p 6-31g* mp2
 -------------

 ------------------------------------------------------
 Input file generated by CHIRIPA (05-May-2021 14:55:20)
 ------------------------------------------------------
 Symbolic Z-matrix:
 Charge =  0 Multiplicity = 1

                         Standard orientation:
 ---------------------------------------------------------------------
 Center     Atomic      Atomic             Coordinates (Angstroms)
 Number     Number       Type             X           Y           Z
 ---------------------------------------------------------------------
      1          6           0        3.484460    2.564593   -0.194553
      2          6           0        2.786170    1.844396   -1.169350
      3          6           0        2.600051    0.465232   -1.035884
      4          6           0        3.128011   -0.164543    0.090141
      5          6           0        3.828334    0.525373    1.078500
      6          6           0        4.002400    1.903947    0.924288
      7          1           0        3.624360    3.635732   -0.306291
      8          1           0        2.382828    2.354832   -2.039302
      9          1           0        2.063516   -0.116704   -1.775411
     10          1           0        4.218785   -0.011174    1.934703
     11          1           0        4.545127    2.460705    1.682914
     12          7           0        2.937355   -1.624291    0.242417
     13          8           0        3.412299   -2.155720    1.243740
     14          8           0        2.316586   -2.209370   -0.642436
     15          6           0       -3.545316   -0.635148   -0.296389
     16          6           0       -2.125580   -0.102174   -0.492018
     17          6           0       -1.139292   -1.189968   -0.918320
     18          1           0       -3.529631   -1.433859    0.457773
     19          1           0       -3.888699   -1.096178   -1.232838
     20          1           0       -1.785496    0.358943    0.444107
     21          1           0       -2.144677    0.695492   -1.245664
     22          1           0       -1.451879   -1.644210   -1.864128
     23          1           0       -1.090658   -1.982671   -0.164757
     24          1           0       -0.130562   -0.787077   -1.052494
     25          6           0       -4.542833    0.440484    0.129876
     26          6           0       -5.962570   -0.092491    0.325507
     27          6           0       -6.948858    0.995304    0.751807
     28          1           0       -4.199450    0.901513    1.066325
     29          1           0       -4.558518    1.239194   -0.624286
     30          1           0       -5.943472   -0.890157    1.079151
     31          1           0       -6.302652   -0.553608   -0.610619
     32          1           0       -6.997491    1.788007   -0.001755
     33          1           0       -6.636270    1.449546    1.697616
     34          1           0       -7.957587    0.592413    0.885981
 ---------------------------------------------------------------------

 SCF Done:  E(RHF) =  -669.535035934     A.U. after   15 cycles
 E2 =    -0.2092205499D+01 EUMP2 =    -0.67162724143338D+03

 The electronic state is 1-A.
 Alpha  occ. eigenvalues --  -20.60838 -20.60813 -15.85860 -11.31246 -11.27806
 Alpha  occ. eigenvalues --  -11.27802 -11.27549 -11.26831 -11.26821 -11.21480
 Alpha  occ. eigenvalues --  -11.21341 -11.21250 -11.21137 -11.20997 -11.20497
 Alpha  occ. eigenvalues --   -1.59892  -1.39447  -1.19418  -1.08807  -1.08237
 Alpha  occ. eigenvalues --   -1.04824  -1.03303  -0.95755  -0.95617  -0.86744
 Alpha  occ. eigenvalues --   -0.86215  -0.82472  -0.79370  -0.78056  -0.77519
 Alpha  occ. eigenvalues --   -0.72086  -0.71213  -0.70532  -0.65070  -0.64871
 Alpha  occ. eigenvalues --   -0.64835  -0.62208  -0.60700  -0.59110  -0.57363
 Alpha  occ. eigenvalues --   -0.55321  -0.55007  -0.53172  -0.52977  -0.52346
 Alpha  occ. eigenvalues --   -0.52119  -0.49659  -0.48850  -0.48839  -0.47673
 Alpha  occ. eigenvalues --   -0.46416  -0.45587  -0.45528  -0.44859  -0.43479
 Alpha  occ. eigenvalues --   -0.37390  -0.36409
 Alpha virt. eigenvalues --    0.04985   0.11115   0.16492   0.21208   0.23052
 Alpha virt. eigenvalues --    0.24459   0.26818   0.26877   0.27697   0.27809
 Alpha virt. eigenvalues --    0.28852   0.30489   0.31638   0.31670   0.32043

 Mulliken charges:
               1
     1  C   -0.170784
     2  C   -0.219096
     3  C   -0.172047
     4  C    0.159978
     5  C   -0.171134
     6  C   -0.218146
     7  H    0.225878
     8  H    0.223999
     9  H    0.276791
    10  H    0.275735
    11  H    0.223697
    12  N    0.488182
    13  O   -0.460093
    14  O   -0.458559
    15  C   -0.298259
    16  C   -0.300410
    17  C   -0.475974
    18  H    0.151709
    19  H    0.149436
    20  H    0.149966
    21  H    0.145410
    22  H    0.153679
    23  H    0.163861
    24  H    0.158803
    25  C   -0.297687
    26  C   -0.299559
    27  C   -0.475524
    28  H    0.148677
    29  H    0.147604
    30  H    0.152802
    31  H    0.151957
    32  H    0.154194
    33  H    0.154718
    34  H    0.160195
 Sum of Mulliken charges =  -0.00000

 Dipole moment (field-independent basis, Debye):
    X=              0.7969    Y=              5.0515    Z=             -0.5030  Tot=              5.1386
 Quadrupole moment (field-independent basis, Debye-Ang):
   XX=            -90.8111   YY=            -97.2901   ZZ=            -90.5061
   XY=             17.0270   XZ=              1.3329   YZ=              0.2691

 Normal termination of Gaussian 16 at Thu May  6 09:15:23 2021.
