 Gaussian 16, Revision A.03,
 Gaussian 16:  EM64L-G16RevA.03 25-Dec-2016

 -------------
 #p 6-31g* mp2
 -------------

 ------------------------------------------------------
 Input file generated by CHIRIPA (05-May-2021 14:57:27)
 ------------------------------------------------------
 Symbolic Z-matrix:
 Charge =  0 Multiplicity = 1

                         Standard orientation:
 ---------------------------------------------------------------------
 Center     Atomic      Atomic             Coordinates (Angstroms)
 Number     Number       Type             X           Y           Z
 ---------------------------------------------------------------------
      1          6           0        3.943248    2.373644    0.175093
      2          6           0        4.135082    1.483646    1.236989
      3          6           0        3.640524    0.177857    1.167165
      4          6           0        2.955729   -0.206192    0.015274
      5          6           0        2.748455    0.657256   -1.059335
      6          6           0        3.251765    1.958341   -0.967665
      7          1           0        4.330832    3.386186    0.237819
      8          1           0        4.671712    1.803426    2.125703
      9          1           0        3.774789   -0.531692    1.974588
     10          1           0        2.209474    0.309510   -1.932256
     11          1           0        3.101291    2.647373   -1.793885
     12          7           0        2.427529   -1.586082   -0.070209
     13          8           0        1.827635   -1.899969   -1.095996
     14          8           0        2.623422   -2.327626    0.890195
     15          6           0       -4.217785    2.188759    0.288813
     16          6           0       -3.318222    2.020157   -0.768960
     17          6           0       -2.661488    0.800039   -0.954863
     18          6           0       -2.929188   -0.234885   -0.060123
     19          6           0       -3.819996   -0.097841    1.003347
     20          6           0       -4.465364    1.131087    1.170036
     21          1           0       -4.723537    3.139998    0.425763
     22          1           0       -3.124004    2.839814   -1.454879
     23          1           0       -1.960270    0.642214   -1.765297
     24          1           0       -3.993108   -0.933297    1.670777
     25          1           0       -5.163472    1.259164    1.992403
     26          7           0       -2.239948   -1.531232   -0.246760
     27          8           0       -2.493097   -2.427483    0.555293
     28          8           0       -1.459627   -1.626512   -1.191565
 ---------------------------------------------------------------------

 SCF Done:  E(RHF) =  -868.334735441     A.U. after   16 cycles
 E2 =    -0.2601020096D+01 EUMP2 =    -0.87093575553682D+03

 The electronic state is 1-A.
 Alpha  occ. eigenvalues --  -20.60080 -20.60011 -20.59934 -20.59807 -15.85106
 Alpha  occ. eigenvalues --  -15.84925 -11.30855 -11.30727 -11.27492 -11.27448
 Alpha  occ. eigenvalues --  -11.27347 -11.27341 -11.27279 -11.27181 -11.26588
 Alpha  occ. eigenvalues --  -11.26545 -11.26477 -11.26449  -1.59118  -1.58936
 Alpha  occ. eigenvalues --   -1.38664  -1.38475  -1.19063  -1.18944  -1.08387
 Alpha  occ. eigenvalues --   -1.08259  -1.04524  -1.04411  -0.95158  -0.95014
 Alpha  occ. eigenvalues --   -0.85903  -0.85786  -0.81997  -0.81837  -0.76983
 Alpha  occ. eigenvalues --   -0.76812  -0.71374  -0.71075  -0.70518  -0.70221
 Alpha  occ. eigenvalues --   -0.70163  -0.70045  -0.64706  -0.64580  -0.64531
 Alpha  occ. eigenvalues --   -0.64420  -0.61871  -0.61750  -0.55011  -0.54902
 Alpha  occ. eigenvalues --   -0.52833  -0.52719  -0.52622  -0.52508  -0.48124
 Alpha  occ. eigenvalues --   -0.48072  -0.47898  -0.47850  -0.44181  -0.43548
 Alpha  occ. eigenvalues --   -0.37066  -0.36948  -0.36147  -0.36038
 Alpha virt. eigenvalues --    0.05474   0.05817   0.11495   0.11617   0.16913
 Alpha virt. eigenvalues --    0.17218   0.21497   0.21761   0.27282   0.27636
 Alpha virt. eigenvalues --    0.28314   0.28824   0.30886   0.31376   0.32452

 Mulliken charges:
               1
     1  C   -0.172310
     2  C   -0.218634
     3  C   -0.171625
     4  C    0.159315
     5  C   -0.172575
     6  C   -0.219252
     7  H    0.222823
     8  H    0.221670
     9  H    0.275842
    10  H    0.276855
    11  H    0.219721
    12  N    0.486310
    13  O   -0.445251
    14  O   -0.462814
    15  C   -0.172059
    16  C   -0.218443
    17  C   -0.171997
    18  C    0.159339
    19  C   -0.171260
    20  C   -0.218447
    21  H    0.223523
    22  H    0.220029
    23  H    0.273398
    24  H    0.276467
    25  H    0.222394
    26  N    0.486218
    27  O   -0.459616
    28  O   -0.449622
 Sum of Mulliken charges =  -0.00000

 Dipole moment (field-independent basis, Debye):
    X=             -0.5969    Y=              9.0853    Z=              0.8600  Tot=              9.1454
 Quadrupole moment (field-independent basis, Debye-Ang):
   XX=            -80.2195   YY=           -109.4984   ZZ=            -97.9634
   XY=              1.6762   XZ=             -1.2913   YZ=             -2.8537

 Normal termination of Gaussian 16 at Fri May  7 09:44:49 2021.
