 Gaussian 16, Revision A.03,
 Gaussian 16:  EM64L-G16RevA.03 25-Dec-2016

 -------------
 #p 6-31g* mp2
 -------------

 ------------------------------------------------------
 Input file generated by CHIRIPA (05-May-2021 14:51:14)
 ------------------------------------------------------
 Symbolic Z-matrix:
 Charge =  0 Multiplicity = 1

                         Standard orientation:
 ---------------------------------------------------------------------
 Center     Atomic      Atomic             Coordinates (Angstroms)
 Number     Number       Type             X           Y           Z
 ---------------------------------------------------------------------
      1          6           0       -4.238787   -0.527157    0.260400
      2          6           0       -5.400982    0.339523   -0.225554
      3          6           0       -6.727956   -0.022594    0.442132
      4          1           0       -4.471713   -1.583335    0.067579
      5          1           0       -4.142771   -0.422122    1.349961
      6          1           0       -5.493899    0.233957   -1.314057
      7          1           0       -5.165179    1.393774   -0.031727
      8          1           0       -6.659154    0.100509    1.527818
      9          1           0       -6.989742   -1.065898    0.238202
     10          1           0       -7.545075    0.609196    0.080168
     11          6           0       -2.905452   -0.177150   -0.397963
     12          6           0       -1.743257   -1.043830    0.087991
     13          6           0       -0.416283   -0.681712   -0.579695
     14          1           0       -3.001468   -0.282185   -1.487525
     15          1           0       -2.672526    0.879028   -0.205142
     16          1           0       -1.979060   -2.098080   -0.105836
     17          1           0       -1.650340   -0.938264    1.176493
     18          1           0       -0.154497    0.361591   -0.375766
     19          1           0       -0.485085   -0.804816   -1.665381
     20          1           0        0.400836   -1.313503   -0.217731
     21          6           0        3.199833    0.914069   -0.290503
     22          6           0        3.035777    2.173764    0.560520
     23          6           0        2.289053    3.288940   -0.171995
     24          1           0        3.735850    1.170730   -1.214493
     25          1           0        2.207372    0.553689   -0.594706
     26          1           0        4.028188    2.530873    0.864180
     27          1           0        2.500257    1.914037    1.482679
     28          1           0        1.286929    2.956168   -0.461150
     29          1           0        2.823542    3.576509   -1.083164
     30          1           0        2.182997    4.179973    0.454641
     31          6           0        3.944405   -0.209763    0.428067
     32          6           0        4.108462   -1.469456   -0.422957
     33          6           0        4.855185   -2.584634    0.309558
     34          1           0        4.936868    0.150618    0.732269
     35          1           0        3.408389   -0.466423    1.352057
     36          1           0        4.643982   -1.209730   -1.345116
     37          1           0        3.116051   -1.826566   -0.726617
     38          1           0        4.320698   -2.872202    1.220727
     39          1           0        5.857310   -2.251861    0.598713
     40          1           0        4.961242   -3.475666   -0.317078
 ---------------------------------------------------------------------

 SCF Done:  E(RHF) =  -470.732658670     A.U. after   11 cycles
 E2 =    -0.1583557159D+01 EUMP2 =    -0.47231621582971D+03

 The electronic state is 1-A.
 Alpha  occ. eigenvalues --  -11.21690 -11.21636 -11.21549 -11.21533 -11.21465
 Alpha  occ. eigenvalues --  -11.21402 -11.21303 -11.21206 -11.21166 -11.21098
 Alpha  occ. eigenvalues --  -11.21053 -11.21037  -1.08497  -1.08344  -1.03606
 Alpha  occ. eigenvalues --   -1.03475  -0.96074  -0.95911  -0.87100  -0.86931
 Alpha  occ. eigenvalues --   -0.79701  -0.79527  -0.78322  -0.78123  -0.65166
 Alpha  occ. eigenvalues --   -0.64968  -0.61067  -0.60829  -0.59436  -0.59283
 Alpha  occ. eigenvalues --   -0.57661  -0.57531  -0.55394  -0.55181  -0.52802
 Alpha  occ. eigenvalues --   -0.52610  -0.52508  -0.52321  -0.50069  -0.49822
 Alpha  occ. eigenvalues --   -0.48051  -0.47806  -0.46785  -0.46508  -0.45932
 Alpha  occ. eigenvalues --   -0.45777  -0.45681  -0.45440  -0.43796  -0.43697
 Alpha virt. eigenvalues --    0.20746   0.22878   0.23194   0.24761   0.25775
 Alpha virt. eigenvalues --    0.26528   0.27155   0.27280   0.27880   0.29245
 Alpha virt. eigenvalues --    0.29792   0.31396   0.31739   0.31884   0.32378

 Mulliken charges:
               1
     1  C   -0.298331
     2  C   -0.299705
     3  C   -0.475750
     4  H    0.149798
     5  H    0.149626
     6  H    0.152036
     7  H    0.152090
     8  H    0.155239
     9  H    0.155226
    10  H    0.160416
    11  C   -0.298784
    12  C   -0.299967
    13  C   -0.482455
    14  H    0.149806
    15  H    0.149815
    16  H    0.152362
    17  H    0.152142
    18  H    0.157565
    19  H    0.156592
    20  H    0.163136
    21  C   -0.309166
    22  C   -0.299190
    23  C   -0.477113
    24  H    0.148507
    25  H    0.164486
    26  H    0.151646
    27  H    0.151080
    28  H    0.155148
    29  H    0.155527
    30  H    0.159987
    31  C   -0.297488
    32  C   -0.302660
    33  C   -0.475524
    34  H    0.149114
    35  H    0.148758
    36  H    0.152054
    37  H    0.153966
    38  H    0.154792
    39  H    0.155204
    40  H    0.160018
 Sum of Mulliken charges =  -0.00000

 Dipole moment (field-independent basis, Debye):
    X=             -0.0666    Y=             -0.0183    Z=             -0.0248  Tot=              0.0734
 Quadrupole moment (field-independent basis, Debye-Ang):
   XX=            -85.4628   YY=            -85.1261   ZZ=            -84.4135
   XY=              0.7614   XZ=             -0.0232   YZ=              0.7977

 Normal termination of Gaussian 16 at Thu May  6 05:36:50 2021.
