 Gaussian 16, Revision A.03,
 Gaussian 16:  EM64L-G16RevA.03 25-Dec-2016

 -------------
 #p 6-31g* mp2
 -------------

 ------------------------------------------------------
 Input file generated by CHIRIPA (05-May-2021 14:55:25)
 ------------------------------------------------------
 Symbolic Z-matrix:
 Charge =  0 Multiplicity = 1

                         Standard orientation:
 ---------------------------------------------------------------------
 Center     Atomic      Atomic             Coordinates (Angstroms)
 Number     Number       Type             X           Y           Z
 ---------------------------------------------------------------------
      1          6           0        1.170743   -1.787065    1.345105
      2          6           0        0.624726   -0.843477    0.468733
      3          6           0        1.454792    0.023001   -0.248730
      4          6           0        2.832612   -0.082131   -0.064745
      5          6           0        3.406825   -1.011694    0.800981
      6          6           0        2.557605   -1.868019    1.508145
      7          1           0        0.518488   -2.456223    1.898447
      8          1           0       -0.451965   -0.778344    0.340122
      9          1           0        1.058733    0.762810   -0.933739
     10          1           0        4.483967   -1.052770    0.908191
     11          1           0        2.984442   -2.599846    2.188060
     12          7           0        3.721505    0.829797   -0.818839
     13          8           0        4.932120    0.717038   -0.639022
     14          8           0        3.190773    1.640056   -1.575437
     15          6           0       -3.307288    0.767025    0.511874
     16          6           0       -3.157742    2.231154    0.097208
     17          6           0       -2.896195    3.158118    1.284695
     18          1           0       -4.129540    0.679561    1.235196
     19          1           0       -2.395606    0.446314    1.034726
     20          1           0       -4.068880    2.548606   -0.425925
     21          1           0       -2.335874    2.315114   -0.625357
     22          1           0       -1.976612    2.869114    1.803776
     23          1           0       -3.719465    3.103933    2.004342
     24          1           0       -2.792559    4.199886    0.965573
     25          6           0       -3.569158   -0.172010   -0.664293
     26          6           0       -3.718704   -1.636140   -0.249627
     27          6           0       -3.980251   -2.563104   -1.437114
     28          1           0       -4.480840    0.148701   -1.187144
     29          1           0       -2.746906   -0.084546   -1.387615
     30          1           0       -4.540572   -1.720099    0.472938
     31          1           0       -2.807566   -1.953592    0.273506
     32          1           0       -3.156981   -2.508918   -2.156761
     33          1           0       -4.899834   -2.274100   -1.956196
     34          1           0       -4.083887   -3.604872   -1.117992
 ---------------------------------------------------------------------

 SCF Done:  E(RHF) =  -669.535276789     A.U. after   15 cycles
 E2 =    -0.2092122702D+01 EUMP2 =    -0.67162739949009D+03

 The electronic state is 1-A.
 Alpha  occ. eigenvalues --  -20.60766 -20.60761 -15.85820 -11.31189 -11.27762
 Alpha  occ. eigenvalues --  -11.27759 -11.27499 -11.26772 -11.26734 -11.22609
 Alpha  occ. eigenvalues --  -11.22337 -11.22288 -11.22240 -11.21834 -11.21550
 Alpha  occ. eigenvalues --   -1.59842  -1.39395  -1.19362  -1.09319  -1.08754
 Alpha  occ. eigenvalues --   -1.04766  -1.04296  -0.96728  -0.95590  -0.87736
 Alpha  occ. eigenvalues --   -0.86168  -0.82425  -0.80372  -0.79127  -0.77473
 Alpha  occ. eigenvalues --   -0.72038  -0.71165  -0.70471  -0.66145  -0.65013
 Alpha  occ. eigenvalues --   -0.64660  -0.62093  -0.61700  -0.60094  -0.58335
 Alpha  occ. eigenvalues --   -0.56033  -0.55255  -0.53388  -0.53152  -0.53087
 Alpha  occ. eigenvalues --   -0.52838  -0.50678  -0.48802  -0.48793  -0.48670
 Alpha  occ. eigenvalues --   -0.47436  -0.46618  -0.46587  -0.44800  -0.44578
 Alpha  occ. eigenvalues --   -0.37341  -0.36366
 Alpha virt. eigenvalues --    0.05063   0.11224   0.16510   0.18266   0.23070
 Alpha virt. eigenvalues --    0.23382   0.25203   0.25595   0.27023   0.28508
 Alpha virt. eigenvalues --    0.29536   0.30610   0.31179   0.31372   0.32195

 Mulliken charges:
               1
     1  C   -0.173002
     2  C   -0.228789
     3  C   -0.173690
     4  C    0.159064
     5  C   -0.171038
     6  C   -0.218443
     7  H    0.225738
     8  H    0.238542
     9  H    0.275480
    10  H    0.275663
    11  H    0.223466
    12  N    0.488044
    13  O   -0.460444
    14  O   -0.460463
    15  C   -0.302818
    16  C   -0.299746
    17  C   -0.476534
    18  H    0.154031
    19  H    0.141974
    20  H    0.155529
    21  H    0.151130
    22  H    0.155927
    23  H    0.155982
    24  H    0.164584
    25  C   -0.301647
    26  C   -0.300337
    27  C   -0.476089
    28  H    0.156093
    29  H    0.147170
    30  H    0.156091
    31  H    0.140981
    32  H    0.156791
    33  H    0.158930
    34  H    0.161830
 Sum of Mulliken charges =  -0.00000

 Dipole moment (field-independent basis, Debye):
    X=             -3.3377    Y=             -3.1472    Z=              2.6233  Tot=              5.2846
 Quadrupole moment (field-independent basis, Debye-Ang):
   XX=           -107.5102   YY=            -94.1475   ZZ=            -95.3110
   XY=            -11.3101   XZ=              9.7177   YZ=             -1.5966

 Normal termination of Gaussian 16 at Thu May  6 19:23:44 2021.
