 Gaussian 16, Revision A.03,
 Gaussian 16:  EM64L-G16RevA.03 25-Dec-2016

 -------------
 #p 6-31g* mp2
 -------------

 ------------------------------------------------------
 Input file generated by CHIRIPA (05-May-2021 14:57:24)
 ------------------------------------------------------
 Symbolic Z-matrix:
 Charge =  0 Multiplicity = 1

                         Standard orientation:
 ---------------------------------------------------------------------
 Center     Atomic      Atomic             Coordinates (Angstroms)
 Number     Number       Type             X           Y           Z
 ---------------------------------------------------------------------
      1          6           0       -1.837970    0.174070   -0.049331
      2          6           0       -2.429075   -1.028503   -0.450497
      3          6           0       -3.818427   -1.181352   -0.420753
      4          6           0       -4.589916   -0.106263    0.017742
      5          6           0       -4.030684    1.104383    0.423803
      6          6           0       -2.639249    1.234805    0.385772
      7          1           0       -0.757879    0.284096   -0.075656
      8          1           0       -1.809274   -1.853972   -0.788865
      9          1           0       -4.302247   -2.101321   -0.725702
     10          1           0       -4.674695    1.909463    0.756241
     11          1           0       -2.182937    2.169895    0.697912
     12          7           0       -6.061864   -0.256206    0.053617
     13          8           0       -6.719458    0.705968    0.444038
     14          8           0       -6.530110   -1.333066   -0.309364
     15          6           0        5.701235   -2.022535    0.313227
     16          6           0        6.344849   -0.784948    0.209982
     17          6           0        5.604765    0.387374    0.029744
     18          6           0        4.216430    0.284966   -0.043254
     19          6           0        3.546082   -0.933249    0.056128
     20          6           0        4.306365   -2.092613    0.236106
     21          1           0        6.283996   -2.928190    0.453140
     22          1           0        7.427992   -0.727511    0.269519
     23          1           0        6.077351    1.358553   -0.053261
     24          1           0        2.464977   -0.958745   -0.006965
     25          1           0        3.803835   -3.052368    0.315967
     26          7           0        3.422244    1.519191   -0.233927
     27          8           0        2.200278    1.402156   -0.295079
     28          8           0        4.036765    2.580242   -0.318615
 ---------------------------------------------------------------------

 SCF Done:  E(RHF) =  -868.339415507     A.U. after   16 cycles
 E2 =    -0.2598473306D+01 EUMP2 =    -0.87093788881257D+03

 The electronic state is 1-A.
 Alpha  occ. eigenvalues --  -20.61835 -20.61775 -20.60372 -20.60363 -15.86854
 Alpha  occ. eigenvalues --  -15.85422 -11.32026 -11.30672 -11.28633 -11.28525
 Alpha  occ. eigenvalues --  -11.28240 -11.27551 -11.27496 -11.27284 -11.27210
 Alpha  occ. eigenvalues --  -11.26815 -11.26257 -11.26104  -1.60863  -1.59449
 Alpha  occ. eigenvalues --   -1.40430  -1.39006  -1.20171  -1.18828  -1.09591
 Alpha  occ. eigenvalues --   -1.08215  -1.05551  -1.04225  -0.96466  -0.95071
 Alpha  occ. eigenvalues --   -0.86956  -0.85612  -0.83315  -0.81919  -0.78392
 Alpha  occ. eigenvalues --   -0.77009  -0.73090  -0.72168  -0.71641  -0.71277
 Alpha  occ. eigenvalues --   -0.70773  -0.69844  -0.65829  -0.65548  -0.64469
 Alpha  occ. eigenvalues --   -0.64218  -0.62914  -0.61583  -0.56037  -0.54603
 Alpha  occ. eigenvalues --   -0.53879  -0.53642  -0.52553  -0.52306  -0.49847
 Alpha  occ. eigenvalues --   -0.49791  -0.48403  -0.48388  -0.45875  -0.44438
 Alpha  occ. eigenvalues --   -0.38121  -0.37142  -0.36763  -0.35846
 Alpha virt. eigenvalues --    0.04151   0.05538   0.10517   0.11819   0.15693
 Alpha virt. eigenvalues --    0.17070   0.19922   0.21923   0.25615   0.26969
 Alpha virt. eigenvalues --    0.27852   0.28895   0.30533   0.31089   0.32926

 Mulliken charges:
               1
     1  C   -0.178102
     2  C   -0.219967
     3  C   -0.171369
     4  C    0.157447
     5  C   -0.171444
     6  C   -0.220526
     7  H    0.243814
     8  H    0.216986
     9  H    0.272801
    10  H    0.274602
    11  H    0.229432
    12  N    0.488233
    13  O   -0.461193
    14  O   -0.462664
    15  C   -0.169870
    16  C   -0.218129
    17  C   -0.170223
    18  C    0.158901
    19  C   -0.169223
    20  C   -0.218016
    21  H    0.228496
    22  H    0.226350
    23  H    0.277425
    24  H    0.267691
    25  H    0.224513
    26  N    0.493862
    27  O   -0.475401
    28  O   -0.454427
 Sum of Mulliken charges =  -0.00000

 Dipole moment (field-independent basis, Debye):
    X=              8.5077    Y=             -3.7098    Z=              0.5822  Tot=              9.2996
 Quadrupole moment (field-independent basis, Debye-Ang):
   XX=           -125.2129   YY=           -101.8268   ZZ=           -106.0000
   XY=            -19.0342   XZ=              3.2034   YZ=              2.1855

 Normal termination of Gaussian 16 at Fri May  7 03:25:50 2021.
