 Gaussian 16, Revision A.03,
 Gaussian 16:  EM64L-G16RevA.03 25-Dec-2016

 -------------
 #p 6-31g* mp2
 -------------

 ------------------------------------------------------
 Input file generated by CHIRIPA (05-May-2021 14:55:25)
 ------------------------------------------------------
 Symbolic Z-matrix:
 Charge =  0 Multiplicity = 1

                         Standard orientation:
 ---------------------------------------------------------------------
 Center     Atomic      Atomic             Coordinates (Angstroms)
 Number     Number       Type             X           Y           Z
 ---------------------------------------------------------------------
      1          6           0       -3.422267    2.112879    0.703233
      2          6           0       -2.791185    1.279252    1.632384
      3          6           0       -2.253418    0.051614    1.234564
      4          6           0       -2.365019   -0.312614   -0.106396
      5          6           0       -2.987859    0.496020   -1.055855
      6          6           0       -3.518420    1.719297   -0.635561
      7          1           0       -3.837218    3.064844    1.020998
      8          1           0       -2.715050    1.582332    2.672764
      9          1           0       -1.759631   -0.613103    1.932950
     10          1           0       -3.048355    0.166697   -2.086051
     11          1           0       -4.007978    2.364675   -1.359346
     12          7           0       -1.799524   -1.609951   -0.539446
     13          8           0       -1.910846   -1.907874   -1.726664
     14          8           0       -1.255674   -2.304314    0.316546
     15          6           0        2.904219    0.850662    0.028911
     16          6           0        3.978424    1.839633   -0.424970
     17          6           0        3.478531    3.284344   -0.451647
     18          1           0        2.037119    0.927818   -0.641260
     19          1           0        2.552082    1.136333    1.029804
     20          1           0        4.329414    1.551374   -1.424134
     21          1           0        4.843143    1.759977    0.246245
     22          1           0        3.146484    3.595545    0.544094
     23          1           0        2.629836    3.385757   -1.135777
     24          1           0        4.262449    3.974432   -0.778924
     25          6           0        3.388824   -0.597741    0.060751
     26          6           0        2.314619   -1.586712    0.514631
     27          6           0        2.814512   -3.031423    0.541309
     28          1           0        3.740960   -0.883412   -0.940142
     29          1           0        4.255923   -0.674897    0.730922
     30          1           0        1.449899   -1.507057   -0.156583
     31          1           0        1.963629   -1.298455    1.513795
     32          1           0        3.663207   -3.132837    1.225438
     33          1           0        3.146558   -3.342625   -0.454432
     34          1           0        2.030593   -3.721511    0.868586
 ---------------------------------------------------------------------

 SCF Done:  E(RHF) =  -669.535994165     A.U. after   15 cycles
 E2 =    -0.2091607355D+01 EUMP2 =    -0.67162760151926D+03

 The electronic state is 1-A.
 Alpha  occ. eigenvalues --  -20.60928 -20.60902 -15.85938 -11.31256 -11.27822
 Alpha  occ. eigenvalues --  -11.27814 -11.27557 -11.26826 -11.26815 -11.21371
 Alpha  occ. eigenvalues --  -11.21046 -11.20984 -11.20761 -11.20624 -11.20028
 Alpha  occ. eigenvalues --   -1.59978  -1.39532  -1.19424  -1.08831  -1.07923
 Alpha  occ. eigenvalues --   -1.04819  -1.02948  -0.95675  -0.95423  -0.86452
 Alpha  occ. eigenvalues --   -0.86220  -0.82509  -0.79063  -0.77713  -0.77539
 Alpha  occ. eigenvalues --   -0.72163  -0.71296  -0.70534  -0.65080  -0.64825
 Alpha  occ. eigenvalues --   -0.64561  -0.62168  -0.60351  -0.58827  -0.56991
 Alpha  occ. eigenvalues --   -0.55326  -0.54740  -0.53149  -0.52913  -0.52097
 Alpha  occ. eigenvalues --   -0.51853  -0.49405  -0.48932  -0.48921  -0.47379
 Alpha  occ. eigenvalues --   -0.46139  -0.45435  -0.45182  -0.44616  -0.43209
 Alpha  occ. eigenvalues --   -0.37402  -0.36418
 Alpha virt. eigenvalues --    0.04947   0.11231   0.16430   0.21322   0.23271
 Alpha virt. eigenvalues --    0.24853   0.26914   0.27264   0.27652   0.28429
 Alpha virt. eigenvalues --    0.28599   0.30845   0.31747   0.32025   0.32598

 Mulliken charges:
               1
     1  C   -0.170411
     2  C   -0.218478
     3  C   -0.170003
     4  C    0.158101
     5  C   -0.171071
     6  C   -0.218585
     7  H    0.225935
     8  H    0.223702
     9  H    0.276050
    10  H    0.275571
    11  H    0.223666
    12  N    0.487012
    13  O   -0.459742
    14  O   -0.457716
    15  C   -0.296847
    16  C   -0.299006
    17  C   -0.475099
    18  H    0.147981
    19  H    0.145433
    20  H    0.152660
    21  H    0.151539
    22  H    0.152778
    23  H    0.153779
    24  H    0.159438
    25  C   -0.298739
    26  C   -0.297291
    27  C   -0.476360
    28  H    0.149583
    29  H    0.146619
    30  H    0.161741
    31  H    0.144871
    32  H    0.148086
    33  H    0.154044
    34  H    0.170758
 Sum of Mulliken charges =  -0.00000

 Dipole moment (field-independent basis, Debye):
    X=             -2.1876    Y=              4.4464    Z=              1.4942  Tot=              5.1758
 Quadrupole moment (field-independent basis, Debye-Ang):
   XX=            -86.1885   YY=            -99.1963   ZZ=            -89.8801
   XY=            -10.6232   XZ=             -1.7252   YZ=             -1.6691

 Normal termination of Gaussian 16 at Wed May  5 19:11:12 2021.
