 Gaussian 16, Revision A.03,
 Gaussian 16:  EM64L-G16RevA.03 25-Dec-2016

 -------------
 #p 6-31g* mp2
 -------------

 ------------------------------------------------------
 Input file generated by CHIRIPA (05-May-2021 14:51:13)
 ------------------------------------------------------
 Symbolic Z-matrix:
 Charge =  0 Multiplicity = 1

                         Standard orientation:
 ---------------------------------------------------------------------
 Center     Atomic      Atomic             Coordinates (Angstroms)
 Number     Number       Type             X           Y           Z
 ---------------------------------------------------------------------
      1          6           0       -3.080618    0.033387   -0.024256
      2          6           0       -3.348421    1.510821   -0.313144
      3          6           0       -4.504332    1.721802   -1.291485
      4          1           0       -2.863053   -0.484685   -0.968296
      5          1           0       -3.993355   -0.425150    0.380776
      6          1           0       -2.435039    1.966761   -0.716216
      7          1           0       -3.565186    2.025474    0.631716
      8          1           0       -5.429488    1.293026   -0.892939
      9          1           0       -4.292920    1.233979   -2.248530
     10          1           0       -4.678504    2.785065   -1.483829
     11          6           0       -1.927875   -0.193723    0.952131
     12          6           0       -1.660072   -1.671157    1.241019
     13          6           0       -0.504161   -1.882139    2.219360
     14          1           0       -1.015139    0.264813    0.547099
     15          1           0       -2.145440    0.324349    1.896171
     16          1           0       -1.443307   -2.185811    0.296159
     17          1           0       -2.573454   -2.127098    1.644091
     18          1           0       -0.715574   -1.394316    3.176405
     19          1           0        0.420995   -1.453362    1.820814
     20          1           0       -0.329989   -2.945401    2.411704
     21          6           0        2.477206    0.841989   -0.415679
     22          6           0        3.482044    1.422550    0.579930
     23          6           0        3.415849    2.947714    0.665268
     24          1           0        2.662538    1.274591   -1.408378
     25          1           0        1.463438    1.150220   -0.124707
     26          1           0        4.493494    1.112169    0.287955
     27          1           0        3.294420    0.988372    1.570335
     28          1           0        2.418667    3.273087    0.978892
     29          1           0        3.624552    3.397587   -0.310773
     30          1           0        4.142482    3.341578    1.382719
     31          6           0        2.531288   -0.681653   -0.512196
     32          6           0        1.526449   -1.262213   -1.507804
     33          6           0        1.592643   -2.787378   -1.593144
     34          1           0        3.545055   -0.989883   -0.803168
     35          1           0        2.345955   -1.114253    0.480503
     36          1           0        1.714072   -0.828035   -2.498209
     37          1           0        0.514999   -0.951832   -1.215830
     38          1           0        1.383940   -3.237251   -0.617101
     39          1           0        2.589827   -3.112751   -1.906767
     40          1           0        0.866011   -3.181242   -2.310595
 ---------------------------------------------------------------------

 SCF Done:  E(RHF) =  -470.732794992     A.U. after   11 cycles
 E2 =    -0.1585141724D+01 EUMP2 =    -0.47231793671558D+03

 The electronic state is 1-A.
 Alpha  occ. eigenvalues --  -11.21647 -11.21646 -11.21629 -11.21628 -11.21456
 Alpha  occ. eigenvalues --  -11.21452 -11.21395 -11.21391 -11.21123 -11.21103
 Alpha  occ. eigenvalues --  -11.21087 -11.21084  -1.08537  -1.08429  -1.03623
 Alpha  occ. eigenvalues --   -1.03517  -0.96028  -0.96016  -0.87055  -0.87023
 Alpha  occ. eigenvalues --   -0.79664  -0.79605  -0.78332  -0.78265  -0.65556
 Alpha  occ. eigenvalues --   -0.64762  -0.61280  -0.60607  -0.59394  -0.59385
 Alpha  occ. eigenvalues --   -0.57684  -0.57586  -0.55344  -0.55300  -0.52717
 Alpha  occ. eigenvalues --   -0.52706  -0.52500  -0.52400  -0.50087  -0.49891
 Alpha  occ. eigenvalues --   -0.48009  -0.47895  -0.46786  -0.46572  -0.46157
 Alpha  occ. eigenvalues --   -0.45788  -0.45680  -0.45401  -0.43830  -0.43822
 Alpha virt. eigenvalues --    0.18686   0.22867   0.23009   0.24913   0.25565
 Alpha virt. eigenvalues --    0.25755   0.26600   0.28190   0.28829   0.29979
 Alpha virt. eigenvalues --    0.31189   0.31424   0.31656   0.31927   0.32235

 Mulliken charges:
               1
     1  C   -0.298630
     2  C   -0.299771
     3  C   -0.475751
     4  H    0.149968
     5  H    0.149969
     6  H    0.152016
     7  H    0.151947
     8  H    0.155208
     9  H    0.155384
    10  H    0.160407
    11  C   -0.305812
    12  C   -0.301888
    13  C   -0.482466
    14  H    0.154883
    15  H    0.150177
    16  H    0.154777
    17  H    0.152652
    18  H    0.155464
    19  H    0.160905
    20  H    0.160385
    21  C   -0.303181
    22  C   -0.299474
    23  C   -0.475877
    24  H    0.150051
    25  H    0.152648
    26  H    0.152171
    27  H    0.152216
    28  H    0.155513
    29  H    0.155121
    30  H    0.160445
    31  C   -0.303308
    32  C   -0.305576
    33  C   -0.477213
    34  H    0.150592
    35  H    0.154024
    36  H    0.152285
    37  H    0.156911
    38  H    0.157487
    39  H    0.155459
    40  H    0.159880
 Sum of Mulliken charges =  -0.00000

 Dipole moment (field-independent basis, Debye):
    X=              0.0022    Y=             -0.0019    Z=              0.0015  Tot=              0.0033
 Quadrupole moment (field-independent basis, Debye-Ang):
   XX=            -84.4339   YY=            -86.0537   ZZ=            -84.1277
   XY=              0.1995   XZ=             -1.6002   YZ=              0.0035

 Normal termination of Gaussian 16 at Wed May  5 16:50:36 2021.
