 Gaussian 16, Revision A.03,
 Gaussian 16:  EM64L-G16RevA.03 25-Dec-2016

 -------------
 #p 6-31g* mp2
 -------------

 ------------------------------------------------------
 Input file generated by CHIRIPA (05-May-2021 14:57:25)
 ------------------------------------------------------
 Symbolic Z-matrix:
 Charge =  0 Multiplicity = 1

                         Standard orientation:
 ---------------------------------------------------------------------
 Center     Atomic      Atomic             Coordinates (Angstroms)
 Number     Number       Type             X           Y           Z
 ---------------------------------------------------------------------
      1          6           0       -3.952786    2.466427    0.525446
      2          6           0       -3.443326    1.639033    1.531622
      3          6           0       -3.142344    0.300018    1.265170
      4          6           0       -3.364136   -0.180733   -0.024395
      5          6           0       -3.870573    0.618566   -1.048080
      6          6           0       -4.164410    1.954455   -0.758930
      7          1           0       -4.183820    3.505392    0.741248
      8          1           0       -3.277964    2.033924    2.530002
      9          1           0       -2.746923   -0.362629    2.025406
     10          1           0       -4.024748    0.196327   -2.033658
     11          1           0       -4.559957    2.594703   -1.542302
     12          7           0       -3.049282   -1.596634   -0.318491
     13          8           0       -3.253687   -1.996037   -1.462751
     14          8           0       -2.604056   -2.280203    0.600827
     15          6           0        1.415194   -1.569420    0.224753
     16          6           0        2.688481   -2.026285    0.580469
     17          6           0        3.804230   -1.194549    0.446805
     18          6           0        3.609462    0.094014   -0.048132
     19          6           0        2.353640    0.578213   -0.411113
     20          6           0        1.252124   -0.270919   -0.269031
     21          1           0        0.553981   -2.222289    0.331856
     22          1           0        2.818110   -3.034240    0.964223
     23          1           0        4.801251   -1.522638    0.714623
     24          1           0        2.255897    1.588028   -0.790767
     25          1           0        0.264455    0.086572   -0.546078
     26          7           0        4.783121    0.983743   -0.194092
     27          8           0        4.584953    2.114717   -0.632572
     28          8           0        5.878979    0.533292    0.132750
 ---------------------------------------------------------------------

 SCF Done:  E(RHF) =  -868.339935518     A.U. after   16 cycles
 E2 =    -0.2599113837D+01 EUMP2 =    -0.87093904935550D+03

 The electronic state is 1-A.
 Alpha  occ. eigenvalues --  -20.62002 -20.61954 -20.60506 -20.60497 -15.87002
 Alpha  occ. eigenvalues --  -15.85557 -11.32166 -11.30788 -11.28688 -11.28667
 Alpha  occ. eigenvalues --  -11.28332 -11.27606 -11.27596 -11.27392 -11.27352
 Alpha  occ. eigenvalues --  -11.26885 -11.26316 -11.26255  -1.61052  -1.59584
 Alpha  occ. eigenvalues --   -1.40605  -1.39142  -1.20299  -1.18943  -1.09722
 Alpha  occ. eigenvalues --   -1.08325  -1.05644  -1.04343  -0.96589  -0.95183
 Alpha  occ. eigenvalues --   -0.87048  -0.85728  -0.83414  -0.82036  -0.78502
 Alpha  occ. eigenvalues --   -0.77139  -0.73207  -0.72392  -0.71774  -0.71358
 Alpha  occ. eigenvalues --   -0.70908  -0.69928  -0.65929  -0.65614  -0.64580
 Alpha  occ. eigenvalues --   -0.64337  -0.62979  -0.61709  -0.56120  -0.54697
 Alpha  occ. eigenvalues --   -0.54003  -0.53709  -0.52666  -0.52419  -0.49987
 Alpha  occ. eigenvalues --   -0.49950  -0.48539  -0.48520  -0.46035  -0.44578
 Alpha  occ. eigenvalues --   -0.38259  -0.37245  -0.36858  -0.35969
 Alpha virt. eigenvalues --    0.03958   0.05418   0.10401   0.11705   0.15482
 Alpha virt. eigenvalues --    0.16959   0.20659   0.21818   0.26608   0.27267
 Alpha virt. eigenvalues --    0.27516   0.28889   0.30425   0.31337   0.32035

 Mulliken charges:
               1
     1  C   -0.169883
     2  C   -0.218304
     3  C   -0.173215
     4  C    0.153008
     5  C   -0.172426
     6  C   -0.218706
     7  H    0.229956
     8  H    0.227526
     9  H    0.276281
    10  H    0.277722
    11  H    0.227280
    12  N    0.486370
    13  O   -0.454813
    14  O   -0.465758
    15  C   -0.176839
    16  C   -0.220015
    17  C   -0.171254
    18  C    0.157277
    19  C   -0.172127
    20  C   -0.221292
    21  H    0.245041
    22  H    0.224682
    23  H    0.274208
    24  H    0.272238
    25  H    0.219067
    26  N    0.488285
    27  O   -0.463005
    28  O   -0.461306
 Sum of Mulliken charges =  -0.00000

 Dipole moment (field-independent basis, Debye):
    X=             -5.6436    Y=              1.8643    Z=              1.5717  Tot=              6.1479
 Quadrupole moment (field-independent basis, Debye-Ang):
   XX=           -125.8999   YY=           -104.8890   ZZ=           -100.4505
   XY=            -32.0455   XZ=              1.5197   YZ=             -2.1369

 Normal termination of Gaussian 16 at Thu May  6 19:42:54 2021.
