 Gaussian 16, Revision A.03,
 Gaussian 16:  EM64L-G16RevA.03 25-Dec-2016

 -------------
 #p 6-31g* mp2
 -------------

 ------------------------------------------------------
 Input file generated by CHIRIPA (05-May-2021 14:53:18)
 ------------------------------------------------------
 Symbolic Z-matrix:
 Charge =  0 Multiplicity = 1

                         Standard orientation:
 ---------------------------------------------------------------------
 Center     Atomic      Atomic             Coordinates (Angstroms)
 Number     Number       Type             X           Y           Z
 ---------------------------------------------------------------------
      1          6           0        3.795918    0.987335    0.004981
      2          6           0        2.705861    2.036627    0.225771
      3          6           0        3.273040    3.432070    0.488144
      4          1           0        4.451919    0.958413    0.885759
      5          1           0        4.424145    1.294146   -0.842718
      6          1           0        2.079034    1.727236    1.071927
      7          1           0        2.052265    2.062920   -0.655556
      8          1           0        3.882245    3.765678   -0.358128
      9          1           0        3.909166    3.428087    1.379171
     10          1           0        2.476558    4.166531    0.643206
     11          6           0        3.244579   -0.412774   -0.258545
     12          6           0        4.334636   -1.462066   -0.479334
     13          6           0        3.767457   -2.857509   -0.741708
     14          1           0        2.616352   -0.719585    0.589154
     15          1           0        2.588578   -0.383852   -1.139323
     16          1           0        4.988232   -1.488359    0.401992
     17          1           0        4.961463   -1.152675   -1.325491
     18          1           0        3.131331   -2.853526   -1.632735
     19          1           0        3.158252   -3.191117    0.104564
     20          1           0        4.563939   -3.591970   -0.896770
     21          6           0       -1.220857   -2.060659    0.908582
     22          6           0       -2.541962   -2.354802    0.555474
     23          6           0       -3.398230   -1.345342    0.105650
     24          6           0       -2.898045   -0.046919    0.020786
     25          6           0       -1.586844    0.277748    0.365221
     26          6           0       -0.748348   -0.747637    0.812498
     27          1           0       -0.562590   -2.851017    1.257026
     28          1           0       -2.911638   -3.373607    0.629088
     29          1           0       -4.425440   -1.545170   -0.174223
     30          1           0       -1.246998    1.302868    0.281248
     31          1           0        0.277171   -0.516280    1.086045
     32          7           0       -3.795131    1.030180   -0.454075
     33          8           0       -3.330266    2.166052   -0.519899
     34          8           0       -4.946147    0.718145   -0.751455
 ---------------------------------------------------------------------

 SCF Done:  E(RHF) =  -669.535527092     A.U. after   15 cycles
 E2 =    -0.2091821319D+01 EUMP2 =    -0.67162734841053D+03

 The electronic state is 1-A.
 Alpha  occ. eigenvalues --  -20.60700 -20.60695 -15.85751 -11.31093 -11.27663
 Alpha  occ. eigenvalues --  -11.27634 -11.27393 -11.26681 -11.26607 -11.22412
 Alpha  occ. eigenvalues --  -11.22397 -11.22331 -11.22137 -11.21867 -11.21589
 Alpha  occ. eigenvalues --   -1.59776  -1.39330  -1.19260  -1.09256  -1.08661
 Alpha  occ. eigenvalues --   -1.04655  -1.04277  -0.96716  -0.95501  -0.87728
 Alpha  occ. eigenvalues --   -0.86061  -0.82335  -0.80357  -0.79118  -0.77370
 Alpha  occ. eigenvalues --   -0.71970  -0.71098  -0.70372  -0.65913  -0.64910
 Alpha  occ. eigenvalues --   -0.64645  -0.62011  -0.61668  -0.60082  -0.58335
 Alpha  occ. eigenvalues --   -0.56006  -0.55165  -0.53384  -0.53173  -0.52988
 Alpha  occ. eigenvalues --   -0.52727  -0.50652  -0.48738  -0.48727  -0.48662
 Alpha  occ. eigenvalues --   -0.47395  -0.46588  -0.46531  -0.44740  -0.44549
 Alpha  occ. eigenvalues --   -0.37243  -0.36254
 Alpha virt. eigenvalues --    0.05143   0.11369   0.16626   0.19308   0.22758
 Alpha virt. eigenvalues --    0.23083   0.24592   0.25922   0.26923   0.27993
 Alpha virt. eigenvalues --    0.29559   0.30634   0.31252   0.31313   0.31890

 Mulliken charges:
               1
     1  C   -0.298354
     2  C   -0.303586
     3  C   -0.476161
     4  H    0.151488
     5  H    0.154090
     6  H    0.144455
     7  H    0.155074
     8  H    0.158342
     9  H    0.156336
    10  H    0.164495
    11  C   -0.302151
    12  C   -0.299711
    13  C   -0.475499
    14  H    0.139671
    15  H    0.154058
    16  H    0.153558
    17  H    0.156063
    18  H    0.157652
    19  H    0.148642
    20  H    0.163717
    21  C   -0.172927
    22  C   -0.218505
    23  C   -0.171452
    24  C    0.158985
    25  C   -0.174443
    26  C   -0.223670
    27  H    0.225138
    28  H    0.222982
    29  H    0.275163
    30  H    0.276410
    31  H    0.233629
    32  N    0.488019
    33  O   -0.460684
    34  O   -0.460824
 Sum of Mulliken charges =  -0.00000

 Dipole moment (field-independent basis, Debye):
    X=              3.4132    Y=             -3.7088    Z=              1.5650  Tot=              5.2777
 Quadrupole moment (field-independent basis, Debye-Ang):
   XX=           -109.9129   YY=            -93.2338   ZZ=            -94.4910
   XY=             13.7212   XZ=             -4.7105   YZ=             -0.1263

 Normal termination of Gaussian 16 at Wed May  5 23:39:15 2021.
