 Gaussian 16, Revision A.03,
 Gaussian 16:  EM64L-G16RevA.03 25-Dec-2016

 -------------
 #p 6-31g* mp2
 -------------

 ------------------------------------------------------
 Input file generated by CHIRIPA (05-May-2021 14:51:07)
 ------------------------------------------------------
 Symbolic Z-matrix:
 Charge =  0 Multiplicity = 1

                         Standard orientation:
 ---------------------------------------------------------------------
 Center     Atomic      Atomic             Coordinates (Angstroms)
 Number     Number       Type             X           Y           Z
 ---------------------------------------------------------------------
      1          6           0       -2.638551   -0.633415    0.832478
      2          6           0       -1.522399   -0.591185    1.876703
      3          6           0       -1.499476   -1.833268    2.768049
      4          1           0       -3.605743   -0.738087    1.342898
      5          1           0       -2.514979   -1.530387    0.209930
      6          1           0       -1.647240    0.306167    2.496210
      7          1           0       -0.557768   -0.486409    1.363746
      8          1           0       -1.351593   -2.736198    2.166843
      9          1           0       -2.447255   -1.939119    3.305741
     10          1           0       -0.693950   -1.782153    3.507221
     11          6           0       -2.674403    0.601405   -0.066223
     12          6           0       -3.790555    0.559175   -1.110448
     13          6           0       -3.813477    1.801258   -2.001795
     14          1           0       -2.797975    1.498377    0.556325
     15          1           0       -1.707211    0.706077   -0.576644
     16          1           0       -4.755186    0.454399   -0.597491
     17          1           0       -3.665714   -0.338177   -1.729955
     18          1           0       -2.865699    1.907109   -2.539487
     19          1           0       -3.961361    2.704188   -1.400588
     20          1           0       -4.619003    1.750143   -2.740967
     21          6           0        2.151986   -0.479758   -0.671467
     22          6           0        2.799885   -1.742854   -1.239621
     23          6           0        1.777755   -2.724961   -1.812778
     24          1           0        1.435013   -0.763352    0.111139
     25          1           0        1.571542    0.014043   -1.463073
     26          1           0        3.380063   -2.233383   -0.447540
     27          1           0        3.515538   -1.456208   -2.020831
     28          1           0        1.206143   -2.257937   -2.621326
     29          1           0        1.069896   -3.039528   -1.039096
     30          1           0        2.262535   -3.620660   -2.213491
     31          6           0        3.160969    0.511768   -0.094788
     32          6           0        2.513069    1.774864    0.473366
     33          6           0        3.535199    2.756971    1.046524
     34          1           0        3.741412    0.017968    0.696818
     35          1           0        3.877941    0.795362   -0.877392
     36          1           0        1.797415    1.488218    1.254577
     37          1           0        1.932891    2.265393   -0.318714
     38          1           0        4.243058    3.071538    0.272841
     39          1           0        4.106812    2.289947    1.855071
     40          1           0        3.050418    3.652670    1.447238
 ---------------------------------------------------------------------

 SCF Done:  E(RHF) =  -470.733409637     A.U. after   11 cycles
 E2 =    -0.1583436223D+01 EUMP2 =    -0.47231684585988D+03

 The electronic state is 1-A.
 Alpha  occ. eigenvalues --  -11.21658 -11.21611 -11.21586 -11.21577 -11.21457
 Alpha  occ. eigenvalues --  -11.21392 -11.21379 -11.21316 -11.21136 -11.21100
 Alpha  occ. eigenvalues --  -11.21079 -11.21059  -1.08484  -1.08406  -1.03566
 Alpha  occ. eigenvalues --   -1.03525  -0.96020  -0.95972  -0.87036  -0.86988
 Alpha  occ. eigenvalues --   -0.79631  -0.79591  -0.78379  -0.78140  -0.65198
 Alpha  occ. eigenvalues --   -0.64967  -0.60992  -0.60898  -0.59385  -0.59343
 Alpha  occ. eigenvalues --   -0.57634  -0.57579  -0.55329  -0.55242  -0.52714
 Alpha  occ. eigenvalues --   -0.52668  -0.52450  -0.52395  -0.50005  -0.49884
 Alpha  occ. eigenvalues --   -0.47968  -0.47923  -0.46797  -0.46630  -0.46123
 Alpha  occ. eigenvalues --   -0.45755  -0.45718  -0.45214  -0.43824  -0.43770
 Alpha virt. eigenvalues --    0.20469   0.23378   0.23724   0.24246   0.25156
 Alpha virt. eigenvalues --    0.26457   0.26835   0.27989   0.28092   0.30004
 Alpha virt. eigenvalues --    0.30750   0.31645   0.31667   0.31887   0.32310

 Mulliken charges:
               1
     1  C   -0.297512
     2  C   -0.310244
     3  C   -0.475345
     4  H    0.149560
     5  H    0.149586
     6  H    0.151977
     7  H    0.161002
     8  H    0.154680
     9  H    0.155637
    10  H    0.159692
    11  C   -0.299364
    12  C   -0.299722
    13  C   -0.475592
    14  H    0.149341
    15  H    0.151298
    16  H    0.151820
    17  H    0.152038
    18  H    0.154893
    19  H    0.155156
    20  H    0.160166
    21  C   -0.307559
    22  C   -0.298964
    23  C   -0.475804
    24  H    0.158074
    25  H    0.149136
    26  H    0.152238
    27  H    0.152291
    28  H    0.155003
    29  H    0.154623
    30  H    0.160718
    31  C   -0.297742
    32  C   -0.301651
    33  C   -0.475726
    34  H    0.149551
    35  H    0.149842
    36  H    0.154139
    37  H    0.151931
    38  H    0.155188
    39  H    0.155168
    40  H    0.160477
 Sum of Mulliken charges =  -0.00000

 Dipole moment (field-independent basis, Debye):
    X=              0.0237    Y=              0.0037    Z=             -0.0037  Tot=              0.0242
 Quadrupole moment (field-independent basis, Debye-Ang):
   XX=            -84.7638   YY=            -85.7285   ZZ=            -84.2649
   XY=             -0.6483   XZ=             -0.8808   YZ=              0.1573

 Normal termination of Gaussian 16 at Wed May  5 15:01:43 2021.
