 Gaussian 16, Revision A.03,
 Gaussian 16:  EM64L-G16RevA.03 25-Dec-2016

 -------------
 #p 6-31g* mp2
 -------------

 ------------------------------------------------------
 Input file generated by CHIRIPA (05-May-2021 14:55:24)
 ------------------------------------------------------
 Symbolic Z-matrix:
 Charge =  0 Multiplicity = 1

                         Standard orientation:
 ---------------------------------------------------------------------
 Center     Atomic      Atomic             Coordinates (Angstroms)
 Number     Number       Type             X           Y           Z
 ---------------------------------------------------------------------
      1          6           0        1.344841    0.418422    1.092408
      2          6           0        1.873273   -0.867249    1.248388
      3          6           0        3.122465   -1.191487    0.710857
      4          6           0        3.819224   -0.201187    0.020117
      5          6           0        3.319480    1.088730   -0.152110
      6          6           0        2.068356    1.390594    0.393888
      7          1           0        0.373689    0.661608    1.513263
      8          1           0        1.313611   -1.624258    1.790385
      9          1           0        3.555159   -2.178896    0.816770
     10          1           0        3.900862    1.822204   -0.697479
     11          1           0        1.660442    2.389893    0.271196
     12          7           0        5.142710   -0.532600   -0.553424
     13          8           0        5.736729    0.357712   -1.157678
     14          8           0        5.560978   -1.676398   -0.387852
     15          6           0       -4.270112    0.871882   -0.155479
     16          6           0       -2.757205    0.801260    0.054544
     17          6           0       -2.092693    2.178147    0.034510
     18          1           0       -4.478130    1.367081   -1.113838
     19          1           0       -4.712608    1.505007    0.626024
     20          1           0       -2.317862    0.167333   -0.726308
     21          1           0       -2.552761    0.306000    1.012425
     22          1           0       -2.503586    2.815730    0.823975
     23          1           0       -2.267352    2.676275   -0.924638
     24          1           0       -1.011348    2.104293    0.186487
     25          6           0       -4.948697   -0.496674   -0.138010
     26          6           0       -6.461604   -0.426052   -0.348033
     27          6           0       -7.126116   -1.802938   -0.327999
     28          1           0       -4.506202   -1.129798   -0.919512
     29          1           0       -4.740680   -0.991873    0.820349
     30          1           0       -6.666048    0.069208   -1.305914
     31          1           0       -6.900947    0.207875    0.432820
     32          1           0       -6.951458   -2.301068    0.631148
     33          1           0       -6.715223   -2.440522   -1.117464
     34          1           0       -8.207462   -1.729085   -0.479977
 ---------------------------------------------------------------------

 SCF Done:  E(RHF) =  -669.535138329     A.U. after   15 cycles
 E2 =    -0.2091691021D+01 EUMP2 =    -0.67162682934991D+03

 The electronic state is 1-A.
 Alpha  occ. eigenvalues --  -20.60743 -20.60738 -15.85797 -11.31162 -11.27733
 Alpha  occ. eigenvalues --  -11.27729 -11.27438 -11.26740 -11.26729 -11.22644
 Alpha  occ. eigenvalues --  -11.22245 -11.22178 -11.22130 -11.22017 -11.21514
 Alpha  occ. eigenvalues --   -1.59819  -1.39373  -1.19334  -1.09193  -1.08728
 Alpha  occ. eigenvalues --   -1.04739  -1.04319  -0.96775  -0.95561  -0.87791
 Alpha  occ. eigenvalues --   -0.86136  -0.82396  -0.80395  -0.78964  -0.77445
 Alpha  occ. eigenvalues --   -0.72016  -0.71142  -0.70473  -0.65813  -0.64993
 Alpha  occ. eigenvalues --   -0.64770  -0.62101  -0.61703  -0.60186  -0.58389
 Alpha  occ. eigenvalues --   -0.56036  -0.55208  -0.53506  -0.53217  -0.52989
 Alpha  occ. eigenvalues --   -0.52810  -0.50689  -0.48778  -0.48771  -0.48702
 Alpha  occ. eigenvalues --   -0.47414  -0.46515  -0.46406  -0.44779  -0.44569
 Alpha  occ. eigenvalues --   -0.37297  -0.36341
 Alpha virt. eigenvalues --    0.05076   0.11244   0.16530   0.19789   0.22436
 Alpha virt. eigenvalues --    0.23940   0.25541   0.26050   0.26435   0.27298
 Alpha virt. eigenvalues --    0.29039   0.29677   0.30695   0.31359   0.31710

 Mulliken charges:
               1
     1  C   -0.172964
     2  C   -0.219567
     3  C   -0.170901
     4  C    0.158212
     5  C   -0.171037
     6  C   -0.220549
     7  H    0.231155
     8  H    0.223485
     9  H    0.275499
    10  H    0.275612
    11  H    0.224532
    12  N    0.488092
    13  O   -0.460474
    14  O   -0.460490
    15  C   -0.298867
    16  C   -0.301177
    17  C   -0.481087
    18  H    0.152605
    19  H    0.150807
    20  H    0.156786
    21  H    0.145640
    22  H    0.157896
    23  H    0.161711
    24  H    0.151319
    25  C   -0.298874
    26  C   -0.300253
    27  C   -0.476123
    28  H    0.151017
    29  H    0.148889
    30  H    0.153266
    31  H    0.152526
    32  H    0.155229
    33  H    0.156110
    34  H    0.161977
 Sum of Mulliken charges =  -0.00000

 Dipole moment (field-independent basis, Debye):
    X=             -4.8766    Y=              1.1529    Z=              1.9512  Tot=              5.3775
 Quadrupole moment (field-independent basis, Debye-Ang):
   XX=           -130.5861   YY=            -91.7703   ZZ=            -93.7480
   XY=              5.2438   XZ=              7.5616   YZ=             -2.3221

 Normal termination of Gaussian 16 at Thu May  6 17:41:49 2021.
