 Gaussian 16, Revision A.03,
 Gaussian 16:  EM64L-G16RevA.03 25-Dec-2016

 -------------
 #p 6-31g* mp2
 -------------

 ------------------------------------------------------
 Input file generated by CHIRIPA (05-May-2021 14:57:22)
 ------------------------------------------------------
 Symbolic Z-matrix:
 Charge =  0 Multiplicity = 1

                         Standard orientation:
 ---------------------------------------------------------------------
 Center     Atomic      Atomic             Coordinates (Angstroms)
 Number     Number       Type             X           Y           Z
 ---------------------------------------------------------------------
      1          6           0       -1.736090    1.564938   -0.260827
      2          6           0       -1.623613    0.274927   -0.789733
      3          6           0       -2.680307   -0.633451   -0.676608
      4          6           0       -3.840202   -0.216512   -0.025384
      5          6           0       -3.982642    1.061858    0.511991
      6          6           0       -2.913170    1.953601    0.387204
      7          1           0       -0.910262    2.264127   -0.353235
      8          1           0       -0.710666   -0.029661   -1.293518
      9          1           0       -2.620034   -1.638223   -1.076881
     10          1           0       -4.905243    1.336538    1.008756
     11          1           0       -3.003330    2.954803    0.798922
     12          7           0       -4.965640   -1.169366    0.100549
     13          8           0       -5.976931   -0.777602    0.678866
     14          8           0       -4.815158   -2.289934   -0.381446
     15          6           0        5.366116   -1.766277    0.368139
     16          6           0        4.769999   -1.161654    1.479713
     17          6           0        3.820537   -0.149062    1.313198
     18          6           0        3.489265    0.235976    0.015009
     19          6           0        4.065556   -0.347187   -1.112422
     20          6           0        5.012614   -1.357833   -0.922106
     21          1           0        6.102747   -2.552127    0.506737
     22          1           0        5.042598   -1.476830    2.482907
     23          1           0        3.343483    0.335991    2.156145
     24          1           0        3.773419   -0.011657   -2.100092
     25          1           0        5.473935   -1.825612   -1.787214
     26          7           0        2.485384    1.306933   -0.173871
     27          8           0        2.210755    1.628132   -1.328014
     28          8           0        1.992180    1.804871    0.835804
 ---------------------------------------------------------------------

 SCF Done:  E(RHF) =  -868.341372442     A.U. after   16 cycles
 E2 =    -0.2598771231D+01 EUMP2 =    -0.87094014367280D+03

 The electronic state is 1-A.
 Alpha  occ. eigenvalues --  -20.62134 -20.62107 -20.60068 -20.60062 -15.87098
 Alpha  occ. eigenvalues --  -15.85116 -11.32072 -11.30224 -11.28597 -11.28572
 Alpha  occ. eigenvalues --  -11.28245 -11.27507 -11.27488 -11.26812 -11.26807
 Alpha  occ. eigenvalues --  -11.26199 -11.25653 -11.25624  -1.61176  -1.59151
 Alpha  occ. eigenvalues --   -1.40731  -1.38712  -1.20204  -1.18362  -1.09674
 Alpha  occ. eigenvalues --   -1.07741  -1.05540  -1.03750  -0.96572  -0.94624
 Alpha  occ. eigenvalues --   -0.86956  -0.85122  -0.83413  -0.81494  -0.78508
 Alpha  occ. eigenvalues --   -0.76630  -0.73319  -0.72476  -0.71336  -0.71297
 Alpha  occ. eigenvalues --   -0.70475  -0.69299  -0.65853  -0.65532  -0.63985
 Alpha  occ. eigenvalues --   -0.63720  -0.62888  -0.61121  -0.56053  -0.54039
 Alpha  occ. eigenvalues --   -0.53884  -0.53620  -0.52075  -0.51819  -0.50106
 Alpha  occ. eigenvalues --   -0.50053  -0.48108  -0.48068  -0.46206  -0.44177
 Alpha  occ. eigenvalues --   -0.38157  -0.37124  -0.36226  -0.35392
 Alpha virt. eigenvalues --    0.03961   0.05932   0.10536   0.12288   0.15538
 Alpha virt. eigenvalues --    0.17521   0.20727   0.22657   0.26679   0.27549
 Alpha virt. eigenvalues --    0.28222   0.29643   0.30486   0.31746   0.32532

 Mulliken charges:
               1
     1  C   -0.171431
     2  C   -0.223880
     3  C   -0.172657
     4  C    0.156434
     5  C   -0.171954
     6  C   -0.221059
     7  H    0.249420
     8  H    0.223798
     9  H    0.270561
    10  H    0.272015
    11  H    0.222250
    12  N    0.488396
    13  O   -0.463197
    14  O   -0.464235
    15  C   -0.169141
    16  C   -0.218433
    17  C   -0.169778
    18  C    0.157059
    19  C   -0.171579
    20  C   -0.218457
    21  H    0.229139
    22  H    0.226812
    23  H    0.277078
    24  H    0.275532
    25  H    0.226314
    26  N    0.487738
    27  O   -0.466274
    28  O   -0.460471
 Sum of Mulliken charges =  -0.00000

 Dipole moment (field-independent basis, Debye):
    X=              8.1556    Y=             -0.3265    Z=              0.2914  Tot=              8.1673
 Quadrupole moment (field-independent basis, Debye-Ang):
   XX=           -110.4718   YY=           -106.4571   ZZ=            -99.2276
   XY=            -29.4839   XZ=              2.2255   YZ=              2.4463

 Normal termination of Gaussian 16 at Fri May  7 01:44:11 2021.
