 Gaussian 16, Revision A.03,
 Gaussian 16:  EM64L-G16RevA.03 25-Dec-2016

 -------------
 #p 6-31g* mp2
 -------------

 ------------------------------------------------------
 Input file generated by CHIRIPA (05-May-2021 14:57:21)
 ------------------------------------------------------
 Symbolic Z-matrix:
 Charge =  0 Multiplicity = 1

                         Standard orientation:
 ---------------------------------------------------------------------
 Center     Atomic      Atomic             Coordinates (Angstroms)
 Number     Number       Type             X           Y           Z
 ---------------------------------------------------------------------
      1          6           0        2.076186    0.819292   -0.223229
      2          6           0        2.456068   -0.361281   -0.870112
      3          6           0        3.780281   -0.806290   -0.815577
      4          6           0        4.702725   -0.042616   -0.102002
      5          6           0        4.355090    1.137839    0.552953
      6          6           0        3.025236    1.563772    0.484991
      7          1           0        1.045314    1.157576   -0.270808
      8          1           0        1.721161   -0.941482   -1.420860
      9          1           0        4.101594   -1.716526   -1.307152
     10          1           0        5.110212    1.694840    1.094210
     11          1           0        2.733069    2.481011    0.988335
     12          7           0        6.107596   -0.503629   -0.037161
     13          8           0        6.901249    0.187213    0.598048
     14          8           0        6.388480   -1.547084   -0.622775
     15          6           0       -2.056135    0.256519    0.783080
     16          6           0       -2.568620    0.962304   -0.310423
     17          6           0       -3.905202    0.809474   -0.690869
     18          6           0       -4.704663   -0.061390    0.047878
     19          6           0       -4.223414   -0.778527    1.142137
     20          6           0       -2.883709   -0.610116    1.504598
     21          1           0       -1.016634    0.381294    1.071635
     22          1           0       -1.928235    1.636030   -0.872601
     23          1           0       -4.327848    1.343563   -1.533210
     24          1           0       -4.886213   -1.442905    1.683168
     25          1           0       -2.488422   -1.159527    2.354269
     26          7           0       -6.121296   -0.231432   -0.345364
     27          8           0       -6.804995   -1.004764    0.321830
     28          8           0       -6.521128    0.411843   -1.313336
 ---------------------------------------------------------------------

 SCF Done:  E(RHF) =  -868.336449354     A.U. after   16 cycles
 E2 =    -0.2599937761D+01 EUMP2 =    -0.87093638711459D+03

 The electronic state is 1-A.
 Alpha  occ. eigenvalues --  -20.61376 -20.61371 -20.61351 -20.61345 -15.86433
 Alpha  occ. eigenvalues --  -15.86410 -11.31978 -11.31934 -11.28545 -11.28530
 Alpha  occ. eigenvalues --  -11.28522 -11.28489 -11.28467 -11.28387 -11.27681
 Alpha  occ. eigenvalues --  -11.27660 -11.27642 -11.27554  -1.60446  -1.60423
 Alpha  occ. eigenvalues --   -1.39995  -1.39971  -1.20170  -1.20136  -1.09576
 Alpha  occ. eigenvalues --   -1.09518  -1.05579  -1.05559  -0.96394  -0.96303
 Alpha  occ. eigenvalues --   -0.86987  -0.86968  -0.83204  -0.83126  -0.78167
 Alpha  occ. eigenvalues --   -0.78148  -0.72649  -0.72627  -0.71770  -0.71748
 Alpha  occ. eigenvalues --   -0.71619  -0.71064  -0.65831  -0.65803  -0.65628
 Alpha  occ. eigenvalues --   -0.65542  -0.62906  -0.62897  -0.56459  -0.55877
 Alpha  occ. eigenvalues --   -0.53915  -0.53881  -0.53675  -0.53663  -0.49423
 Alpha  occ. eigenvalues --   -0.49399  -0.49392  -0.49369  -0.45359  -0.45341
 Alpha  occ. eigenvalues --   -0.38229  -0.38149  -0.37166  -0.37154
 Alpha virt. eigenvalues --    0.04295   0.04393   0.10468   0.10473   0.15580
 Alpha virt. eigenvalues --    0.15830   0.17737   0.21931   0.24759   0.26568
 Alpha virt. eigenvalues --    0.26861   0.29324   0.29949   0.30622   0.31824

 Mulliken charges:
               1
     1  C   -0.176946
     2  C   -0.218808
     3  C   -0.170282
     4  C    0.159992
     5  C   -0.170246
     6  C   -0.218374
     7  H    0.217555
     8  H    0.225907
     9  H    0.278426
    10  H    0.278092
    11  H    0.224511
    12  N    0.487795
    13  O   -0.458333
    14  O   -0.458092
    15  C   -0.175287
    16  C   -0.220533
    17  C   -0.169733
    18  C    0.159168
    19  C   -0.169871
    20  C   -0.218148
    21  H    0.221407
    22  H    0.218073
    23  H    0.277658
    24  H    0.278366
    25  H    0.226730
    26  N    0.487912
    27  O   -0.458095
    28  O   -0.458846
 Sum of Mulliken charges =  -0.00000

 Dipole moment (field-independent basis, Debye):
    X=              0.0768    Y=              2.0975    Z=              1.1742  Tot=              2.4050
 Quadrupole moment (field-independent basis, Debye-Ang):
   XX=           -196.8785   YY=           -100.4579   ZZ=           -101.0462
   XY=              6.4069   XZ=             -6.8001   YZ=             -0.4589

 Normal termination of Gaussian 16 at Thu May  6 00:09:07 2021.
