 Gaussian 16, Revision A.03,
 Gaussian 16:  EM64L-G16RevA.03 25-Dec-2016

 -------------
 #p 6-31g* mp2
 -------------

 ------------------------------------------------------
 Input file generated by CHIRIPA (05-May-2021 14:51:11)
 ------------------------------------------------------
 Symbolic Z-matrix:
 Charge =  0 Multiplicity = 1

                         Standard orientation:
 ---------------------------------------------------------------------
 Center     Atomic      Atomic             Coordinates (Angstroms)
 Number     Number       Type             X           Y           Z
 ---------------------------------------------------------------------
      1          6           0        4.043572    0.910729   -0.166232
      2          6           0        2.718162    1.666687   -0.265237
      3          6           0        2.902418    3.184513   -0.272315
      4          1           0        4.568595    1.222050    0.747209
      5          1           0        4.686042    1.199096   -1.009721
      6          1           0        2.077848    1.375939    0.577425
      7          1           0        2.196146    1.353389   -1.178450
      8          1           0        3.520075    3.493640   -1.121751
      9          1           0        3.401105    3.516317    0.644101
     10          1           0        1.942360    3.705142   -0.343683
     11          6           0        3.875822   -0.607665   -0.158035
     12          6           0        5.201231   -1.363623   -0.059030
     13          6           0        5.016976   -2.881448   -0.051952
     14          1           0        3.233352   -0.896032    0.685453
     15          1           0        3.350799   -0.918985   -1.071476
     16          1           0        5.723248   -1.050325    0.854183
     17          1           0        5.841546   -1.072874   -0.901692
     18          1           0        4.518288   -3.213252   -0.968368
     19          1           0        4.399318   -3.190575    0.797484
     20          1           0        5.977034   -3.402078    0.019416
     21          6           0       -3.426108    0.078150    0.658078
     22          6           0       -1.998137   -0.155422    0.163779
     23          6           0       -0.941903    0.309205    1.166917
     24          1           0       -3.564009    1.147457    0.869047
     25          1           0       -3.567516   -0.449340    1.611573
     26          1           0       -1.859891    0.371216   -0.789194
     27          1           0       -1.863678   -1.224271   -0.046219
     28          1           0       -1.051268   -0.224597    2.116492
     29          1           0       -1.047460    1.379953    1.369296
     30          1           0        0.071611    0.132844    0.793357
     31          6           0       -4.493286   -0.381214   -0.333810
     32          6           0       -5.921256   -0.147643    0.160488
     33          6           0       -6.977491   -0.612270   -0.842649
     34          1           0       -4.351877    0.146275   -1.287307
     35          1           0       -4.355385   -1.450522   -0.544779
     36          1           0       -6.055716    0.921206    0.370486
     37          1           0       -6.059503   -0.674280    1.113461
     38          1           0       -6.871934   -1.683018   -1.045029
     39          1           0       -6.868126   -0.078467   -1.792226
     40          1           0       -7.991005   -0.435908   -0.469089
 ---------------------------------------------------------------------

 SCF Done:  E(RHF) =  -470.733164416     A.U. after   11 cycles
 E2 =    -0.1582536701D+01 EUMP2 =    -0.47231570111639D+03

 The electronic state is 1-A.
 Alpha  occ. eigenvalues --  -11.21606 -11.21592 -11.21575 -11.21556 -11.21407
 Alpha  occ. eigenvalues --  -11.21389 -11.21344 -11.21329 -11.21073 -11.21064
 Alpha  occ. eigenvalues --  -11.21055 -11.21005  -1.08433  -1.08408  -1.03539
 Alpha  occ. eigenvalues --   -1.03492  -0.95981  -0.95952  -0.87017  -0.86955
 Alpha  occ. eigenvalues --   -0.79653  -0.79517  -0.78254  -0.78217  -0.65066
 Alpha  occ. eigenvalues --   -0.65040  -0.60949  -0.60891  -0.59476  -0.59210
 Alpha  occ. eigenvalues --   -0.57622  -0.57529  -0.55274  -0.55231  -0.52770
 Alpha  occ. eigenvalues --   -0.52608  -0.52418  -0.52344  -0.49935  -0.49881
 Alpha  occ. eigenvalues --   -0.47999  -0.47794  -0.46656  -0.46566  -0.45785
 Alpha  occ. eigenvalues --   -0.45761  -0.45719  -0.45682  -0.43799  -0.43671
 Alpha virt. eigenvalues --    0.22044   0.23037   0.23752   0.24645   0.25920
 Alpha virt. eigenvalues --    0.26651   0.26827   0.27492   0.27877   0.28877
 Alpha virt. eigenvalues --    0.31044   0.31375   0.31576   0.31922   0.32041

 Mulliken charges:
               1
     1  C   -0.297820
     2  C   -0.305769
     3  C   -0.475233
     4  H    0.149589
     5  H    0.149406
     6  H    0.159285
     7  H    0.151359
     8  H    0.154939
     9  H    0.155113
    10  H    0.160133
    11  C   -0.299409
    12  C   -0.299560
    13  C   -0.475747
    14  H    0.149802
    15  H    0.149563
    16  H    0.152047
    17  H    0.152063
    18  H    0.155166
    19  H    0.155241
    20  H    0.160275
    21  C   -0.298472
    22  C   -0.299123
    23  C   -0.481945
    24  H    0.149539
    25  H    0.149427
    26  H    0.151907
    27  H    0.151841
    28  H    0.154335
    29  H    0.154581
    30  H    0.167588
    31  C   -0.298232
    32  C   -0.299612
    33  C   -0.475689
    34  H    0.149452
    35  H    0.149617
    36  H    0.151909
    37  H    0.151900
    38  H    0.155165
    39  H    0.155153
    40  H    0.160216
 Sum of Mulliken charges =  -0.00000

 Dipole moment (field-independent basis, Debye):
    X=              0.0176    Y=              0.0003    Z=              0.0029  Tot=              0.0179
 Quadrupole moment (field-independent basis, Debye-Ang):
   XX=            -85.6369   YY=            -85.2547   ZZ=            -83.9520
   XY=             -0.2264   XZ=             -0.5674   YZ=             -0.5424

 Normal termination of Gaussian 16 at Wed May  5 19:51:12 2021.
