 Gaussian 16, Revision A.03,
 Gaussian 16:  EM64L-G16RevA.03 25-Dec-2016

 -------------
 #p 6-31g* mp2
 -------------

 ------------------------------------------------------
 Input file generated by CHIRIPA (05-May-2021 14:53:12)
 ------------------------------------------------------
 Symbolic Z-matrix:
 Charge =  0 Multiplicity = 1

                         Standard orientation:
 ---------------------------------------------------------------------
 Center     Atomic      Atomic             Coordinates (Angstroms)
 Number     Number       Type             X           Y           Z
 ---------------------------------------------------------------------
      1          6           0       -3.164642   -0.285525   -0.077295
      2          6           0       -4.276919   -1.095651   -0.744017
      3          6           0       -4.225792   -2.580109   -0.381299
      4          1           0       -2.190905   -0.702367   -0.368886
      5          1           0       -3.239984   -0.400352    1.012904
      6          1           0       -4.200345   -0.978217   -1.832577
      7          1           0       -5.248116   -0.676713   -0.450958
      8          1           0       -4.324979   -2.715984    0.700506
      9          1           0       -3.271255   -3.019201   -0.688964
     10          1           0       -5.029750   -3.140405   -0.868722
     11          6           0       -3.202482    1.200317   -0.430239
     12          6           0       -2.090204    2.010444    0.236483
     13          6           0       -2.141331    3.494902   -0.126235
     14          1           0       -3.127139    1.315145   -1.520438
     15          1           0       -4.176218    1.617159   -0.138648
     16          1           0       -1.119007    1.591506   -0.056576
     17          1           0       -2.166779    1.893009    1.325043
     18          1           0       -3.095869    3.933993    0.181430
     19          1           0       -2.042144    3.630777   -1.208039
     20          1           0       -1.337373    4.055197    0.361188
     21          6           0        0.394021   -1.159195    1.356588
     22          6           0        1.160110   -2.051046    0.598807
     23          6           0        2.321722   -1.617793   -0.047332
     24          6           0        2.689514   -0.279821    0.086272
     25          6           0        1.947306    0.632924    0.834145
     26          6           0        0.789368    0.177586    1.471635
     27          1           0       -0.506919   -1.504335    1.855166
     28          1           0        0.855493   -3.089773    0.507705
     29          1           0        2.933389   -2.286905   -0.640265
     30          1           0        2.276401    1.662431    0.906464
     31          1           0        0.196362    0.872445    2.059479
     32          7           0        3.917317    0.190536   -0.593188
     33          8           0        4.219865    1.374312   -0.459867
     34          8           0        4.553870   -0.633483   -1.246205
 ---------------------------------------------------------------------

 SCF Done:  E(RHF) =  -669.534426970     A.U. after   15 cycles
 E2 =    -0.2093854734D+01 EUMP2 =    -0.67162828170449D+03

 The electronic state is 1-A.
 Alpha  occ. eigenvalues --  -20.60774 -20.60769 -15.85827 -11.31199 -11.27752
 Alpha  occ. eigenvalues --  -11.27738 -11.27451 -11.26783 -11.26708 -11.22277
 Alpha  occ. eigenvalues --  -11.22254 -11.22150 -11.22018 -11.21822 -11.21616
 Alpha  occ. eigenvalues --   -1.59850  -1.39403  -1.19371  -1.09149  -1.08747
 Alpha  occ. eigenvalues --   -1.04780  -1.04207  -0.96657  -0.95589  -0.87673
 Alpha  occ. eigenvalues --   -0.86165  -0.82429  -0.80298  -0.79015  -0.77455
 Alpha  occ. eigenvalues --   -0.72044  -0.71174  -0.70446  -0.65762  -0.65010
 Alpha  occ. eigenvalues --   -0.64766  -0.62129  -0.61603  -0.60026  -0.58291
 Alpha  occ. eigenvalues --   -0.55936  -0.55242  -0.53404  -0.53105  -0.53092
 Alpha  occ. eigenvalues --   -0.52829  -0.50591  -0.48829  -0.48800  -0.48559
 Alpha  occ. eigenvalues --   -0.47323  -0.46504  -0.46414  -0.44807  -0.44464
 Alpha  occ. eigenvalues --   -0.37273  -0.36304
 Alpha virt. eigenvalues --    0.05021   0.11241   0.16429   0.20343   0.22611
 Alpha virt. eigenvalues --    0.23214   0.25137   0.26652   0.26921   0.27834
 Alpha virt. eigenvalues --    0.29332   0.29556   0.31186   0.31338   0.31907

 Mulliken charges:
               1
     1  C   -0.304063
     2  C   -0.299427
     3  C   -0.476341
     4  H    0.154124
     5  H    0.141518
     6  H    0.155268
     7  H    0.153947
     8  H    0.152629
     9  H    0.152394
    10  H    0.164002
    11  C   -0.297014
    12  C   -0.309131
    13  C   -0.475097
    14  H    0.153509
    15  H    0.150966
    16  H    0.161750
    17  H    0.141722
    18  H    0.156477
    19  H    0.159454
    20  H    0.158915
    21  C   -0.170710
    22  C   -0.220592
    23  C   -0.171292
    24  C    0.158958
    25  C   -0.173930
    26  C   -0.218048
    27  H    0.228688
    28  H    0.223715
    29  H    0.275499
    30  H    0.275669
    31  H    0.229197
    32  N    0.488054
    33  O   -0.460355
    34  O   -0.460454
 Sum of Mulliken charges =  -0.00000

 Dipole moment (field-independent basis, Debye):
    X=             -4.3901    Y=             -1.6317    Z=              2.2921  Tot=              5.2143
 Quadrupole moment (field-independent basis, Debye-Ang):
   XX=           -118.1965   YY=            -90.7946   ZZ=            -93.7126
   XY=             -4.2954   XZ=              5.7281   YZ=              1.2932

 Normal termination of Gaussian 16 at Thu May  6 10:26:15 2021.
