 Gaussian 16, Revision A.03,
 Gaussian 16:  EM64L-G16RevA.03 25-Dec-2016

 -------------
 #p 6-31g* mp2
 -------------

 ------------------------------------------------------
 Input file generated by CHIRIPA (05-May-2021 14:53:18)
 ------------------------------------------------------
 Symbolic Z-matrix:
 Charge =  0 Multiplicity = 1

                         Standard orientation:
 ---------------------------------------------------------------------
 Center     Atomic      Atomic             Coordinates (Angstroms)
 Number     Number       Type             X           Y           Z
 ---------------------------------------------------------------------
      1          6           0        2.372899    1.414176    0.116630
      2          6           0        1.299028    2.097981   -0.730245
      3          6           0        0.828184    3.423252   -0.130449
      4          1           0        1.978762    1.241342    1.127437
      5          1           0        3.230037    2.092772    0.227159
      6          1           0        0.444743    1.417761   -0.840301
      7          1           0        1.695702    2.269034   -1.739209
      8          1           0        1.665359    4.122416   -0.036056
      9          1           0        0.407292    3.266306    0.867959
     10          1           0        0.060625    3.894981   -0.751886
     11          6           0        2.853736    0.088131   -0.469993
     12          6           0        3.927607   -0.595674    0.376883
     13          6           0        4.398451   -1.920945   -0.222914
     14          1           0        1.996598   -0.590465   -0.580522
     15          1           0        3.247873    0.260965   -1.480799
     16          1           0        3.530933   -0.766727    1.385846
     17          1           0        4.781892    0.084547    0.486939
     18          1           0        4.819343   -1.763999   -1.221322
     19          1           0        3.561276   -2.620109   -0.317306
     20          1           0        5.166010   -2.392674    0.398524
     21          6           0       -1.136404   -2.940835    0.066317
     22          6           0       -2.270001   -2.603738   -0.680572
     23          6           0       -2.780331   -1.302553   -0.648433
     24          6           0       -2.129171   -0.359263    0.144965
     25          6           0       -0.997951   -0.664308    0.900333
     26          6           0       -0.505109   -1.971753    0.852998
     27          1           0       -0.746759   -3.954058    0.035448
     28          1           0       -2.762324   -3.354283   -1.292408
     29          1           0       -3.656347   -1.014394   -1.216745
     30          1           0       -0.528801    0.105538    1.500878
     31          1           0        0.375423   -2.230698    1.434079
     32          7           0       -2.660178    1.021556    0.187033
     33          8           0       -2.068249    1.834306    0.893924
     34          8           0       -3.658254    1.264947   -0.487682
 ---------------------------------------------------------------------

 SCF Done:  E(RHF) =  -669.535282693     A.U. after   15 cycles
 E2 =    -0.2095181485D+01 EUMP2 =    -0.67163046417752D+03

 The electronic state is 1-A.
 Alpha  occ. eigenvalues --  -20.60965 -20.60944 -15.85980 -11.31330 -11.27907
 Alpha  occ. eigenvalues --  -11.27897 -11.27640 -11.26913 -11.26895 -11.21977
 Alpha  occ. eigenvalues --  -11.21538 -11.21520 -11.21379 -11.21160 -11.20095
 Alpha  occ. eigenvalues --   -1.60013  -1.39570  -1.19514  -1.08906  -1.08476
 Alpha  occ. eigenvalues --   -1.04911  -1.03438  -0.95866  -0.95732  -0.86882
 Alpha  occ. eigenvalues --   -0.86301  -0.82576  -0.79554  -0.78229  -0.77633
 Alpha  occ. eigenvalues --   -0.72217  -0.71345  -0.70617  -0.65178  -0.65168
 Alpha  occ. eigenvalues --   -0.64902  -0.62233  -0.60816  -0.59315  -0.57448
 Alpha  occ. eigenvalues --   -0.55404  -0.55158  -0.53238  -0.52995  -0.52509
 Alpha  occ. eigenvalues --   -0.52285  -0.49839  -0.48976  -0.48943  -0.47833
 Alpha  occ. eigenvalues --   -0.46627  -0.45773  -0.45690  -0.44884  -0.43692
 Alpha  occ. eigenvalues --   -0.37466  -0.36453
 Alpha virt. eigenvalues --    0.04868   0.11025   0.16257   0.19483   0.23219
 Alpha virt. eigenvalues --    0.23482   0.25738   0.26885   0.28029   0.28180
 Alpha virt. eigenvalues --    0.29747   0.29898   0.31543   0.31933   0.32218

 Mulliken charges:
               1
     1  C   -0.298501
     2  C   -0.301597
     3  C   -0.473408
     4  H    0.141232
     5  H    0.151641
     6  H    0.148924
     7  H    0.149873
     8  H    0.146690
     9  H    0.168462
    10  H    0.165788
    11  C   -0.303402
    12  C   -0.299052
    13  C   -0.474548
    14  H    0.149632
    15  H    0.151529
    16  H    0.144862
    17  H    0.155152
    18  H    0.158024
    19  H    0.148511
    20  H    0.160608
    21  C   -0.171263
    22  C   -0.218441
    23  C   -0.170468
    24  C    0.157845
    25  C   -0.171683
    26  C   -0.219556
    27  H    0.226626
    28  H    0.224216
    29  H    0.276197
    30  H    0.278786
    31  H    0.225708
    32  N    0.490694
    33  O   -0.460183
    34  O   -0.458898
 Sum of Mulliken charges =  -0.00000

 Dipole moment (field-independent basis, Debye):
    X=              1.6486    Y=             -4.7902    Z=             -0.1611  Tot=              5.0685
 Quadrupole moment (field-independent basis, Debye-Ang):
   XX=           -100.1360   YY=            -91.8905   ZZ=            -93.1773
   XY=             11.5736   XZ=              2.9110   YZ=             -0.1285

 Normal termination of Gaussian 16 at Thu May  6 15:40:11 2021.
