 Gaussian 16, Revision A.03,
 Gaussian 16:  EM64L-G16RevA.03 25-Dec-2016

 -------------
 #p 6-31g* mp2
 -------------

 ------------------------------------------------------
 Input file generated by CHIRIPA (05-May-2021 14:57:25)
 ------------------------------------------------------
 Symbolic Z-matrix:
 Charge =  0 Multiplicity = 1

                         Standard orientation:
 ---------------------------------------------------------------------
 Center     Atomic      Atomic             Coordinates (Angstroms)
 Number     Number       Type             X           Y           Z
 ---------------------------------------------------------------------
      1          6           0       -1.762841   -2.304241    0.113134
      2          6           0       -2.203357   -1.787732   -1.109848
      3          6           0       -2.990981   -0.633380   -1.150682
      4          6           0       -3.320842   -0.018270    0.056017
      5          6           0       -2.897322   -0.508556    1.290335
      6          6           0       -2.110617   -1.664132    1.307217
      7          1           0       -1.151353   -3.201445    0.135552
      8          1           0       -1.934809   -2.282755   -2.038762
      9          1           0       -3.345581   -0.212053   -2.083506
     10          1           0       -3.181238    0.006977    2.199750
     11          1           0       -1.769929   -2.063010    2.258466
     12          7           0       -4.154178    1.204439    0.025466
     13          8           0       -4.431098    1.727718    1.102560
     14          8           0       -4.514648    1.616366   -1.074995
     15          6           0        3.040703   -2.299028   -0.094211
     16          6           0        4.241372   -1.670468    0.251951
     17          6           0        4.331998   -0.275526    0.273663
     18          6           0        3.197303    0.463298   -0.057846
     19          6           0        1.986884   -0.133619   -0.406940
     20          6           0        1.919269   -1.529953   -0.421974
     21          1           0        2.979241   -3.383194   -0.108484
     22          1           0        5.113900   -2.265206    0.506955
     23          1           0        5.249018    0.236967    0.537942
     24          1           0        1.134043    0.485972   -0.656315
     25          1           0        0.985504   -2.015389   -0.691197
     26          7           0        3.281065    1.940798   -0.038395
     27          8           0        2.267096    2.569136   -0.334530
     28          8           0        4.359099    2.442545    0.272616
 ---------------------------------------------------------------------

 SCF Done:  E(RHF) =  -868.336243236     A.U. after   16 cycles
 E2 =    -0.2601367116D+01 EUMP2 =    -0.87093761035230D+03

 The electronic state is 1-A.
 Alpha  occ. eigenvalues --  -20.61111 -20.61104 -20.60967 -20.60958 -15.86173
 Alpha  occ. eigenvalues --  -15.86023 -11.31815 -11.31516 -11.28417 -11.28367
 Alpha  occ. eigenvalues --  -11.28305 -11.28100 -11.28090 -11.27929 -11.27568
 Alpha  occ. eigenvalues --  -11.27475 -11.27157 -11.27148  -1.60177  -1.60039
 Alpha  occ. eigenvalues --   -1.39723  -1.39588  -1.20034  -1.19712  -1.09412
 Alpha  occ. eigenvalues --   -1.09098  -1.05453  -1.05129  -0.96186  -0.95904
 Alpha  occ. eigenvalues --   -0.86853  -0.86540  -0.82999  -0.82721  -0.77964
 Alpha  occ. eigenvalues --   -0.77748  -0.72388  -0.72237  -0.71500  -0.71367
 Alpha  occ. eigenvalues --   -0.71209  -0.70843  -0.65691  -0.65481  -0.65367
 Alpha  occ. eigenvalues --   -0.65130  -0.62770  -0.62486  -0.56063  -0.55665
 Alpha  occ. eigenvalues --   -0.53873  -0.53538  -0.53453  -0.53130  -0.49168
 Alpha  occ. eigenvalues --   -0.49123  -0.49008  -0.48984  -0.45067  -0.44964
 Alpha  occ. eigenvalues --   -0.38101  -0.37715  -0.37075  -0.36685
 Alpha virt. eigenvalues --    0.04496   0.04805   0.10456   0.10913   0.15802
 Alpha virt. eigenvalues --    0.16307   0.19609   0.21790   0.25866   0.26751
 Alpha virt. eigenvalues --    0.27753   0.28697   0.30305   0.31014   0.31935

 Mulliken charges:
               1
     1  C   -0.178312
     2  C   -0.223489
     3  C   -0.170300
     4  C    0.160213
     5  C   -0.169544
     6  C   -0.216978
     7  H    0.220800
     8  H    0.223971
     9  H    0.279244
    10  H    0.279711
    11  H    0.226389
    12  N    0.488353
    13  O   -0.456882
    14  O   -0.457643
    15  C   -0.173036
    16  C   -0.218297
    17  C   -0.170703
    18  C    0.158923
    19  C   -0.172503
    20  C   -0.220511
    21  H    0.222162
    22  H    0.223957
    23  H    0.276886
    24  H    0.278619
    25  H    0.218601
    26  N    0.487827
    27  O   -0.457719
    28  O   -0.459738
 Sum of Mulliken charges =  -0.00000

 Dipole moment (field-independent basis, Debye):
    X=              2.4094    Y=             -9.2362    Z=              0.1361  Tot=              9.5462
 Quadrupole moment (field-independent basis, Debye-Ang):
   XX=           -121.3758   YY=           -111.1892   ZZ=           -100.0244
   XY=             -2.9395   XZ=              1.2790   YZ=              0.0717

 Normal termination of Gaussian 16 at Thu May  6 22:50:12 2021.
