 Gaussian 16, Revision A.03,
 Gaussian 16:  EM64L-G16RevA.03 25-Dec-2016

 -------------
 #p 6-31g* mp2
 -------------

 ------------------------------------------------------
 Input file generated by CHIRIPA (05-May-2021 14:53:18)
 ------------------------------------------------------
 Symbolic Z-matrix:
 Charge =  0 Multiplicity = 1

                         Standard orientation:
 ---------------------------------------------------------------------
 Center     Atomic      Atomic             Coordinates (Angstroms)
 Number     Number       Type             X           Y           Z
 ---------------------------------------------------------------------
      1          6           0        3.624200    0.684204   -0.564516
      2          6           0        3.010565    1.759543    0.332747
      3          6           0        2.616452    3.019216   -0.439064
      4          1           0        4.507657    1.097714   -1.069946
      5          1           0        2.906476    0.422014   -1.354151
      6          1           0        3.728694    2.018633    1.121277
      7          1           0        2.128578    1.343366    0.836247
      8          1           0        1.881558    2.781490   -1.214962
      9          1           0        3.490766    3.460593   -0.928312
     10          1           0        2.179927    3.774738    0.221611
     11          6           0        4.023342   -0.581180    0.192595
     12          6           0        4.636977   -1.656519   -0.704669
     13          6           0        5.031090   -2.916192    0.067143
     14          1           0        4.741066   -0.318990    0.982230
     15          1           0        3.139885   -0.994690    0.698025
     16          1           0        5.518964   -1.240342   -1.208168
     17          1           0        3.918847   -1.915609   -1.493198
     18          1           0        4.156776   -3.357569    0.556391
     19          1           0        5.765984   -2.678466    0.843040
     20          1           0        5.467615   -3.671714   -0.593533
     21          6           0       -0.954221    0.924282    1.286386
     22          6           0       -1.777975    0.022702    1.968371
     23          6           0       -2.907059   -0.518009    1.345998
     24          6           0       -3.183874   -0.133491    0.034964
     25          6           0       -2.382526    0.762521   -0.670936
     26          6           0       -1.258589    1.290668   -0.028773
     27          1           0       -0.079121    1.339440    1.777548
     28          1           0       -1.544045   -0.263639    2.989807
     29          1           0       -3.561882   -1.217972    1.850654
     30          1           0       -2.641482    1.028976   -1.688464
     31          1           0       -0.620643    1.990638   -0.560855
     32          7           0       -4.376460   -0.699267   -0.634391
     33          8           0       -4.598583   -0.344478   -1.789996
     34          8           0       -5.066503   -1.486799    0.009248
 ---------------------------------------------------------------------

 SCF Done:  E(RHF) =  -669.535345507     A.U. after   15 cycles
 E2 =    -0.2091927914D+01 EUMP2 =    -0.67162727342097D+03

 The electronic state is 1-A.
 Alpha  occ. eigenvalues --  -20.60765 -20.60760 -15.85818 -11.31188 -11.27753
 Alpha  occ. eigenvalues --  -11.27747 -11.27469 -11.26767 -11.26744 -11.22735
 Alpha  occ. eigenvalues --  -11.22266 -11.22211 -11.22117 -11.22036 -11.21492
 Alpha  occ. eigenvalues --   -1.59840  -1.39394  -1.19357  -1.09228  -1.08749
 Alpha  occ. eigenvalues --   -1.04760  -1.04340  -0.96776  -0.95587  -0.87793
 Alpha  occ. eigenvalues --   -0.86154  -0.82423  -0.80432  -0.78995  -0.77465
 Alpha  occ. eigenvalues --   -0.72036  -0.71164  -0.70491  -0.65891  -0.65004
 Alpha  occ. eigenvalues --   -0.64752  -0.62163  -0.61666  -0.60179  -0.58375
 Alpha  occ. eigenvalues --   -0.56059  -0.55284  -0.53483  -0.53201  -0.53085
 Alpha  occ. eigenvalues --   -0.52841  -0.50711  -0.48797  -0.48791  -0.48722
 Alpha  occ. eigenvalues --   -0.47455  -0.46540  -0.46428  -0.44798  -0.44568
 Alpha  occ. eigenvalues --   -0.37327  -0.36363
 Alpha virt. eigenvalues --    0.05042   0.11244   0.16458   0.19020   0.22681
 Alpha virt. eigenvalues --    0.23792   0.25054   0.25672   0.26799   0.28166
 Alpha virt. eigenvalues --    0.29119   0.29580   0.30984   0.31580   0.31970

 Mulliken charges:
               1
     1  C   -0.297948
     2  C   -0.305027
     3  C   -0.479821
     4  H    0.152841
     5  H    0.151101
     6  H    0.155964
     7  H    0.144595
     8  H    0.151621
     9  H    0.162881
    10  H    0.159605
    11  C   -0.298957
    12  C   -0.300423
    13  C   -0.476204
    14  H    0.150085
    15  H    0.149064
    16  H    0.153043
    17  H    0.153913
    18  H    0.155690
    19  H    0.155310
    20  H    0.162504
    21  C   -0.174950
    22  C   -0.219017
    23  C   -0.171090
    24  C    0.158799
    25  C   -0.171816
    26  C   -0.223293
    27  H    0.229985
    28  H    0.223602
    29  H    0.275548
    30  H    0.275763
    31  H    0.229445
    32  N    0.488033
    33  O   -0.460412
    34  O   -0.460432
 Sum of Mulliken charges =  -0.00000

 Dipole moment (field-independent basis, Debye):
    X=              4.4000    Y=              1.9595    Z=              2.3114  Tot=              5.3425
 Quadrupole moment (field-independent basis, Debye-Ang):
   XX=           -120.4755   YY=            -95.1269   ZZ=            -91.5366
   XY=             -5.5464   XZ=             -8.5991   YZ=             -2.3285

 Normal termination of Gaussian 16 at Wed May  5 17:16:46 2021.
