 Gaussian 16, Revision A.03,
 Gaussian 16:  EM64L-G16RevA.03 25-Dec-2016

 -------------
 #p 6-31g* mp2
 -------------

 ------------------------------------------------------
 Input file generated by CHIRIPA (05-May-2021 14:51:10)
 ------------------------------------------------------
 Symbolic Z-matrix:
 Charge =  0 Multiplicity = 1

                         Standard orientation:
 ---------------------------------------------------------------------
 Center     Atomic      Atomic             Coordinates (Angstroms)
 Number     Number       Type             X           Y           Z
 ---------------------------------------------------------------------
      1          6           0        2.485886   -0.328518   -0.640168
      2          6           0        3.564237   -1.394997   -0.834504
      3          6           0        3.010618   -2.696481   -1.415400
      4          1           0        1.703462   -0.723712    0.022086
      5          1           0        2.003852   -0.124135   -1.606225
      6          1           0        4.045035   -1.596308    0.131375
      7          1           0        4.344279   -0.997149   -1.496219
      8          1           0        2.548051   -2.516729   -2.391270
      9          1           0        2.247107   -3.119292   -0.754428
     10          1           0        3.798422   -3.444912   -1.546073
     11          6           0        3.023876    0.978345   -0.060166
     12          6           0        1.945525    2.044825    0.134170
     13          6           0        2.499144    3.346308    0.715066
     14          1           0        3.505910    0.773962    0.905891
     15          1           0        3.806299    1.373540   -0.722419
     16          1           0        1.165482    1.646977    0.795885
     17          1           0        1.464726    2.246135   -0.831709
     18          1           0        3.262655    3.769119    0.054095
     19          1           0        2.961710    3.166556    1.690936
     20          1           0        1.711339    4.094739    0.845739
     21          6           0       -2.898858    0.078293   -0.282389
     22          6           0       -4.383050    0.124902   -0.647060
     23          6           0       -4.655130    0.935186   -1.914817
     24          1           0       -2.527855    1.103909   -0.150427
     25          1           0       -2.335532   -0.352290   -1.121828
     26          1           0       -4.943581    0.553992    0.193358
     27          1           0       -4.750610   -0.900953   -0.777982
     28          1           0       -4.121370    0.505452   -2.768650
     29          1           0       -4.315437    1.968663   -1.791791
     30          1           0       -5.722259    0.955385   -2.157074
     31          6           0       -2.610904   -0.728120    0.982723
     32          6           0       -1.126711   -0.774729    1.347394
     33          6           0       -0.854632   -1.585013    2.615151
     34          1           0       -3.174229   -0.297537    1.822162
     35          1           0       -2.981907   -1.753736    0.850761
     36          1           0       -0.759152    0.251125    1.478315
     37          1           0       -0.566180   -1.203819    0.506976
     38          1           0       -1.194324   -2.618491    2.492125
     39          1           0       -1.388392   -1.155280    3.468983
     40          1           0        0.212497   -1.605213    2.857408
 ---------------------------------------------------------------------

 SCF Done:  E(RHF) =  -470.732708887     A.U. after   11 cycles
 E2 =    -0.1583982974D+01 EUMP2 =    -0.47231669186158D+03

 The electronic state is 1-A.
 Alpha  occ. eigenvalues --  -11.21619 -11.21602 -11.21576 -11.21549 -11.21414
 Alpha  occ. eigenvalues --  -11.21354 -11.21351 -11.21276 -11.21141 -11.21078
 Alpha  occ. eigenvalues --  -11.21072 -11.21054  -1.08465  -1.08379  -1.03561
 Alpha  occ. eigenvalues --   -1.03507  -0.96010  -0.95954  -0.87021  -0.86975
 Alpha  occ. eigenvalues --   -0.79664  -0.79569  -0.78418  -0.78036  -0.65088
 Alpha  occ. eigenvalues --   -0.65036  -0.61069  -0.60811  -0.59388  -0.59320
 Alpha  occ. eigenvalues --   -0.57661  -0.57533  -0.55311  -0.55226  -0.52712
 Alpha  occ. eigenvalues --   -0.52650  -0.52430  -0.52390  -0.50016  -0.49849
 Alpha  occ. eigenvalues --   -0.48067  -0.47930  -0.46869  -0.46399  -0.46182
 Alpha  occ. eigenvalues --   -0.45706  -0.45643  -0.45158  -0.43801  -0.43746
 Alpha virt. eigenvalues --    0.21102   0.23151   0.23525   0.24151   0.25815
 Alpha virt. eigenvalues --    0.26462   0.26743   0.27696   0.28125   0.29680
 Alpha virt. eigenvalues --    0.29840   0.31594   0.31774   0.31928   0.32095

 Mulliken charges:
               1
     1  C   -0.307165
     2  C   -0.298954
     3  C   -0.475957
     4  H    0.160461
     5  H    0.148687
     6  H    0.151562
     7  H    0.151794
     8  H    0.154958
     9  H    0.154610
    10  H    0.160397
    11  C   -0.297368
    12  C   -0.306011
    13  C   -0.475299
    14  H    0.148826
    15  H    0.149404
    16  H    0.158102
    17  H    0.151879
    18  H    0.155184
    19  H    0.154930
    20  H    0.159697
    21  C   -0.298503
    22  C   -0.299677
    23  C   -0.475697
    24  H    0.149959
    25  H    0.149951
    26  H    0.151863
    27  H    0.151943
    28  H    0.155183
    29  H    0.155200
    30  H    0.160243
    31  C   -0.297171
    32  C   -0.309390
    33  C   -0.476589
    34  H    0.149323
    35  H    0.149659
    36  H    0.156994
    37  H    0.156053
    38  H    0.155596
    39  H    0.155691
    40  H    0.159634
 Sum of Mulliken charges =  -0.00000

 Dipole moment (field-independent basis, Debye):
    X=             -0.0327    Y=             -0.0078    Z=              0.0040  Tot=              0.0339
 Quadrupole moment (field-independent basis, Debye-Ang):
   XX=            -85.0727   YY=            -85.3314   ZZ=            -84.5720
   XY=             -0.1052   XZ=             -0.6380   YZ=              0.2268

 Normal termination of Gaussian 16 at Thu May  6 05:22:33 2021.
