 Gaussian 16, Revision A.03,
 Gaussian 16:  EM64L-G16RevA.03 25-Dec-2016

 -------------
 #p 6-31g* mp2
 -------------

 ------------------------------------------------------
 Input file generated by CHIRIPA (05-May-2021 14:51:12)
 ------------------------------------------------------
 Symbolic Z-matrix:
 Charge =  0 Multiplicity = 1

                         Standard orientation:
 ---------------------------------------------------------------------
 Center     Atomic      Atomic             Coordinates (Angstroms)
 Number     Number       Type             X           Y           Z
 ---------------------------------------------------------------------
      1          6           0        5.374281   -0.058482    0.203105
      2          6           0        5.986598   -1.349159   -0.342062
      3          6           0        7.408260   -1.589878    0.166589
      4          1           0        6.013836    0.789899   -0.076471
      5          1           0        5.370020   -0.098165    1.301195
      6          1           0        5.988435   -1.307642   -1.438825
      7          1           0        5.345410   -2.194545   -0.061319
      8          1           0        7.420165   -1.657685    1.259229
      9          1           0        8.066844   -0.765742   -0.126103
     10          1           0        7.826772   -2.517801   -0.235488
     11          6           0        3.953206    0.196020   -0.296398
     12          6           0        3.340889    1.486696    0.248769
     13          6           0        1.919227    1.727415   -0.259882
     14          1           0        3.957467    0.235703   -1.394488
     15          1           0        3.313651   -0.652362   -0.016822
     16          1           0        3.982077    2.332082   -0.031974
     17          1           0        3.339052    1.445179    1.345532
     18          1           0        1.260643    0.903280    0.032810
     19          1           0        1.907322    1.795222   -1.352522
     20          1           0        1.500715    2.655338    0.142195
     21          6           0       -3.961147   -0.082878    0.345965
     22          6           0       -3.027599    0.972288   -0.248254
     23          6           0       -1.625686    0.931505    0.360653
     24          1           0       -4.027310    0.065394    1.432511
     25          1           0       -3.522556   -1.078612    0.192514
     26          1           0       -3.468487    1.965632   -0.094952
     27          1           0       -2.963802    0.821605   -1.333537
     28          1           0       -1.162140   -0.046436    0.195251
     29          1           0       -1.669693    1.104091    1.440874
     30          1           0       -0.974903    1.694054   -0.078507
     31          6           0       -5.366340   -0.054659   -0.252672
     32          6           0       -6.299888   -1.109825    0.341547
     33          6           0       -7.701802   -1.069042   -0.267360
     34          1           0       -5.804932    0.941075   -0.099221
     35          1           0       -5.300177   -0.202932   -1.339219
     36          1           0       -6.363686   -0.959142    1.426830
     37          1           0       -5.859000   -2.103169    0.188245
     38          1           0       -7.657794   -1.241628   -1.347581
     39          1           0       -8.165348   -0.091101   -0.101958
     40          1           0       -8.352584   -1.831592    0.171800
 ---------------------------------------------------------------------

 SCF Done:  E(RHF) =  -470.732058170     A.U. after   11 cycles
 E2 =    -0.1582786708D+01 EUMP2 =    -0.47231484487825D+03

 The electronic state is 1-A.
 Alpha  occ. eigenvalues --  -11.21581 -11.21581 -11.21532 -11.21524 -11.21370
 Alpha  occ. eigenvalues --  -11.21369 -11.21310 -11.21309 -11.21055 -11.21055
 Alpha  occ. eigenvalues --  -11.20941 -11.20926  -1.08400  -1.08381  -1.03529
 Alpha  occ. eigenvalues --   -1.03444  -0.96045  -0.95840  -0.87140  -0.86792
 Alpha  occ. eigenvalues --   -0.79699  -0.79419  -0.78226  -0.78183  -0.65038
 Alpha  occ. eigenvalues --   -0.65009  -0.60953  -0.60841  -0.59455  -0.59188
 Alpha  occ. eigenvalues --   -0.57552  -0.57546  -0.55350  -0.55136  -0.53023
 Alpha  occ. eigenvalues --   -0.52522  -0.52326  -0.52120  -0.49985  -0.49733
 Alpha  occ. eigenvalues --   -0.47871  -0.47855  -0.46657  -0.46503  -0.45774
 Alpha  occ. eigenvalues --   -0.45730  -0.45683  -0.45640  -0.43889  -0.43508
 Alpha virt. eigenvalues --    0.22711   0.22943   0.23804   0.24647   0.26353
 Alpha virt. eigenvalues --    0.26752   0.26999   0.27389   0.27644   0.29084
 Alpha virt. eigenvalues --    0.29524   0.31076   0.31635   0.31786   0.32303

 Mulliken charges:
               1
     1  C   -0.298229
     2  C   -0.299591
     3  C   -0.475677
     4  H    0.149608
     5  H    0.149490
     6  H    0.151831
     7  H    0.151836
     8  H    0.155164
     9  H    0.155150
    10  H    0.160153
    11  C   -0.298398
    12  C   -0.300082
    13  C   -0.480950
    14  H    0.149276
    15  H    0.149451
    16  H    0.151160
    17  H    0.151765
    18  H    0.164770
    19  H    0.153953
    20  H    0.158778
    21  C   -0.298551
    22  C   -0.299822
    23  C   -0.480651
    24  H    0.149372
    25  H    0.149246
    26  H    0.151502
    27  H    0.151796
    28  H    0.153065
    29  H    0.154196
    30  H    0.170685
    31  C   -0.298182
    32  C   -0.299565
    33  C   -0.475670
    34  H    0.149437
    35  H    0.149568
    36  H    0.151845
    37  H    0.151822
    38  H    0.155146
    39  H    0.155147
    40  H    0.160155
 Sum of Mulliken charges =  -0.00000

 Dipole moment (field-independent basis, Debye):
    X=             -0.0037    Y=              0.0099    Z=             -0.0004  Tot=              0.0106
 Quadrupole moment (field-independent basis, Debye-Ang):
   XX=            -87.1039   YY=            -84.2167   ZZ=            -83.8338
   XY=              0.1486   XZ=             -1.1402   YZ=              0.1292

 Normal termination of Gaussian 16 at Wed May  5 18:19:01 2021.
