 Gaussian 16, Revision A.03,
 Gaussian 16:  EM64L-G16RevA.03 25-Dec-2016

 -------------
 #p 6-31g* mp2
 -------------

 ------------------------------------------------------
 Input file generated by CHIRIPA (05-May-2021 14:51:09)
 ------------------------------------------------------
 Symbolic Z-matrix:
 Charge =  0 Multiplicity = 1

                         Standard orientation:
 ---------------------------------------------------------------------
 Center     Atomic      Atomic             Coordinates (Angstroms)
 Number     Number       Type             X           Y           Z
 ---------------------------------------------------------------------
      1          6           0       -3.282929    0.271872   -0.053930
      2          6           0       -2.135060   -0.025679    0.911392
      3          6           0       -0.853007    0.727613    0.555462
      4          1           0       -2.972786    0.008924   -1.074525
      5          1           0       -3.480224    1.352828   -0.055923
      6          1           0       -1.940907   -1.105919    0.912603
      7          1           0       -2.448039    0.237829    1.929834
      8          1           0       -1.023955    1.808846    0.573159
      9          1           0       -0.513941    0.457463   -0.449851
     10          1           0       -0.045487    0.500261    1.258372
     11          6           0       -4.571419   -0.473833    0.288771
     12          6           0       -5.719288   -0.176282   -0.676550
     13          6           0       -7.001341   -0.929574   -0.320620
     14          1           0       -4.374123   -1.554789    0.290764
     15          1           0       -4.881561   -0.210885    1.309367
     16          1           0       -5.406309   -0.439790   -1.694992
     17          1           0       -5.913441    0.903958   -0.677762
     18          1           0       -7.340406   -0.659423    0.684693
     19          1           0       -6.830393   -2.010807   -0.338317
     20          1           0       -7.808860   -0.702222   -1.023531
     21          6           0        3.984085    0.859846   -0.183117
     22          6           0        2.640593    1.580860   -0.068422
     23          6           0        2.770837    3.098429   -0.201884
     24          1           0        4.664487    1.240384    0.590955
     25          1           0        4.442831    1.105724   -1.150842
     26          1           0        2.183879    1.332595    0.898218
     27          1           0        1.963247    1.198424   -0.842735
     28          1           0        3.203431    3.364132   -1.171866
     29          1           0        3.425317    3.499065    0.578980
     30          1           0        1.798620    3.593832   -0.116853
     31          6           0        3.870262   -0.657885   -0.051724
     32          6           0        5.213755   -1.378899   -0.166420
     33          6           0        5.083510   -2.896469   -0.032958
     34          1           0        3.411516   -0.903763    0.916000
     35          1           0        3.189860   -1.038423   -0.825797
     36          1           0        5.891101   -0.996463    0.607894
     37          1           0        5.670468   -1.130634   -1.133060
     38          1           0        4.429030   -3.297104   -0.813822
     39          1           0        4.650916   -3.162171    0.937023
     40          1           0        6.055728   -3.391871   -0.117989
 ---------------------------------------------------------------------

 SCF Done:  E(RHF) =  -470.732354646     A.U. after   11 cycles
 E2 =    -0.1583111095D+01 EUMP2 =    -0.47231546574126D+03

 The electronic state is 1-A.
 Alpha  occ. eigenvalues --  -11.21592 -11.21578 -11.21548 -11.21442 -11.21386
 Alpha  occ. eigenvalues --  -11.21357 -11.21327 -11.21281 -11.21064 -11.21058
 Alpha  occ. eigenvalues --  -11.20986 -11.20985  -1.08415  -1.08366  -1.03538
 Alpha  occ. eigenvalues --   -1.03434  -0.95985  -0.95896  -0.87022  -0.86901
 Alpha  occ. eigenvalues --   -0.79738  -0.79389  -0.78265  -0.78121  -0.65051
 Alpha  occ. eigenvalues --   -0.65001  -0.60949  -0.60842  -0.59467  -0.59166
 Alpha  occ. eigenvalues --   -0.57572  -0.57528  -0.55267  -0.55197  -0.52756
 Alpha  occ. eigenvalues --   -0.52568  -0.52385  -0.52320  -0.49951  -0.49833
 Alpha  occ. eigenvalues --   -0.47920  -0.47819  -0.46674  -0.46484  -0.45842
 Alpha  occ. eigenvalues --   -0.45705  -0.45687  -0.45557  -0.43774  -0.43613
 Alpha virt. eigenvalues --    0.22008   0.23063   0.23679   0.24716   0.25618
 Alpha virt. eigenvalues --    0.26354   0.26654   0.27531   0.27863   0.29195
 Alpha virt. eigenvalues --    0.29977   0.30799   0.31208   0.32202   0.32406

 Mulliken charges:
               1
     1  C   -0.298509
     2  C   -0.300947
     3  C   -0.474422
     4  H    0.149347
     5  H    0.149318
     6  H    0.151734
     7  H    0.151373
     8  H    0.154179
     9  H    0.155588
    10  H    0.162426
    11  C   -0.298175
    12  C   -0.299582
    13  C   -0.475682
    14  H    0.149474
    15  H    0.149591
    16  H    0.151848
    17  H    0.151875
    18  H    0.155159
    19  H    0.155162
    20  H    0.160201
    21  C   -0.298124
    22  C   -0.301297
    23  C   -0.476353
    24  H    0.148993
    25  H    0.148899
    26  H    0.154739
    27  H    0.154559
    28  H    0.154550
    29  H    0.154464
    30  H    0.160630
    31  C   -0.297978
    32  C   -0.299510
    33  C   -0.475641
    34  H    0.148810
    35  H    0.149243
    36  H    0.151900
    37  H    0.151905
    38  H    0.155014
    39  H    0.155069
    40  H    0.160172
 Sum of Mulliken charges =  -0.00000

 Dipole moment (field-independent basis, Debye):
    X=             -0.0057    Y=              0.0035    Z=              0.0020  Tot=              0.0070
 Quadrupole moment (field-independent basis, Debye-Ang):
   XX=            -85.9995   YY=            -85.7063   ZZ=            -83.4204
   XY=             -0.6514   XZ=              0.1009   YZ=              0.7166

 Normal termination of Gaussian 16 at Thu May  6 00:34:35 2021.
