 Gaussian 16, Revision A.03,
 Gaussian 16:  EM64L-G16RevA.03 25-Dec-2016

 -------------
 #p 6-31g* mp2
 -------------

 ------------------------------------------------------
 Input file generated by CHIRIPA (05-May-2021 14:51:07)
 ------------------------------------------------------
 Symbolic Z-matrix:
 Charge =  0 Multiplicity = 1

                         Standard orientation:
 ---------------------------------------------------------------------
 Center     Atomic      Atomic             Coordinates (Angstroms)
 Number     Number       Type             X           Y           Z
 ---------------------------------------------------------------------
      1          6           0        2.954931   -0.822553   -0.419072
      2          6           0        1.606930   -1.442512   -0.788573
      3          6           0        1.731028   -2.894447   -1.251474
      4          1           0        3.626199   -0.876059   -1.287105
      5          1           0        3.421510   -1.422723    0.374335
      6          1           0        1.142404   -0.840560   -1.580081
      7          1           0        0.938730   -1.387352    0.080382
      8          1           0        2.171382   -3.513758   -0.463347
      9          1           0        2.376213   -2.963859   -2.133244
     10          1           0        0.755657   -3.317974   -1.510582
     11          6           0        2.847275    0.628719    0.045628
     12          6           0        4.195275    1.248678    0.415129
     13          6           0        4.071178    2.700613    0.878030
     14          1           0        2.380695    1.228889   -0.747779
     15          1           0        2.176007    0.682225    0.913661
     16          1           0        4.863476    1.193517   -0.453826
     17          1           0        4.659801    0.646726    1.206637
     18          1           0        3.425992    2.770025    1.759800
     19          1           0        3.630824    3.319923    0.089903
     20          1           0        5.046549    3.124140    1.137138
     21          6           0       -3.001886    0.596787   -0.381965
     22          6           0       -3.472459    1.971187    0.095079
     23          6           0       -3.669596    2.960242   -1.054138
     24          1           0       -2.059691    0.710590   -0.935374
     25          1           0       -3.735292    0.192372   -1.093274
     26          1           0       -2.739073    2.372287    0.806331
     27          1           0       -4.413544    1.854074    0.647580
     28          1           0       -4.416764    2.585389   -1.761122
     29          1           0       -2.732779    3.106544   -1.601469
     30          1           0       -4.006095    3.936192   -0.690612
     31          6           0       -2.800320   -0.402953    0.755409
     32          6           0       -2.329747   -1.777353    0.278366
     33          6           0       -2.132609   -2.766408    1.427583
     34          1           0       -2.066915    0.001463    1.466718
     35          1           0       -3.742516   -0.516756    1.308817
     36          1           0       -1.388661   -1.660240   -0.274137
     37          1           0       -3.063132   -2.178452   -0.432887
     38          1           0       -3.069427   -2.912710    1.974912
     39          1           0       -1.385441   -2.391555    2.134565
     40          1           0       -1.796110   -3.742358    1.064056
 ---------------------------------------------------------------------

 SCF Done:  E(RHF) =  -470.733124206     A.U. after   11 cycles
 E2 =    -0.1583352494D+01 EUMP2 =    -0.47231647669989D+03

 The electronic state is 1-A.
 Alpha  occ. eigenvalues --  -11.21665 -11.21647 -11.21576 -11.21504 -11.21465
 Alpha  occ. eigenvalues --  -11.21405 -11.21371 -11.21312 -11.21119 -11.21111
 Alpha  occ. eigenvalues --  -11.21060 -11.21054  -1.08497  -1.08389  -1.03608
 Alpha  occ. eigenvalues --   -1.03480  -0.96036  -0.95948  -0.87046  -0.86968
 Alpha  occ. eigenvalues --   -0.79717  -0.79515  -0.78354  -0.78160  -0.65184
 Alpha  occ. eigenvalues --   -0.64981  -0.61126  -0.60798  -0.59459  -0.59251
 Alpha  occ. eigenvalues --   -0.57699  -0.57497  -0.55339  -0.55212  -0.52729
 Alpha  occ. eigenvalues --   -0.52639  -0.52456  -0.52377  -0.49984  -0.49889
 Alpha  occ. eigenvalues --   -0.48086  -0.47815  -0.46795  -0.46503  -0.45990
 Alpha  occ. eigenvalues --   -0.45774  -0.45711  -0.45440  -0.43838  -0.43748
 Alpha virt. eigenvalues --    0.20691   0.23206   0.23488   0.24727   0.25902
 Alpha virt. eigenvalues --    0.26326   0.26865   0.27690   0.28389   0.29103
 Alpha virt. eigenvalues --    0.30496   0.30951   0.31507   0.31757   0.32637

 Mulliken charges:
               1
     1  C   -0.297710
     2  C   -0.304056
     3  C   -0.477384
     4  H    0.149893
     5  H    0.149839
     6  H    0.151683
     7  H    0.155412
     8  H    0.155669
     9  H    0.155605
    10  H    0.161816
    11  C   -0.298324
    12  C   -0.299682
    13  C   -0.475752
    14  H    0.149301
    15  H    0.149129
    16  H    0.152157
    17  H    0.152112
    18  H    0.155127
    19  H    0.155209
    20  H    0.160490
    21  C   -0.298627
    22  C   -0.299625
    23  C   -0.475659
    24  H    0.150224
    25  H    0.149333
    26  H    0.152002
    27  H    0.151828
    28  H    0.155078
    29  H    0.155073
    30  H    0.160188
    31  C   -0.297734
    32  C   -0.309503
    33  C   -0.475818
    34  H    0.148768
    35  H    0.149498
    36  H    0.163155
    37  H    0.151460
    38  H    0.155265
    39  H    0.154169
    40  H    0.160391
 Sum of Mulliken charges =  -0.00000

 Dipole moment (field-independent basis, Debye):
    X=              0.0401    Y=             -0.0090    Z=             -0.0156  Tot=              0.0440
 Quadrupole moment (field-independent basis, Debye-Ang):
   XX=            -83.8962   YY=            -86.3911   ZZ=            -84.5053
   XY=              0.3779   XZ=             -0.1744   YZ=             -0.0235

 Normal termination of Gaussian 16 at Thu May  6 09:58:53 2021.
