 Gaussian 16, Revision A.03,
 Gaussian 16:  EM64L-G16RevA.03 25-Dec-2016

 -------------
 #p 6-31g* mp2
 -------------

 ------------------------------------------------------
 Input file generated by CHIRIPA (05-May-2021 14:51:12)
 ------------------------------------------------------
 Symbolic Z-matrix:
 Charge =  0 Multiplicity = 1

                         Standard orientation:
 ---------------------------------------------------------------------
 Center     Atomic      Atomic             Coordinates (Angstroms)
 Number     Number       Type             X           Y           Z
 ---------------------------------------------------------------------
      1          6           0       -2.606973    0.980933    0.091545
      2          6           0       -3.136091    2.404222   -0.088085
      3          6           0       -2.181923    3.463703    0.464056
      4          1           0       -2.428588    0.794930    1.159500
      5          1           0       -1.632155    0.893830   -0.407993
      6          1           0       -4.110261    2.488226    0.410464
      7          1           0       -3.313418    2.586794   -1.155717
      8          1           0       -1.211778    3.408798   -0.040329
      9          1           0       -2.013149    3.309670    1.534752
     10          1           0       -2.579811    4.473783    0.325188
     11          6           0       -3.549752   -0.089419   -0.455485
     12          6           0       -3.020634   -1.512708   -0.275855
     13          6           0       -3.974801   -2.572189   -0.827996
     14          1           0       -4.524569   -0.002317    0.044054
     15          1           0       -3.728136    0.096584   -1.523440
     16          1           0       -2.843307   -1.695280    0.791777
     17          1           0       -2.046464   -1.596712   -0.774404
     18          1           0       -4.143576   -2.418157   -1.898692
     19          1           0       -4.944947   -2.517284   -0.323611
     20          1           0       -3.576914   -3.582269   -0.689127
     21          6           0        2.666741   -1.059506    0.375131
     22          6           0        1.241976   -0.720339    0.814442
     23          6           0        0.430975   -1.958553    1.197715
     24          1           0        2.625909   -1.751189   -0.477426
     25          1           0        3.175951   -1.595268    1.188187
     26          1           0        0.736055   -0.184158    0.001318
     27          1           0        1.286202   -0.029233    1.665931
     28          1           0        0.910429   -2.492319    2.024648
     29          1           0        0.357156   -2.648124    0.350577
     30          1           0       -0.584297   -1.693100    1.508552
     31          6           0        3.489984    0.167993   -0.011191
     32          6           0        4.914749   -0.171176   -0.450503
     33          6           0        5.725750    1.067039   -0.833775
     34          1           0        2.980774    0.703755   -0.824247
     35          1           0        3.530815    0.859675    0.841367
     36          1           0        4.870523   -0.862281   -1.301992
     37          1           0        5.420670   -0.707356    0.362622
     38          1           0        5.799569    1.756610    0.013362
     39          1           0        5.246296    1.600805   -1.660708
     40          1           0        6.741020    0.801586   -1.144612
 ---------------------------------------------------------------------

 SCF Done:  E(RHF) =  -470.732197817     A.U. after   11 cycles
 E2 =    -0.1584140744D+01 EUMP2 =    -0.47231633856047D+03

 The electronic state is 1-A.
 Alpha  occ. eigenvalues --  -11.21607 -11.21587 -11.21557 -11.21528 -11.21405
 Alpha  occ. eigenvalues --  -11.21375 -11.21345 -11.21312 -11.21067 -11.21061
 Alpha  occ. eigenvalues --  -11.21054 -11.20905  -1.08455  -1.08375  -1.03548
 Alpha  occ. eigenvalues --   -1.03459  -0.95976  -0.95930  -0.87036  -0.86909
 Alpha  occ. eigenvalues --   -0.79707  -0.79438  -0.78301  -0.78169  -0.65136
 Alpha  occ. eigenvalues --   -0.64966  -0.60957  -0.60863  -0.59504  -0.59166
 Alpha  occ. eigenvalues --   -0.57603  -0.57531  -0.55265  -0.55224  -0.52796
 Alpha  occ. eigenvalues --   -0.52572  -0.52411  -0.52300  -0.49973  -0.49835
 Alpha  occ. eigenvalues --   -0.48061  -0.47706  -0.46697  -0.46511  -0.45942
 Alpha  occ. eigenvalues --   -0.45741  -0.45705  -0.45432  -0.43795  -0.43654
 Alpha virt. eigenvalues --    0.21090   0.23208   0.23805   0.24220   0.24886
 Alpha virt. eigenvalues --    0.26174   0.27067   0.27648   0.27994   0.29443
 Alpha virt. eigenvalues --    0.30458   0.31345   0.31689   0.32013   0.32277

 Mulliken charges:
               1
     1  C   -0.302610
     2  C   -0.299492
     3  C   -0.475586
     4  H    0.149601
     5  H    0.153786
     6  H    0.151947
     7  H    0.151818
     8  H    0.155334
     9  H    0.155210
    10  H    0.160179
    11  C   -0.298103
    12  C   -0.302844
    13  C   -0.475453
    14  H    0.149296
    15  H    0.149247
    16  H    0.153283
    17  H    0.155832
    18  H    0.154790
    19  H    0.154954
    20  H    0.160469
    21  C   -0.298165
    22  C   -0.302693
    23  C   -0.479270
    24  H    0.149143
    25  H    0.149515
    26  H    0.154099
    27  H    0.151787
    28  H    0.153543
    29  H    0.153704
    30  H    0.167202
    31  C   -0.298073
    32  C   -0.299579
    33  C   -0.475671
    34  H    0.148820
    35  H    0.149768
    36  H    0.151801
    37  H    0.151966
    38  H    0.155223
    39  H    0.155028
    40  H    0.160195
 Sum of Mulliken charges =  -0.00000

 Dipole moment (field-independent basis, Debye):
    X=             -0.0347    Y=              0.0031    Z=              0.0030  Tot=              0.0350
 Quadrupole moment (field-independent basis, Debye-Ang):
   XX=            -85.4623   YY=            -86.2427   ZZ=            -83.2219
   XY=             -0.9650   XZ=             -0.1314   YZ=             -0.0079

 Normal termination of Gaussian 16 at Wed May  5 18:18:46 2021.
