 Gaussian 16, Revision A.03,
 Gaussian 16:  EM64L-G16RevA.03 25-Dec-2016

 -------------
 #p 6-31g* mp2
 -------------

 ------------------------------------------------------
 Input file generated by CHIRIPA (05-May-2021 14:57:24)
 ------------------------------------------------------
 Symbolic Z-matrix:
 Charge =  0 Multiplicity = 1

                         Standard orientation:
 ---------------------------------------------------------------------
 Center     Atomic      Atomic             Coordinates (Angstroms)
 Number     Number       Type             X           Y           Z
 ---------------------------------------------------------------------
      1          6           0       -4.365278    1.615502    0.920482
      2          6           0       -3.042615    1.929416    0.591025
      3          6           0       -2.205323    0.966224    0.020281
      4          6           0       -2.725869   -0.306596   -0.208307
      5          6           0       -4.039162   -0.649973    0.108939
      6          6           0       -4.858461    0.329078    0.678813
      7          1           0       -5.008719    2.369893    1.363512
      8          1           0       -2.656905    2.927650    0.777580
      9          1           0       -1.177383    1.182230   -0.244480
     10          1           0       -4.395222   -1.653713   -0.088912
     11          1           0       -5.885241    0.082456    0.933656
     12          7           0       -1.848989   -1.334679   -0.812068
     13          8           0       -2.331597   -2.448730   -1.003421
     14          8           0       -0.695687   -1.006972   -1.082510
     15          6           0        2.950895   -2.046722    1.369801
     16          6           0        3.109425   -0.837077    2.054016
     17          6           0        3.066609    0.378959    1.365561
     18          6           0        2.862606    0.348284   -0.013109
     19          6           0        2.701296   -0.840510   -0.723065
     20          6           0        2.747695   -2.044581   -0.014116
     21          1           0        2.985547   -2.986720    1.912569
     22          1           0        3.267375   -0.835706    3.128769
     23          1           0        3.186369    1.329899    1.870326
     24          1           0        2.545352   -0.809904   -1.794589
     25          1           0        2.624268   -2.982488   -0.548100
     26          7           0        2.815382    1.629314   -0.752794
     27          8           0        2.634381    1.575297   -1.967272
     28          8           0        2.960265    2.663146   -0.104075
 ---------------------------------------------------------------------

 SCF Done:  E(RHF) =  -868.339294211     A.U. after   16 cycles
 E2 =    -0.2599716689D+01 EUMP2 =    -0.87093901089935D+03

 The electronic state is 1-A.
 Alpha  occ. eigenvalues --  -20.60989 -20.60966 -20.60288 -20.60244 -15.86012
 Alpha  occ. eigenvalues --  -15.85310 -11.31203 -11.30369 -11.27778 -11.27710
 Alpha  occ. eigenvalues --  -11.27474 -11.27035 -11.26829 -11.26759 -11.26687
 Alpha  occ. eigenvalues --  -11.26676 -11.25992 -11.25774  -1.60049  -1.59357
 Alpha  occ. eigenvalues --   -1.39607  -1.38912  -1.19362  -1.18540  -1.08795
 Alpha  occ. eigenvalues --   -1.08009  -1.04733  -1.03889  -0.95660  -0.94884
 Alpha  occ. eigenvalues --   -0.86142  -0.85324  -0.82495  -0.81718  -0.77558
 Alpha  occ. eigenvalues --   -0.76788  -0.72268  -0.71535  -0.71356  -0.70680
 Alpha  occ. eigenvalues --   -0.70471  -0.69682  -0.65018  -0.64732  -0.64205
 Alpha  occ. eigenvalues --   -0.63915  -0.62076  -0.61249  -0.55253  -0.54462
 Alpha  occ. eigenvalues --   -0.53082  -0.52818  -0.52235  -0.51998  -0.49015
 Alpha  occ. eigenvalues --   -0.48992  -0.48304  -0.48267  -0.45045  -0.44381
 Alpha  occ. eigenvalues --   -0.37345  -0.36542  -0.36330  -0.35402
 Alpha virt. eigenvalues --    0.04944   0.05733   0.11324   0.12198   0.16475
 Alpha virt. eigenvalues --    0.17269   0.21462   0.22227   0.27376   0.28147
 Alpha virt. eigenvalues --    0.28266   0.29093   0.30950   0.31708   0.32435

 Mulliken charges:
               1
     1  C   -0.170565
     2  C   -0.219290
     3  C   -0.169807
     4  C    0.157402
     5  C   -0.171360
     6  C   -0.218884
     7  H    0.226156
     8  H    0.227586
     9  H    0.278292
    10  H    0.274369
    11  H    0.223038
    12  N    0.491462
    13  O   -0.462782
    14  O   -0.465327
    15  C   -0.171477
    16  C   -0.220184
    17  C   -0.174711
    18  C    0.152170
    19  C   -0.150801
    20  C   -0.213330
    21  H    0.223273
    22  H    0.218683
    23  H    0.270047
    24  H    0.279570
    25  H    0.226925
    26  N    0.486257
    27  O   -0.458562
    28  O   -0.468150
 Sum of Mulliken charges =  -0.00000

 Dipole moment (field-independent basis, Debye):
    X=             -3.0747    Y=             -1.0410    Z=              4.5258  Tot=              5.5696
 Quadrupole moment (field-independent basis, Debye-Ang):
   XX=            -85.7316   YY=           -107.6287   ZZ=           -103.3472
   XY=            -19.6476   XZ=              2.1230   YZ=              2.0485

 Normal termination of Gaussian 16 at Wed May  5 17:55:50 2021.
