 Gaussian 16, Revision A.03,
 Gaussian 16:  EM64L-G16RevA.03 25-Dec-2016

 -------------
 #p 6-31g* mp2
 -------------

 ------------------------------------------------------
 Input file generated by CHIRIPA (05-May-2021 14:57:22)
 ------------------------------------------------------
 Symbolic Z-matrix:
 Charge =  0 Multiplicity = 1

                         Standard orientation:
 ---------------------------------------------------------------------
 Center     Atomic      Atomic             Coordinates (Angstroms)
 Number     Number       Type             X           Y           Z
 ---------------------------------------------------------------------
      1          6           0        3.402035    1.541147    1.615999
      2          6           0        3.978738    1.506050    0.342145
      3          6           0        3.626467    0.506298   -0.569418
      4          6           0        2.689958   -0.446794   -0.172107
      5          6           0        2.097778   -0.438604    1.089854
      6          6           0        2.465048    0.570419    1.985137
      7          1           0        3.681514    2.321380    2.317800
      8          1           0        4.706689    2.258629    0.052737
      9          1           0        4.057404    0.455498   -1.561956
     10          1           0        1.375011   -1.202523    1.349572
     11          1           0        2.015546    0.595200    2.973762
     12          7           0        2.309085   -1.510095   -1.128521
     13          8           0        1.481579   -2.338194   -0.754192
     14          8           0        2.845275   -1.495277   -2.234377
     15          6           0       -3.397387   -1.932015    1.060730
     16          6           0       -2.089154   -1.453342    1.186891
     17          6           0       -1.720767   -0.233694    0.611305
     18          6           0       -2.690407    0.484582   -0.086669
     19          6           0       -4.001911    0.034298   -0.229811
     20          6           0       -4.347915   -1.187980    0.354028
     21          1           0       -3.674866   -2.880488    1.511065
     22          1           0       -1.348870   -2.029040    1.735158
     23          1           0       -0.715105    0.160376    0.693581
     24          1           0       -4.717833    0.630621   -0.782326
     25          1           0       -5.364655   -1.557260    0.254437
     26          7           0       -2.312261    1.777160   -0.700385
     27          8           0       -3.185114    2.391017   -1.310257
     28          8           0       -1.150177    2.151950   -0.559924
 ---------------------------------------------------------------------

 SCF Done:  E(RHF) =  -868.337378887     A.U. after   16 cycles
 E2 =    -0.2601457762D+01 EUMP2 =    -0.87093883664986D+03

 The electronic state is 1-A.
 Alpha  occ. eigenvalues --  -20.60988 -20.60954 -20.60637 -20.60625 -15.86023
 Alpha  occ. eigenvalues --  -15.85683 -11.31387 -11.30965 -11.28052 -11.27837
 Alpha  occ. eigenvalues --  -11.27583 -11.27532 -11.27521 -11.27267 -11.27007
 Alpha  occ. eigenvalues --  -11.26854 -11.26569 -11.26533  -1.60039  -1.59708
 Alpha  occ. eigenvalues --   -1.39600  -1.39265  -1.19524  -1.19135  -1.08899
 Alpha  occ. eigenvalues --   -1.08546  -1.04961  -1.04538  -0.95761  -0.95396
 Alpha  occ. eigenvalues --   -0.86345  -0.85944  -0.82605  -0.82247  -0.77709
 Alpha  occ. eigenvalues --   -0.77279  -0.72248  -0.71913  -0.71354  -0.71025
 Alpha  occ. eigenvalues --   -0.70685  -0.70222  -0.65187  -0.64978  -0.64785
 Alpha  occ. eigenvalues --   -0.64573  -0.62456  -0.61778  -0.55402  -0.55048
 Alpha  occ. eigenvalues --   -0.53269  -0.53042  -0.52844  -0.52587  -0.49020
 Alpha  occ. eigenvalues --   -0.48985  -0.48665  -0.48659  -0.45007  -0.44690
 Alpha  occ. eigenvalues --   -0.37427  -0.37099  -0.36517  -0.36113
 Alpha virt. eigenvalues --    0.04841   0.05251   0.11008   0.11569   0.16363
 Alpha virt. eigenvalues --    0.16759   0.19741   0.22223   0.25145   0.27645
 Alpha virt. eigenvalues --    0.28473   0.29558   0.30022   0.31530   0.32381

 Mulliken charges:
               1
     1  C   -0.167289
     2  C   -0.214740
     3  C   -0.167167
     4  C    0.165121
     5  C   -0.184272
     6  C   -0.215550
     7  H    0.227907
     8  H    0.226276
     9  H    0.277695
    10  H    0.268411
    11  H    0.222563
    12  N    0.488712
    13  O   -0.466831
    14  O   -0.456055
    15  C   -0.169848
    16  C   -0.215974
    17  C   -0.172492
    18  C    0.157230
    19  C   -0.169950
    20  C   -0.218710
    21  H    0.226010
    22  H    0.220139
    23  H    0.276262
    24  H    0.274994
    25  H    0.223140
    26  N    0.487797
    27  O   -0.460604
    28  O   -0.462775
 Sum of Mulliken charges =  -0.00000

 Dipole moment (field-independent basis, Debye):
    X=              0.2551    Y=             -0.6796    Z=              5.3910  Tot=              5.4397
 Quadrupole moment (field-independent basis, Debye-Ang):
   XX=            -83.4230   YY=           -112.9689   ZZ=           -104.5246
   XY=             22.9894   XZ=              2.4775   YZ=             -2.2532

 Normal termination of Gaussian 16 at Thu May  6 01:47:23 2021.
