 Gaussian 16, Revision A.03,
 Gaussian 16:  EM64L-G16RevA.03 25-Dec-2016

 -------------
 #p 6-31g* mp2
 -------------

 ------------------------------------------------------
 Input file generated by CHIRIPA (05-May-2021 14:51:12)
 ------------------------------------------------------
 Symbolic Z-matrix:
 Charge =  0 Multiplicity = 1

                         Standard orientation:
 ---------------------------------------------------------------------
 Center     Atomic      Atomic             Coordinates (Angstroms)
 Number     Number       Type             X           Y           Z
 ---------------------------------------------------------------------
      1          6           0        2.402989    0.588159   -0.054241
      2          6           0        3.594667    0.848905   -0.976140
      3          6           0        3.464483    2.158486   -1.754500
      4          1           0        1.481680    0.570790   -0.652433
      5          1           0        2.302795    1.425825    0.649798
      6          1           0        3.693423    0.010337   -1.677330
      7          1           0        4.513267    0.865464   -0.375710
      8          1           0        3.388846    3.008425   -1.068581
      9          1           0        2.564343    2.148439   -2.377596
     10          1           0        4.327084    2.325011   -2.407224
     11          6           0        2.518527   -0.717334    0.730658
     12          6           0        1.326848   -0.978081    1.652557
     13          6           0        1.457033   -2.287662    2.430917
     14          1           0        2.618720   -1.555001    0.026619
     15          1           0        3.439835   -0.699966    1.328850
     16          1           0        0.408248   -0.994640    1.052128
     17          1           0        1.228092   -0.139513    2.353747
     18          1           0        2.357172   -2.277615    3.054013
     19          1           0        1.532670   -3.137601    1.744998
     20          1           0        0.594431   -2.454187    3.083641
     21          6           0       -2.885703    0.681641   -0.189548
     22          6           0       -2.365717    1.506597    0.988181
     23          6           0       -3.226380    2.737763    1.273283
     24          1           0       -2.926686    1.317385   -1.084586
     25          1           0       -3.918065    0.368224    0.018764
     26          1           0       -1.334165    1.817197    0.778314
     27          1           0       -2.325786    0.868763    1.880475
     28          1           0       -4.254317    2.443199    1.508186
     29          1           0       -3.257061    3.397022    0.399762
     30          1           0       -2.836639    3.312972    2.118917
     31          6           0       -2.035812   -0.552464   -0.486869
     32          6           0       -2.555798   -1.377422   -1.664598
     33          6           0       -1.695135   -2.608587   -1.949700
     34          1           0       -1.003449   -0.239049   -0.695182
     35          1           0       -1.994829   -1.188210    0.408168
     36          1           0       -2.595729   -0.739587   -2.556893
     37          1           0       -3.587350   -1.688022   -1.454731
     38          1           0       -1.664454   -3.267846   -1.076180
     39          1           0       -0.667199   -2.314023   -2.184603
     40          1           0       -2.084876   -3.183797   -2.795333
 ---------------------------------------------------------------------

 SCF Done:  E(RHF) =  -470.732441965     A.U. after   11 cycles
 E2 =    -0.1584683651D+01 EUMP2 =    -0.47231712561581D+03

 The electronic state is 1-A.
 Alpha  occ. eigenvalues --  -11.21669 -11.21619 -11.21591 -11.21456 -11.21411
 Alpha  occ. eigenvalues --  -11.21392 -11.21384 -11.21302 -11.21154 -11.21099
 Alpha  occ. eigenvalues --  -11.21070 -11.20989  -1.08510  -1.08376  -1.03571
 Alpha  occ. eigenvalues --   -1.03482  -0.96030  -0.95950  -0.87048  -0.86961
 Alpha  occ. eigenvalues --   -0.79659  -0.79554  -0.78541  -0.77984  -0.65195
 Alpha  occ. eigenvalues --   -0.64963  -0.60964  -0.60897  -0.59391  -0.59321
 Alpha  occ. eigenvalues --   -0.57653  -0.57548  -0.55342  -0.55221  -0.52729
 Alpha  occ. eigenvalues --   -0.52635  -0.52474  -0.52364  -0.49981  -0.49889
 Alpha  occ. eigenvalues --   -0.48037  -0.47865  -0.46757  -0.46678  -0.46378
 Alpha  occ. eigenvalues --   -0.45721  -0.45695  -0.44868  -0.43825  -0.43736
 Alpha virt. eigenvalues --    0.20627   0.23389   0.23597   0.24403   0.24686
 Alpha virt. eigenvalues --    0.26250   0.26823   0.27951   0.28450   0.30792
 Alpha virt. eigenvalues --    0.31154   0.31259   0.31364   0.31891   0.32129

 Mulliken charges:
               1
     1  C   -0.303446
     2  C   -0.299401
     3  C   -0.475680
     4  H    0.152306
     5  H    0.149760
     6  H    0.151884
     7  H    0.152389
     8  H    0.155252
     9  H    0.154561
    10  H    0.160451
    11  C   -0.297631
    12  C   -0.310564
    13  C   -0.475320
    14  H    0.148919
    15  H    0.149286
    16  H    0.165894
    17  H    0.150888
    18  H    0.154615
    19  H    0.154789
    20  H    0.159019
    21  C   -0.297256
    22  C   -0.301356
    23  C   -0.475721
    24  H    0.149461
    25  H    0.149548
    26  H    0.154097
    27  H    0.152362
    28  H    0.155053
    29  H    0.155153
    30  H    0.160311
    31  C   -0.308669
    32  C   -0.298338
    33  C   -0.476496
    34  H    0.156930
    35  H    0.151900
    36  H    0.151909
    37  H    0.152283
    38  H    0.155597
    39  H    0.154288
    40  H    0.160978
 Sum of Mulliken charges =  -0.00000

 Dipole moment (field-independent basis, Debye):
    X=             -0.0538    Y=              0.0081    Z=             -0.0220  Tot=              0.0586
 Quadrupole moment (field-independent basis, Debye-Ang):
   XX=            -84.5254   YY=            -85.9701   ZZ=            -84.4067
   XY=              1.0773   XZ=              0.1459   YZ=              0.3668

 Normal termination of Gaussian 16 at Wed May  5 19:55:49 2021.
