 Gaussian 16, Revision A.03,
 Gaussian 16:  EM64L-G16RevA.03 25-Dec-2016

 -------------
 #p 6-31g* mp2
 -------------

 ------------------------------------------------------
 Input file generated by CHIRIPA (05-May-2021 14:51:07)
 ------------------------------------------------------
 Symbolic Z-matrix:
 Charge =  0 Multiplicity = 1

                         Standard orientation:
 ---------------------------------------------------------------------
 Center     Atomic      Atomic             Coordinates (Angstroms)
 Number     Number       Type             X           Y           Z
 ---------------------------------------------------------------------
      1          6           0        3.251378    0.042027   -0.694073
      2          6           0        3.540869   -1.341670   -0.111352
      3          6           0        4.035950   -2.334449   -1.163530
      4          1           0        2.502321   -0.052599   -1.492136
      5          1           0        4.163841    0.431522   -1.166408
      6          1           0        2.628505   -1.727850    0.360954
      7          1           0        4.289183   -1.243713    0.685546
      8          1           0        4.959811   -1.974788   -1.627993
      9          1           0        3.289697   -2.461676   -1.954429
     10          1           0        4.236753   -3.317048   -0.725311
     11          6           0        2.755610    1.045578    0.345555
     12          6           0        2.466120    2.429274   -0.237166
     13          6           0        1.971039    3.422053    0.815012
     14          1           0        1.843148    0.656082    0.817890
     15          1           0        3.504668    1.140204    1.143618
     16          1           0        1.717805    2.331318   -1.034064
     17          1           0        3.378483    2.815454   -0.709472
     18          1           0        2.717292    3.549280    1.605911
     19          1           0        1.047178    3.062393    1.279475
     20          1           0        1.770235    4.404653    0.376793
     21          6           0       -3.755801   -0.521560    0.043986
     22          6           0       -4.208942    0.747995   -0.677734
     23          6           0       -5.716473    0.777793   -0.931219
     24          1           0       -4.046302   -1.397814   -0.551611
     25          1           0       -4.291010   -0.602221    1.000250
     26          1           0       -3.672019    0.826957   -1.631722
     27          1           0       -3.917160    1.621335   -0.080442
     28          1           0       -6.267109    0.723789    0.013494
     29          1           0       -6.020575   -0.075101   -1.546600
     30          1           0       -6.018626    1.693968   -1.448121
     31          6           0       -2.251187   -0.566044    0.304532
     32          6           0       -1.798047   -1.835599    1.026251
     33          6           0       -0.290516   -1.865398    1.279738
     34          1           0       -1.715978   -0.485384   -0.651731
     35          1           0       -1.960687    0.310209    0.900129
     36          1           0       -2.089829   -2.708939    0.428960
     37          1           0       -2.334970   -1.914562    1.980241
     38          1           0        0.013586   -1.012503    1.895119
     39          1           0        0.260120   -1.811394    0.335024
     40          1           0        0.011638   -2.781572    1.796639
 ---------------------------------------------------------------------

 SCF Done:  E(RHF) =  -470.732877150     A.U. after   11 cycles
 E2 =    -0.1583547619D+01 EUMP2 =    -0.47231642476876D+03

 The electronic state is 1-A.
 Alpha  occ. eigenvalues --  -11.21689 -11.21648 -11.21540 -11.21485 -11.21452
 Alpha  occ. eigenvalues --  -11.21418 -11.21318 -11.21251 -11.21181 -11.21106
 Alpha  occ. eigenvalues --  -11.21039 -11.21008  -1.08507  -1.08347  -1.03610
 Alpha  occ. eigenvalues --   -1.03455  -0.96064  -0.95913  -0.87090  -0.86927
 Alpha  occ. eigenvalues --   -0.79707  -0.79501  -0.78343  -0.78127  -0.65148
 Alpha  occ. eigenvalues --   -0.64988  -0.61086  -0.60796  -0.59428  -0.59280
 Alpha  occ. eigenvalues --   -0.57680  -0.57513  -0.55377  -0.55181  -0.52768
 Alpha  occ. eigenvalues --   -0.52636  -0.52471  -0.52338  -0.50103  -0.49773
 Alpha  occ. eigenvalues --   -0.48075  -0.47824  -0.46792  -0.46434  -0.46018
 Alpha  occ. eigenvalues --   -0.45772  -0.45685  -0.45344  -0.43854  -0.43705
 Alpha virt. eigenvalues --    0.20923   0.23011   0.23770   0.24548   0.25566
 Alpha virt. eigenvalues --    0.26480   0.27146   0.27726   0.27986   0.29890
 Alpha virt. eigenvalues --    0.30160   0.31413   0.31739   0.31872   0.32132

 Mulliken charges:
               1
     1  C   -0.297545
     2  C   -0.308422
     3  C   -0.475250
     4  H    0.148206
     5  H    0.149255
     6  H    0.162543
     7  H    0.151407
     8  H    0.154937
     9  H    0.154049
    10  H    0.159966
    11  C   -0.303347
    12  C   -0.299288
    13  C   -0.475465
    14  H    0.155279
    15  H    0.149052
    16  H    0.151850
    17  H    0.151621
    18  H    0.155022
    19  H    0.154470
    20  H    0.160085
    21  C   -0.298289
    22  C   -0.299728
    23  C   -0.475765
    24  H    0.149877
    25  H    0.149806
    26  H    0.151916
    27  H    0.152111
    28  H    0.155297
    29  H    0.155248
    30  H    0.160464
    31  C   -0.298486
    32  C   -0.300469
    33  C   -0.480479
    34  H    0.149241
    35  H    0.149266
    36  H    0.152369
    37  H    0.152348
    38  H    0.157845
    39  H    0.157857
    40  H    0.161147
 Sum of Mulliken charges =  -0.00000

 Dipole moment (field-independent basis, Debye):
    X=             -0.0622    Y=             -0.0315    Z=              0.0338  Tot=              0.0775
 Quadrupole moment (field-independent basis, Debye-Ang):
   XX=            -85.2546   YY=            -85.2426   ZZ=            -84.4176
   XY=              0.6997   XZ=              0.0909   YZ=             -0.0783

 Normal termination of Gaussian 16 at Wed May  5 15:02:43 2021.
