 Gaussian 16, Revision A.03,
 Gaussian 16:  EM64L-G16RevA.03 25-Dec-2016

 -------------
 #p 6-31g* mp2
 -------------

 ------------------------------------------------------
 Input file generated by CHIRIPA (05-May-2021 14:55:21)
 ------------------------------------------------------
 Symbolic Z-matrix:
 Charge =  0 Multiplicity = 1

                         Standard orientation:
 ---------------------------------------------------------------------
 Center     Atomic      Atomic             Coordinates (Angstroms)
 Number     Number       Type             X           Y           Z
 ---------------------------------------------------------------------
      1          6           0        1.011441   -0.295521    2.386949
      2          6           0        1.204265    0.907078    1.699129
      3          6           0        1.930118    0.933289    0.504559
      4          6           0        2.451453   -0.267088    0.024355
      5          6           0        2.276462   -1.481214    0.686599
      6          6           0        1.547210   -1.483734    1.879383
      7          1           0        0.446262   -0.306681    3.314226
      8          1           0        0.789333    1.831389    2.090953
      9          1           0        2.094505    1.850230   -0.048265
     10          1           0        2.702235   -2.386502    0.271161
     11          1           0        1.399045   -2.419163    2.411421
     12          7           0        3.221680   -0.251879   -1.239337
     13          8           0        3.670721   -1.323014   -1.641418
     14          8           0        3.361758    0.830888   -1.803811
     15          6           0       -3.446860   -0.129687   -0.666177
     16          6           0       -3.577253   -1.497047    0.005617
     17          6           0       -4.523861   -2.435705   -0.743148
     18          1           0       -4.441058    0.331960   -0.739650
     19          1           0       -3.089346   -0.267491   -1.696025
     20          1           0       -3.933095   -1.356609    1.034339
     21          1           0       -2.582604   -1.955409    0.077673
     22          1           0       -4.169611   -2.605271   -1.765085
     23          1           0       -5.527776   -2.003068   -0.802984
     24          1           0       -4.602292   -3.407409   -0.245654
     25          6           0       -2.503886    0.819847    0.070651
     26          6           0       -2.373494    2.187209   -0.601143
     27          6           0       -1.426886    3.125865    0.147622
     28          1           0       -2.861401    0.957652    1.100499
     29          1           0       -1.509688    0.358201    0.144125
     30          1           0       -3.368144    2.645570   -0.673198
     31          1           0       -2.017652    2.046770   -1.629865
     32          1           0       -0.422970    2.693229    0.207458
     33          1           0       -1.781135    3.295432    1.169560
     34          1           0       -1.348455    4.097569   -0.349872
 ---------------------------------------------------------------------

 SCF Done:  E(RHF) =  -669.534336101     A.U. after   15 cycles
 E2 =    -0.2093815228D+01 EUMP2 =    -0.67162815132889D+03

 The electronic state is 1-A.
 Alpha  occ. eigenvalues --  -20.60825 -20.60820 -15.85878 -11.31266 -11.27817
 Alpha  occ. eigenvalues --  -11.27812 -11.27543 -11.26846 -11.26794 -11.21985
 Alpha  occ. eigenvalues --  -11.21910 -11.21691 -11.21683 -11.21621 -11.21309
 Alpha  occ. eigenvalues --   -1.59900  -1.39453  -1.19440  -1.08835  -1.08746
 Alpha  occ. eigenvalues --   -1.04857  -1.03900  -0.96371  -0.95653  -0.87400
 Alpha  occ. eigenvalues --   -0.86228  -0.82499  -0.79982  -0.78579  -0.77529
 Alpha  occ. eigenvalues --   -0.72095  -0.71225  -0.70528  -0.65406  -0.65081
 Alpha  occ. eigenvalues --   -0.64839  -0.62270  -0.61267  -0.59722  -0.57970
 Alpha  occ. eigenvalues --   -0.55673  -0.55308  -0.53234  -0.53056  -0.53034
 Alpha  occ. eigenvalues --   -0.52671  -0.50318  -0.48857  -0.48849  -0.48279
 Alpha  occ. eigenvalues --   -0.46992  -0.46110  -0.46006  -0.44852  -0.44132
 Alpha  occ. eigenvalues --   -0.37387  -0.36359
 Alpha virt. eigenvalues --    0.04959   0.11176   0.16341   0.20850   0.22706
 Alpha virt. eigenvalues --    0.24106   0.26014   0.26206   0.27189   0.27978
 Alpha virt. eigenvalues --    0.28906   0.30679   0.31163   0.31388   0.32158

 Mulliken charges:
               1
     1  C   -0.171394
     2  C   -0.216384
     3  C   -0.173176
     4  C    0.157776
     5  C   -0.171823
     6  C   -0.218664
     7  H    0.226520
     8  H    0.228304
     9  H    0.276426
    10  H    0.275814
    11  H    0.223971
    12  N    0.488147
    13  O   -0.460208
    14  O   -0.460184
    15  C   -0.298475
    16  C   -0.299739
    17  C   -0.475871
    18  H    0.149852
    19  H    0.152578
    20  H    0.149095
    21  H    0.151547
    22  H    0.157373
    23  H    0.155737
    24  H    0.159610
    25  C   -0.303978
    26  C   -0.298863
    27  C   -0.480984
    28  H    0.143655
    29  H    0.157131
    30  H    0.153241
    31  H    0.156821
    32  H    0.151372
    33  H    0.150474
    34  H    0.164299
 Sum of Mulliken charges =  -0.00000

 Dipole moment (field-independent basis, Debye):
    X=             -2.7025    Y=             -0.0987    Z=              4.4085  Tot=              5.1719
 Quadrupole moment (field-independent basis, Debye-Ang):
   XX=           -108.6603   YY=            -90.4922   ZZ=            -94.9064
   XY=             -0.9784   XZ=             10.5425   YZ=             -1.8881

 Normal termination of Gaussian 16 at Thu May  6 06:12:35 2021.
