 Gaussian 16, Revision A.03,
 Gaussian 16:  EM64L-G16RevA.03 25-Dec-2016

 -------------
 #p 6-31g* mp2
 -------------

 ------------------------------------------------------
 Input file generated by CHIRIPA (05-May-2021 14:51:11)
 ------------------------------------------------------
 Symbolic Z-matrix:
 Charge =  0 Multiplicity = 1

                         Standard orientation:
 ---------------------------------------------------------------------
 Center     Atomic      Atomic             Coordinates (Angstroms)
 Number     Number       Type             X           Y           Z
 ---------------------------------------------------------------------
      1          6           0       -2.601949   -0.997283    0.109595
      2          6           0       -1.622426   -1.069448    1.281479
      3          6           0       -0.575442   -2.170434    1.109877
      4          1           0       -3.103684   -1.968355   -0.000976
      5          1           0       -2.039752   -0.828373   -0.819275
      6          1           0       -2.186421   -1.236790    2.208044
      7          1           0       -1.123105   -0.098032    1.389394
      8          1           0        0.012450   -2.004755    0.201288
      9          1           0       -1.056907   -3.149984    1.024590
     10          1           0        0.114428   -2.204258    1.958874
     11          6           0       -3.654683    0.098547    0.266556
     12          6           0       -4.634205    0.170711   -0.905328
     13          6           0       -5.681189    1.271697   -0.733726
     14          1           0       -4.216879   -0.070363    1.195426
     15          1           0       -3.152948    1.069619    0.377127
     16          1           0       -5.133527   -0.800705   -1.013242
     17          1           0       -4.070211    0.338054   -1.831893
     18          1           0       -5.199724    2.251247   -0.648439
     19          1           0       -6.269082    1.106019    0.174863
     20          1           0       -6.371060    1.305522   -1.582722
     21          6           0        3.307061   -0.107905   -0.678920
     22          6           0        3.335836   -1.495317   -0.036859
     23          6           0        3.694947   -2.599656   -1.031479
     24          1           0        2.583436   -0.108343   -1.505547
     25          1           0        4.289463    0.103124   -1.123609
     26          1           0        2.354095   -1.703099    0.407693
     27          1           0        4.059338   -1.491521    0.788459
     28          1           0        4.683225   -2.419601   -1.466781
     29          1           0        2.968295   -2.632381   -1.849711
     30          1           0        3.709762   -3.583087   -0.551368
     31          6           0        2.949570    1.006642    0.302769
     32          6           0        2.920794    2.394054   -0.339293
     33          6           0        2.561684    3.498392    0.655327
     34          1           0        1.967169    0.795612    0.747458
     35          1           0        3.673195    1.007080    1.129397
     36          1           0        2.197294    2.390258   -1.164611
     37          1           0        3.902537    2.601835   -0.783844
     38          1           0        3.288337    3.531117    1.473560
     39          1           0        1.573407    3.318337    1.090630
     40          1           0        2.546869    4.481823    0.175217
 ---------------------------------------------------------------------

 SCF Done:  E(RHF) =  -470.733040645     A.U. after   11 cycles
 E2 =    -0.1583121534D+01 EUMP2 =    -0.47231616217880D+03

 The electronic state is 1-A.
 Alpha  occ. eigenvalues --  -11.21691 -11.21643 -11.21611 -11.21469 -11.21468
 Alpha  occ. eigenvalues --  -11.21407 -11.21391 -11.21327 -11.21153 -11.21102
 Alpha  occ. eigenvalues --  -11.21087 -11.21015  -1.08497  -1.08404  -1.03604
 Alpha  occ. eigenvalues --   -1.03493  -0.96051  -0.95955  -0.87080  -0.86962
 Alpha  occ. eigenvalues --   -0.79707  -0.79521  -0.78308  -0.78215  -0.65213
 Alpha  occ. eigenvalues --   -0.64976  -0.61111  -0.60805  -0.59430  -0.59306
 Alpha  occ. eigenvalues --   -0.57654  -0.57563  -0.55362  -0.55232  -0.52763
 Alpha  occ. eigenvalues --   -0.52636  -0.52471  -0.52375  -0.50110  -0.49818
 Alpha  occ. eigenvalues --   -0.47990  -0.47870  -0.46842  -0.46432  -0.45894
 Alpha  occ. eigenvalues --   -0.45773  -0.45741  -0.45566  -0.43836  -0.43751
 Alpha virt. eigenvalues --    0.20370   0.23186   0.23870   0.24289   0.26127
 Alpha virt. eigenvalues --    0.26939   0.27103   0.27596   0.27982   0.29268
 Alpha virt. eigenvalues --    0.30906   0.31034   0.31723   0.31755   0.32410

 Mulliken charges:
               1
     1  C   -0.298629
     2  C   -0.300776
     3  C   -0.479989
     4  H    0.150034
     5  H    0.149459
     6  H    0.152616
     7  H    0.152131
     8  H    0.158460
     9  H    0.156014
    10  H    0.161756
    11  C   -0.298364
    12  C   -0.299701
    13  C   -0.475757
    14  H    0.149772
    15  H    0.149606
    16  H    0.152066
    17  H    0.151916
    18  H    0.155270
    19  H    0.155281
    20  H    0.160407
    21  C   -0.297783
    22  C   -0.309114
    23  C   -0.475303
    24  H    0.148398
    25  H    0.149496
    26  H    0.162764
    27  H    0.151219
    28  H    0.154876
    29  H    0.154323
    30  H    0.160353
    31  C   -0.299753
    32  C   -0.299550
    33  C   -0.475589
    34  H    0.150298
    35  H    0.149840
    36  H    0.151497
    37  H    0.152142
    38  H    0.155359
    39  H    0.154700
    40  H    0.160257
 Sum of Mulliken charges =  -0.00000

 Dipole moment (field-independent basis, Debye):
    X=             -0.0476    Y=             -0.0239    Z=              0.0265  Tot=              0.0595
 Quadrupole moment (field-independent basis, Debye-Ang):
   XX=            -84.2009   YY=            -85.6909   ZZ=            -84.8828
   XY=              1.4328   XZ=              0.1008   YZ=             -0.8750

 Normal termination of Gaussian 16 at Thu May  6 03:51:32 2021.
