 Gaussian 16, Revision A.03,
 Gaussian 16:  EM64L-G16RevA.03 25-Dec-2016

 -------------
 #p 6-31g* mp2
 -------------

 ------------------------------------------------------
 Input file generated by CHIRIPA (05-May-2021 14:57:24)
 ------------------------------------------------------
 Symbolic Z-matrix:
 Charge =  0 Multiplicity = 1

                         Standard orientation:
 ---------------------------------------------------------------------
 Center     Atomic      Atomic             Coordinates (Angstroms)
 Number     Number       Type             X           Y           Z
 ---------------------------------------------------------------------
      1          6           0       -3.692531   -1.995373    0.229641
      2          6           0       -2.783973   -1.618531    1.224143
      3          6           0       -2.245990   -0.328263    1.242359
      4          6           0       -2.640323    0.563703    0.246272
      5          6           0       -3.543457    0.218211   -0.757857
      6          6           0       -4.068710   -1.077418   -0.756446
      7          1           0       -4.105504   -2.999767    0.223114
      8          1           0       -2.490021   -2.329335    1.991212
      9          1           0       -1.540777   -0.010082    2.000549
     10          1           0       -3.817444    0.948817   -1.509232
     11          1           0       -4.774114   -1.367308   -1.530018
     12          7           0       -2.077523    1.932490    0.255167
     13          8           0       -2.441005    2.699704   -0.633596
     14          8           0       -1.283575    2.212212    1.150734
     15          6           0        4.951086    0.684022    0.388926
     16          6           0        4.731325   -0.684342    0.578159
     17          6           0        3.506281   -1.261439    0.230635
     18          6           0        2.518651   -0.436926   -0.306073
     19          6           0        2.707239    0.929628   -0.506708
     20          6           0        3.940123    1.485226   -0.151950
     21          1           0        5.905775    1.123974    0.661701
     22          1           0        5.514638   -1.308996    0.998009
     23          1           0        3.309357   -2.317938    0.366456
     24          1           0        1.907277    1.526730   -0.927362
     25          1           0        4.107984    2.548213   -0.300029
     26          7           0        1.217601   -1.036493   -0.677810
     27          8           0        0.363637   -0.288496   -1.148856
     28          8           0        1.076437   -2.243079   -0.491094
 ---------------------------------------------------------------------

 SCF Done:  E(RHF) =  -868.339495669     A.U. after   16 cycles
 E2 =    -0.2600531458D+01 EUMP2 =    -0.87094002712706D+03

 The electronic state is 1-A.
 Alpha  occ. eigenvalues --  -20.60834 -20.60813 -20.59875 -20.59849 -15.85852
 Alpha  occ. eigenvalues --  -15.84901 -11.30986 -11.29915 -11.27601 -11.27457
 Alpha  occ. eigenvalues --  -11.27279 -11.26565 -11.26505 -11.26491 -11.26456
 Alpha  occ. eigenvalues --  -11.26237 -11.25514 -11.25498  -1.59890  -1.58925
 Alpha  occ. eigenvalues --   -1.39453  -1.38500  -1.19153  -1.18070  -1.08600
 Alpha  occ. eigenvalues --   -1.07551  -1.04516  -1.03486  -0.95468  -0.94455
 Alpha  occ. eigenvalues --   -0.85930  -0.84918  -0.82312  -0.81333  -0.77373
 Alpha  occ. eigenvalues --   -0.76402  -0.72129  -0.71238  -0.71164  -0.70271
 Alpha  occ. eigenvalues --   -0.70128  -0.69290  -0.64812  -0.64522  -0.63792
 Alpha  occ. eigenvalues --   -0.63562  -0.61856  -0.60893  -0.55052  -0.54060
 Alpha  occ. eigenvalues --   -0.52874  -0.52607  -0.51773  -0.51643  -0.48847
 Alpha  occ. eigenvalues --   -0.48773  -0.47921  -0.47884  -0.44933  -0.43982
 Alpha  occ. eigenvalues --   -0.37151  -0.36110  -0.35944  -0.35025
 Alpha virt. eigenvalues --    0.05116   0.06181   0.11550   0.12613   0.16651
 Alpha virt. eigenvalues --    0.17738   0.21684   0.22505   0.27624   0.28367
 Alpha virt. eigenvalues --    0.28558   0.29363   0.31208   0.31983   0.32847

 Mulliken charges:
               1
     1  C   -0.167748
     2  C   -0.211452
     3  C   -0.168219
     4  C    0.176875
     5  C   -0.167725
     6  C   -0.216850
     7  H    0.221634
     8  H    0.219326
     9  H    0.267644
    10  H    0.271174
    11  H    0.218837
    12  N    0.490044
    13  O   -0.464734
    14  O   -0.470260
    15  C   -0.170231
    16  C   -0.219152
    17  C   -0.172007
    18  C    0.155926
    19  C   -0.166753
    20  C   -0.218873
    21  H    0.225456
    22  H    0.221907
    23  H    0.272516
    24  H    0.283266
    25  H    0.226602
    26  N    0.488936
    27  O   -0.461639
    28  O   -0.464498
 Sum of Mulliken charges =  -0.00000

 Dipole moment (field-independent basis, Debye):
    X=              2.7459    Y=             -2.6718    Z=              1.1434  Tot=              3.9983
 Quadrupole moment (field-independent basis, Debye-Ang):
   XX=            -70.9154   YY=           -108.9504   ZZ=           -103.1468
   XY=             13.4666   XZ=              4.8501   YZ=             -5.2025

 Normal termination of Gaussian 16 at Thu May  6 00:19:58 2021.
