 Gaussian 16, Revision A.03,
 Gaussian 16:  EM64L-G16RevA.03 25-Dec-2016

 -------------
 #p 6-31g* mp2
 -------------

 ------------------------------------------------------
 Input file generated by CHIRIPA (05-May-2021 14:53:16)
 ------------------------------------------------------
 Symbolic Z-matrix:
 Charge =  0 Multiplicity = 1

                         Standard orientation:
 ---------------------------------------------------------------------
 Center     Atomic      Atomic             Coordinates (Angstroms)
 Number     Number       Type             X           Y           Z
 ---------------------------------------------------------------------
      1          6           0        2.940790   -0.276492   -0.312852
      2          6           0        4.224954   -1.063020   -0.577956
      3          6           0        3.962376   -2.537977   -0.883486
      4          1           0        2.403511   -0.736544    0.527759
      5          1           0        2.281356   -0.358885   -1.187925
      6          1           0        4.882357   -0.978024    0.296809
      7          1           0        4.759335   -0.600928   -1.417911
      8          1           0        3.326626   -2.640748   -1.768845
      9          1           0        3.450347   -3.019987   -0.044383
     10          1           0        4.893954   -3.081392   -1.069828
     11          6           0        3.186919    1.199625   -0.005887
     12          6           0        1.902754    1.986153    0.259216
     13          6           0        2.165333    3.461110    0.564746
     14          1           0        3.846353    1.282018    0.869186
     15          1           0        3.724198    1.659677   -0.846499
     16          1           0        1.368374    1.524061    1.099171
     17          1           0        1.245352    1.901157   -0.615549
     18          1           0        2.677361    3.943120   -0.274357
     19          1           0        2.801083    3.563881    1.450105
     20          1           0        1.233755    4.004525    0.751088
     21          6           0       -3.670551    1.552658   -0.912247
     22          6           0       -4.087082    0.234842   -1.127621
     23          6           0       -3.387200   -0.833063   -0.558155
     24          6           0       -2.270189   -0.545565    0.224738
     25          6           0       -1.830331    0.756541    0.457834
     26          6           0       -2.545489    1.808849   -0.121600
     27          1           0       -4.220169    2.376174   -1.358494
     28          1           0       -4.960457    0.032899   -1.741199
     29          1           0       -3.687730   -1.862859   -0.708554
     30          1           0       -0.955890    0.926422    1.074204
     31          1           0       -2.219707    2.831277    0.047374
     32          7           0       -1.521169   -1.667853    0.832882
     33          8           0       -0.540303   -1.388035    1.518622
     34          8           0       -1.929137   -2.806071    0.612289
 ---------------------------------------------------------------------

 SCF Done:  E(RHF) =  -669.535889269     A.U. after   15 cycles
 E2 =    -0.2092384029D+01 EUMP2 =    -0.67162827329817D+03

 The electronic state is 1-A.
 Alpha  occ. eigenvalues --  -20.60836 -20.60831 -15.85871 -11.31170 -11.27757
 Alpha  occ. eigenvalues --  -11.27698 -11.27496 -11.26760 -11.26740 -11.21778
 Alpha  occ. eigenvalues --  -11.21372 -11.21207 -11.21079 -11.20777 -11.20422
 Alpha  occ. eigenvalues --   -1.59895  -1.39452  -1.19351  -1.08760  -1.08166
 Alpha  occ. eigenvalues --   -1.04746  -1.03328  -0.95748  -0.95602  -0.86770
 Alpha  occ. eigenvalues --   -0.86147  -0.82437  -0.79471  -0.77939  -0.77440
 Alpha  occ. eigenvalues --   -0.72095  -0.71205  -0.70466  -0.65012  -0.64839
 Alpha  occ. eigenvalues --   -0.64703  -0.62119  -0.60713  -0.59186  -0.57354
 Alpha  occ. eigenvalues --   -0.55261  -0.55009  -0.53084  -0.52870  -0.52498
 Alpha  occ. eigenvalues --   -0.52147  -0.49675  -0.48857  -0.48847  -0.47725
 Alpha  occ. eigenvalues --   -0.46476  -0.45509  -0.45349  -0.44737  -0.43540
 Alpha  occ. eigenvalues --   -0.37337  -0.36332
 Alpha virt. eigenvalues --    0.05007   0.11294   0.16457   0.20481   0.23228
 Alpha virt. eigenvalues --    0.24261   0.25783   0.26789   0.27359   0.28365
 Alpha virt. eigenvalues --    0.29550   0.30402   0.31543   0.31908   0.32705

 Mulliken charges:
               1
     1  C   -0.305666
     2  C   -0.299496
     3  C   -0.476431
     4  H    0.170176
     5  H    0.145646
     6  H    0.151199
     7  H    0.148090
     8  H    0.153841
     9  H    0.163405
    10  H    0.157509
    11  C   -0.296678
    12  C   -0.309127
    13  C   -0.474057
    14  H    0.150599
    15  H    0.147910
    16  H    0.155789
    17  H    0.149697
    18  H    0.156806
    19  H    0.158614
    20  H    0.150980
    21  C   -0.170414
    22  C   -0.219107
    23  C   -0.170297
    24  C    0.156128
    25  C   -0.171945
    26  C   -0.222683
    27  H    0.225568
    28  H    0.223313
    29  H    0.275451
    30  H    0.284772
    31  H    0.224079
    32  N    0.488448
    33  O   -0.462518
    34  O   -0.459603
 Sum of Mulliken charges =  -0.00000

 Dipole moment (field-independent basis, Debye):
    X=             -2.6336    Y=              3.8076    Z=             -2.0633  Tot=              5.0687
 Quadrupole moment (field-independent basis, Debye-Ang):
   XX=            -81.2646   YY=            -98.7029   ZZ=            -94.7088
   XY=             -5.4454   XZ=              6.3564   YZ=              3.0047

 Normal termination of Gaussian 16 at Wed May  5 18:44:29 2021.
