 Gaussian 16, Revision A.03,
 Gaussian 16:  EM64L-G16RevA.03 25-Dec-2016

 -------------
 #p 6-31g* mp2
 -------------

 ------------------------------------------------------
 Input file generated by CHIRIPA (05-May-2021 14:53:16)
 ------------------------------------------------------
 Symbolic Z-matrix:
 Charge =  0 Multiplicity = 1

                         Standard orientation:
 ---------------------------------------------------------------------
 Center     Atomic      Atomic             Coordinates (Angstroms)
 Number     Number       Type             X           Y           Z
 ---------------------------------------------------------------------
      1          6           0       -3.963438    0.885796   -0.215905
      2          6           0       -2.831504    1.911788   -0.279564
      3          6           0       -3.341072    3.345860   -0.426438
      4          1           0       -4.575517    0.967699   -1.124528
      5          1           0       -4.623050    1.129803    0.628351
      6          1           0       -2.173448    1.665113   -1.122611
      7          1           0       -2.221936    1.827303    0.629229
      8          1           0       -3.980786    3.615971    0.419971
      9          1           0       -3.932022    3.452859   -1.341823
     10          1           0       -2.515310    4.062855   -0.469964
     11          6           0       -3.469886   -0.552459   -0.069086
     12          6           0       -4.601820   -1.578451   -0.005427
     13          6           0       -4.092252   -3.012523    0.141447
     14          1           0       -2.810274   -0.796465   -0.913342
     15          1           0       -2.857807   -0.634362    0.839537
     16          1           0       -5.211389   -1.493966   -0.914220
     17          1           0       -5.259877   -1.331776    0.837620
     18          1           0       -3.501302   -3.119522    1.056832
     19          1           0       -3.452538   -3.282633   -0.704962
     20          1           0       -4.918014   -3.729518    0.184972
     21          6           0        0.504241   -0.181281    0.889906
     22          6           0        1.505852    0.299428    1.739737
     23          6           0        2.838653    0.332349    1.318899
     24          6           0        3.135607   -0.125272    0.036054
     25          6           0        2.160149   -0.609977   -0.833905
     26          6           0        0.834005   -0.633653   -0.391944
     27          1           0       -0.528525   -0.203265    1.225028
     28          1           0        1.252675    0.651384    2.735766
     29          1           0        3.633894    0.699414    1.956294
     30          1           0        2.443320   -0.954088   -1.821235
     31          1           0        0.058219   -1.007511   -1.054085
     32          7           0        4.543060   -0.095315   -0.420650
     33          8           0        4.778680   -0.504167   -1.555533
     34          8           0        5.383953    0.336453    0.364917
 ---------------------------------------------------------------------

 SCF Done:  E(RHF) =  -669.535293496     A.U. after   15 cycles
 E2 =    -0.2092391087D+01 EUMP2 =    -0.67162768458317D+03

 The electronic state is 1-A.
 Alpha  occ. eigenvalues --  -20.60694 -20.60689 -15.85748 -11.31089 -11.27665
 Alpha  occ. eigenvalues --  -11.27658 -11.27333 -11.26661 -11.26640 -11.22746
 Alpha  occ. eigenvalues --  -11.22594 -11.22592 -11.22400 -11.21977 -11.21817
 Alpha  occ. eigenvalues --   -1.59771  -1.39325  -1.19258  -1.09528  -1.08647
 Alpha  occ. eigenvalues --   -1.04661  -1.04485  -0.96940  -0.95491  -0.87946
 Alpha  occ. eigenvalues --   -0.86055  -0.82334  -0.80564  -0.79401  -0.77382
 Alpha  occ. eigenvalues --   -0.71965  -0.71094  -0.70368  -0.66151  -0.64906
 Alpha  occ. eigenvalues --   -0.64667  -0.62015  -0.61875  -0.60303  -0.58561
 Alpha  occ. eigenvalues --   -0.56248  -0.55168  -0.53569  -0.53362  -0.52982
 Alpha  occ. eigenvalues --   -0.52752  -0.50875  -0.48873  -0.48726  -0.48722
 Alpha  occ. eigenvalues --   -0.47607  -0.46849  -0.46807  -0.44785  -0.44736
 Alpha  occ. eigenvalues --   -0.37209  -0.36271
 Alpha virt. eigenvalues --    0.05138   0.11348   0.16578   0.19201   0.22705
 Alpha virt. eigenvalues --    0.23090   0.23662   0.25251   0.27040   0.28253
 Alpha virt. eigenvalues --    0.30168   0.30560   0.30831   0.31140   0.31560

 Mulliken charges:
               1
     1  C   -0.298534
     2  C   -0.301541
     3  C   -0.476443
     4  H    0.154139
     5  H    0.152460
     6  H    0.153108
     7  H    0.146439
     8  H    0.156440
     9  H    0.157851
    10  H    0.163916
    11  C   -0.304360
    12  C   -0.299544
    13  C   -0.476641
    14  H    0.146672
    15  H    0.142915
    16  H    0.156065
    17  H    0.155154
    18  H    0.154428
    19  H    0.154548
    20  H    0.164942
    21  C   -0.173455
    22  C   -0.221100
    23  C   -0.170668
    24  C    0.158267
    25  C   -0.171234
    26  C   -0.223857
    27  H    0.235045
    28  H    0.222986
    29  H    0.275109
    30  H    0.275179
    31  H    0.225250
    32  N    0.488026
    33  O   -0.460795
    34  O   -0.460770
 Sum of Mulliken charges =  -0.00000

 Dipole moment (field-independent basis, Debye):
    X=             -5.2571    Y=             -0.0610    Z=              1.5555  Tot=              5.4827
 Quadrupole moment (field-independent basis, Debye-Ang):
   XX=           -125.1377   YY=            -95.4030   ZZ=            -89.9116
   XY=              1.1395   XZ=              6.4153   YZ=              1.9105

 Normal termination of Gaussian 16 at Wed May  5 18:45:00 2021.
