 Gaussian 16, Revision A.03,
 Gaussian 16:  EM64L-G16RevA.03 25-Dec-2016

 -------------
 #p 6-31g* mp2
 -------------

 ------------------------------------------------------
 Input file generated by CHIRIPA (05-May-2021 14:55:21)
 ------------------------------------------------------
 Symbolic Z-matrix:
 Charge =  0 Multiplicity = 1

                         Standard orientation:
 ---------------------------------------------------------------------
 Center     Atomic      Atomic             Coordinates (Angstroms)
 Number     Number       Type             X           Y           Z
 ---------------------------------------------------------------------
      1          6           0       -1.766344    1.682785    1.482926
      2          6           0       -2.496606    0.691945    2.147362
      3          6           0       -3.191150   -0.282896    1.424977
      4          6           0       -3.133487   -0.236767    0.032915
      5          6           0       -2.414733    0.737574   -0.657985
      6          6           0       -1.727807    1.702403    0.084837
      7          1           0       -1.229765    2.436177    2.052030
      8          1           0       -2.528316    0.674252    3.233054
      9          1           0       -3.764280   -1.061317    1.913856
     10          1           0       -2.401900    0.729304   -1.741122
     11          1           0       -1.161493    2.470713   -0.433846
     12          7           0       -3.864738   -1.263488   -0.742660
     13          8           0       -3.798083   -1.200975   -1.968338
     14          8           0       -4.490700   -2.111304   -0.110192
     15          6           0        3.157668    0.378637   -0.303539
     16          6           0        3.168958    1.835038   -0.769106
     17          6           0        1.763303    2.405458   -0.960289
     18          1           0        2.610096   -0.229687   -1.036378
     19          1           0        2.600384    0.307158    0.640771
     20          1           0        3.727237    1.903966   -1.711544
     21          1           0        3.716731    2.439934   -0.035171
     22          1           0        1.200581    2.365855   -0.022006
     23          1           0        1.211146    1.826843   -1.707904
     24          1           0        1.794795    3.447566   -1.293273
     25          6           0        4.555530   -0.205707   -0.107954
     26          6           0        4.544240   -1.662108    0.357614
     27          6           0        5.949895   -2.232528    0.548797
     28          1           0        5.112813   -0.134228   -1.052263
     29          1           0        5.103101    0.402617    0.624884
     30          1           0        3.996466   -2.267004   -0.376322
     31          1           0        3.985961   -1.731036    1.300052
     32          1           0        6.502052   -1.653913    1.296412
     33          1           0        6.512617   -2.192926   -0.389487
     34          1           0        5.918403   -3.274636    0.881780
 ---------------------------------------------------------------------

 SCF Done:  E(RHF) =  -669.534825588     A.U. after   15 cycles
 E2 =    -0.2091784073D+01 EUMP2 =    -0.67162660966137D+03

 The electronic state is 1-A.
 Alpha  occ. eigenvalues --  -20.60733 -20.60728 -15.85784 -11.31144 -11.27695
 Alpha  occ. eigenvalues --  -11.27672 -11.27434 -11.26733 -11.26635 -11.22260
 Alpha  occ. eigenvalues --  -11.22018 -11.21871 -11.21854 -11.21728 -11.21285
 Alpha  occ. eigenvalues --   -1.59808  -1.39361  -1.19304  -1.08890  -1.08704
 Alpha  occ. eigenvalues --   -1.04704  -1.04032  -0.96514  -0.95543  -0.87563
 Alpha  occ. eigenvalues --   -0.86093  -0.82372  -0.80122  -0.78665  -0.77412
 Alpha  occ. eigenvalues --   -0.72003  -0.71130  -0.70421  -0.65524  -0.64955
 Alpha  occ. eigenvalues --   -0.64724  -0.62078  -0.61423  -0.59883  -0.58089
 Alpha  occ. eigenvalues --   -0.55807  -0.55216  -0.53341  -0.53164  -0.52942
 Alpha  occ. eigenvalues --   -0.52515  -0.50457  -0.48772  -0.48759  -0.48380
 Alpha  occ. eigenvalues --   -0.47124  -0.46211  -0.46116  -0.44768  -0.44270
 Alpha  occ. eigenvalues --   -0.37277  -0.36275
 Alpha virt. eigenvalues --    0.05089   0.11275   0.16567   0.20899   0.22458
 Alpha virt. eigenvalues --    0.23935   0.25876   0.26088   0.27169   0.27698
 Alpha virt. eigenvalues --    0.28791   0.30051   0.30873   0.31656   0.31909

 Mulliken charges:
               1
     1  C   -0.174102
     2  C   -0.218096
     3  C   -0.171569
     4  C    0.158928
     5  C   -0.174109
     6  C   -0.217357
     7  H    0.224955
     8  H    0.223036
     9  H    0.275281
    10  H    0.275069
    11  H    0.232185
    12  N    0.488057
    13  O   -0.460582
    14  O   -0.460556
    15  C   -0.298652
    16  C   -0.300122
    17  C   -0.480352
    18  H    0.152512
    19  H    0.148844
    20  H    0.155130
    21  H    0.152544
    22  H    0.149496
    23  H    0.155801
    24  H    0.160560
    25  C   -0.298809
    26  C   -0.300039
    27  C   -0.475999
    28  H    0.150729
    29  H    0.149215
    30  H    0.154076
    31  H    0.151609
    32  H    0.154784
    33  H    0.155902
    34  H    0.161631
 Sum of Mulliken charges =  -0.00000

 Dipole moment (field-independent basis, Debye):
    X=              2.7147    Y=              3.5715    Z=              2.6998  Tot=              5.2359
 Quadrupole moment (field-independent basis, Debye-Ang):
   XX=           -111.7783   YY=            -96.5103   ZZ=            -90.1934
   XY=            -10.8451   XZ=            -10.3704   YZ=             -2.1627

 Normal termination of Gaussian 16 at Thu May  6 06:12:20 2021.
