 Gaussian 16, Revision A.03,
 Gaussian 16:  EM64L-G16RevA.03 25-Dec-2016

 -------------
 #p 6-31g* mp2
 -------------

 ------------------------------------------------------
 Input file generated by CHIRIPA (05-May-2021 14:53:16)
 ------------------------------------------------------
 Symbolic Z-matrix:
 Charge =  0 Multiplicity = 1

                         Standard orientation:
 ---------------------------------------------------------------------
 Center     Atomic      Atomic             Coordinates (Angstroms)
 Number     Number       Type             X           Y           Z
 ---------------------------------------------------------------------
      1          6           0       -3.891623    0.289192   -0.275986
      2          6           0       -3.473377    1.758603   -0.338338
      3          6           0       -1.958965    1.938012   -0.448618
      4          1           0       -3.400807   -0.189027    0.582706
      5          1           0       -3.524621   -0.227677   -1.173511
      6          1           0       -3.842249    2.272856    0.558374
      7          1           0       -3.965396    2.233427   -1.196869
      8          1           0       -1.578025    1.450398   -1.351789
      9          1           0       -1.454178    1.490051    0.413427
     10          1           0       -1.682120    2.996006   -0.491808
     11          6           0       -5.402673    0.093575   -0.165577
     12          6           0       -5.820919   -1.375835   -0.103224
     13          6           0       -7.335331   -1.555245    0.007056
     14          1           0       -5.769674    0.610444    0.731948
     15          1           0       -5.893488    0.571794   -1.024269
     16          1           0       -5.328900   -1.850659    0.755307
     17          1           0       -5.452047   -1.890089   -0.999937
     18          1           0       -7.840118   -1.107284   -0.854990
     19          1           0       -7.716271   -1.067631    0.910227
     20          1           0       -7.612176   -2.613239    0.050246
     21          6           0        1.460568    0.614982    1.208097
     22          6           0        2.369307    1.555716    0.712381
     23          6           0        3.574719    1.143542    0.136500
     24          6           0        3.840374   -0.223428    0.072366
     25          6           0        2.955257   -1.184978    0.557423
     26          6           0        1.755923   -0.749957    1.129174
     27          1           0        0.526535    0.944043    1.653851
     28          1           0        2.142577    2.616398    0.772332
     29          1           0        4.296132    1.850408   -0.255065
     30          1           0        3.209161   -2.235451    0.483529
     31          1           0        1.052060   -1.482788    1.513336
     32          7           0        5.113273   -0.671872   -0.535108
     33          8           0        5.323770   -1.881972   -0.579680
     34          8           0        5.876372    0.195228   -0.955172
 ---------------------------------------------------------------------

 SCF Done:  E(RHF) =  -669.535279634     A.U. after   15 cycles
 E2 =    -0.2091010593D+01 EUMP2 =    -0.67162629022728D+03

 The electronic state is 1-A.
 Alpha  occ. eigenvalues --  -20.60728 -20.60723 -15.85782 -11.31139 -11.27710
 Alpha  occ. eigenvalues --  -11.27704 -11.27434 -11.26722 -11.26709 -11.22371
 Alpha  occ. eigenvalues --  -11.22103 -11.22091 -11.22043 -11.21937 -11.21483
 Alpha  occ. eigenvalues --   -1.59804  -1.39358  -1.19311  -1.09078  -1.08707
 Alpha  occ. eigenvalues --   -1.04713  -1.04187  -0.96652  -0.95544  -0.87670
 Alpha  occ. eigenvalues --   -0.86110  -0.82380  -0.80255  -0.78873  -0.77424
 Alpha  occ. eigenvalues --   -0.72000  -0.71127  -0.70446  -0.65708  -0.64963
 Alpha  occ. eigenvalues --   -0.64717  -0.62062  -0.61591  -0.60023  -0.58257
 Alpha  occ. eigenvalues --   -0.56045  -0.55168  -0.53349  -0.53151  -0.52924
 Alpha  occ. eigenvalues --   -0.52805  -0.50580  -0.48761  -0.48755  -0.48557
 Alpha  occ. eigenvalues --   -0.47279  -0.46422  -0.46328  -0.44765  -0.44436
 Alpha  occ. eigenvalues --   -0.37268  -0.36318
 Alpha virt. eigenvalues --    0.05089   0.11331   0.16507   0.20305   0.22439
 Alpha virt. eigenvalues --    0.23824   0.25605   0.26438   0.26923   0.27460
 Alpha virt. eigenvalues --    0.28736   0.30198   0.31067   0.31454   0.32288

 Mulliken charges:
               1
     1  C   -0.297841
     2  C   -0.300080
     3  C   -0.476846
     4  H    0.144951
     5  H    0.151750
     6  H    0.152120
     7  H    0.155604
     8  H    0.161380
     9  H    0.143940
    10  H    0.160487
    11  C   -0.298706
    12  C   -0.299957
    13  C   -0.476032
    14  H    0.149877
    15  H    0.151532
    16  H    0.150834
    17  H    0.153009
    18  H    0.156275
    19  H    0.155489
    20  H    0.161549
    21  C   -0.168803
    22  C   -0.219260
    23  C   -0.171151
    24  C    0.158504
    25  C   -0.171028
    26  C   -0.219642
    27  H    0.227441
    28  H    0.223783
    29  H    0.275418
    30  H    0.275392
    31  H    0.223127
    32  N    0.488067
    33  O   -0.460612
    34  O   -0.460571
 Sum of Mulliken charges =  -0.00000

 Dipole moment (field-independent basis, Debye):
    X=             -4.6481    Y=              1.5926    Z=              2.0608  Tot=              5.3280
 Quadrupole moment (field-independent basis, Debye-Ang):
   XX=           -130.1720   YY=            -91.0254   ZZ=            -94.0459
   XY=              8.2277   XZ=              8.0559   YZ=             -1.3488

 Normal termination of Gaussian 16 at Wed May  5 23:34:46 2021.
