 Gaussian 16, Revision A.03,
 Gaussian 16:  EM64L-G16RevA.03 25-Dec-2016

 -------------
 #p 6-31g* mp2
 -------------

 ------------------------------------------------------
 Input file generated by CHIRIPA (05-May-2021 14:51:10)
 ------------------------------------------------------
 Symbolic Z-matrix:
 Charge =  0 Multiplicity = 1

                         Standard orientation:
 ---------------------------------------------------------------------
 Center     Atomic      Atomic             Coordinates (Angstroms)
 Number     Number       Type             X           Y           Z
 ---------------------------------------------------------------------
      1          6           0        3.804915    0.123381   -0.317710
      2          6           0        5.248805    0.055036    0.180784
      3          6           0        6.266415    0.404510   -0.905555
      4          1           0        3.684697   -0.561088   -1.168589
      5          1           0        3.603363    1.134122   -0.698728
      6          1           0        5.447152   -0.954881    0.562021
      7          1           0        5.365551    0.739606    1.030696
      8          1           0        6.096885    1.419171   -1.280151
      9          1           0        6.178949   -0.284943   -1.751490
     10          1           0        7.292065    0.349359   -0.527584
     11          6           0        2.775964   -0.223388    0.756877
     12          6           0        1.332074   -0.155043    0.258383
     13          6           0        0.314464   -0.504516    1.344722
     14          1           0        2.977516   -1.234129    1.137895
     15          1           0        2.896183    0.461082    1.607756
     16          1           0        1.215328   -0.839612   -0.591529
     17          1           0        1.133728    0.854875   -0.122854
     18          1           0        0.401930    0.184937    2.190656
     19          1           0        0.483994   -1.519177    1.719318
     20          1           0       -0.711185   -0.449365    0.966751
     21          6           0       -3.458489   -0.641389    0.058208
     22          6           0       -2.888751   -1.786452   -0.779774
     23          6           0       -3.233391   -3.163348   -0.211291
     24          1           0       -3.076559   -0.721737    1.085155
     25          1           0       -4.550071   -0.750319    0.121275
     26          1           0       -1.798711   -1.674619   -0.842395
     27          1           0       -3.271930   -1.703258   -1.804893
     28          1           0       -4.318604   -3.300169   -0.164459
     29          1           0       -2.837013   -3.271367    0.803508
     30          1           0       -2.816294   -3.967267   -0.825788
     31          6           0       -3.122390    0.741395   -0.497376
     32          6           0       -3.692128    1.886458    0.340608
     33          6           0       -3.347488    3.263355   -0.227876
     34          1           0       -2.030808    0.850326   -0.560442
     35          1           0       -3.504321    0.821743   -1.524321
     36          1           0       -3.308949    1.803264    1.365726
     37          1           0       -4.782169    1.774625    0.403228
     38          1           0       -3.743866    3.371374   -1.242675
     39          1           0       -2.262276    3.400175   -0.274708
     40          1           0       -3.764585    4.067273    0.386620
 ---------------------------------------------------------------------

 SCF Done:  E(RHF) =  -470.732201489     A.U. after   11 cycles
 E2 =    -0.1584416370D+01 EUMP2 =    -0.47231661785957D+03

 The electronic state is 1-A.
 Alpha  occ. eigenvalues --  -11.21677 -11.21623 -11.21599 -11.21584 -11.21444
 Alpha  occ. eigenvalues --  -11.21404 -11.21382 -11.21344 -11.21087 -11.21073
 Alpha  occ. eigenvalues --  -11.21064 -11.21056  -1.08506  -1.08420  -1.03589
 Alpha  occ. eigenvalues --   -1.03514  -0.96064  -0.95945  -0.87066  -0.86974
 Alpha  occ. eigenvalues --   -0.79642  -0.79590  -0.78313  -0.78226  -0.65258
 Alpha  occ. eigenvalues --   -0.65101  -0.61092  -0.60855  -0.59383  -0.59291
 Alpha  occ. eigenvalues --   -0.57653  -0.57563  -0.55363  -0.55219  -0.52731
 Alpha  occ. eigenvalues --   -0.52634  -0.52438  -0.52364  -0.49972  -0.49903
 Alpha  occ. eigenvalues --   -0.47957  -0.47896  -0.46701  -0.46602  -0.45836
 Alpha  occ. eigenvalues --   -0.45775  -0.45746  -0.45693  -0.43815  -0.43755
 Alpha virt. eigenvalues --    0.20488   0.23117   0.23881   0.24521   0.26422
 Alpha virt. eigenvalues --    0.26457   0.26631   0.27670   0.27904   0.29654
 Alpha virt. eigenvalues --    0.30260   0.31276   0.31620   0.31834   0.31971

 Mulliken charges:
               1
     1  C   -0.298327
     2  C   -0.299692
     3  C   -0.475735
     4  H    0.149775
     5  H    0.149588
     6  H    0.151992
     7  H    0.151981
     8  H    0.155241
     9  H    0.155243
    10  H    0.160337
    11  C   -0.298575
    12  C   -0.300890
    13  C   -0.487504
    14  H    0.149849
    15  H    0.149897
    16  H    0.152640
    17  H    0.151798
    18  H    0.154936
    19  H    0.155134
    20  H    0.173756
    21  C   -0.304661
    22  C   -0.303074
    23  C   -0.475619
    24  H    0.151163
    25  H    0.151980
    26  H    0.155374
    27  H    0.152270
    28  H    0.155154
    29  H    0.155778
    30  H    0.159995
    31  C   -0.302726
    32  C   -0.299488
    33  C   -0.475673
    34  H    0.152797
    35  H    0.150377
    36  H    0.152375
    37  H    0.152073
    38  H    0.155186
    39  H    0.155015
    40  H    0.160259
 Sum of Mulliken charges =  -0.00000

 Dipole moment (field-independent basis, Debye):
    X=             -0.0018    Y=             -0.0019    Z=             -0.0029  Tot=              0.0039
 Quadrupole moment (field-independent basis, Debye-Ang):
   XX=            -84.7642   YY=            -84.9982   ZZ=            -84.9687
   XY=             -0.4089   XZ=              1.0647   YZ=              0.7449

 Normal termination of Gaussian 16 at Wed May  5 19:46:25 2021.
