 Gaussian 16, Revision A.03,
 Gaussian 16:  EM64L-G16RevA.03 25-Dec-2016

 -------------
 #p 6-31g* mp2
 -------------

 ------------------------------------------------------
 Input file generated by CHIRIPA (05-May-2021 14:57:22)
 ------------------------------------------------------
 Symbolic Z-matrix:
 Charge =  0 Multiplicity = 1

                         Standard orientation:
 ---------------------------------------------------------------------
 Center     Atomic      Atomic             Coordinates (Angstroms)
 Number     Number       Type             X           Y           Z
 ---------------------------------------------------------------------
      1          6           0       -3.911519    1.621886    0.085988
      2          6           0       -2.736024    1.764335   -0.658620
      3          6           0       -1.875517    0.677814   -0.841781
      4          6           0       -2.223032   -0.542148   -0.263667
      5          6           0       -3.387026   -0.715677    0.483525
      6          6           0       -4.232702    0.384516    0.653682
      7          1           0       -4.574221    2.471233    0.223221
      8          1           0       -2.484044    2.724103   -1.100656
      9          1           0       -0.959151    0.760206   -1.413536
     10          1           0       -3.611399   -1.684956    0.911980
     11          1           0       -5.144943    0.270966    1.232446
     12          7           0       -1.319903   -1.699636   -0.450689
     13          8           0       -1.648702   -2.763842    0.068920
     14          8           0       -0.300331   -1.520752   -1.113344
     15          6           0        2.794518   -2.135399    0.289715
     16          6           0        3.263032   -1.370093   -0.783283
     17          6           0        3.034659    0.008540   -0.825270
     18          6           0        2.331020    0.591792    0.227345
     19          6           0        1.851509   -0.143706    1.310121
     20          6           0        2.091491   -1.520845    1.331157
     21          1           0        2.976434   -3.205774    0.314194
     22          1           0        3.809308   -1.844677   -1.593466
     23          1           0        3.386143    0.624833   -1.643842
     24          1           0        1.310069    0.357686    2.103132
     25          1           0        1.726461   -2.112695    2.165730
     26          7           0        2.083106    2.050500    0.193985
     27          8           0        1.460571    2.540449    1.133685
     28          8           0        2.516021    2.676263   -0.771230
 ---------------------------------------------------------------------

 SCF Done:  E(RHF) =  -868.339073339     A.U. after   16 cycles
 E2 =    -0.2602209479D+01 EUMP2 =    -0.87094128281820D+03

 The electronic state is 1-A.
 Alpha  occ. eigenvalues --  -20.60993 -20.60940 -20.60449 -20.60444 -15.85974
 Alpha  occ. eigenvalues --  -15.85479 -11.31120 -11.30347 -11.27680 -11.27610
 Alpha  occ. eigenvalues --  -11.27318 -11.26894 -11.26890 -11.26647 -11.26527
 Alpha  occ. eigenvalues --  -11.26463 -11.25754 -11.25741  -1.60038  -1.59546
 Alpha  occ. eigenvalues --   -1.39600  -1.39107  -1.19257  -1.18452  -1.08697
 Alpha  occ. eigenvalues --   -1.07934  -1.04613  -1.03820  -0.95576  -0.94869
 Alpha  occ. eigenvalues --   -0.86028  -0.85254  -0.82413  -0.81749  -0.77496
 Alpha  occ. eigenvalues --   -0.76858  -0.72245  -0.71713  -0.71384  -0.70867
 Alpha  occ. eigenvalues --   -0.70357  -0.69598  -0.64909  -0.64606  -0.64140
 Alpha  occ. eigenvalues --   -0.63856  -0.61967  -0.61225  -0.55126  -0.54322
 Alpha  occ. eigenvalues --   -0.52972  -0.52698  -0.52116  -0.51950  -0.49014
 Alpha  occ. eigenvalues --   -0.48953  -0.48492  -0.48425  -0.44981  -0.44618
 Alpha  occ. eigenvalues --   -0.37242  -0.36314  -0.36135  -0.35362
 Alpha virt. eigenvalues --    0.04983   0.05654   0.11392   0.12309   0.16549
 Alpha virt. eigenvalues --    0.17317   0.21593   0.22313   0.27470   0.28154
 Alpha virt. eigenvalues --    0.28342   0.29168   0.31122   0.31797   0.32490

 Mulliken charges:
               1
     1  C   -0.170175
     2  C   -0.214573
     3  C   -0.170921
     4  C    0.156517
     5  C   -0.172912
     6  C   -0.218426
     7  H    0.227041
     8  H    0.230435
     9  H    0.275393
    10  H    0.272881
    11  H    0.222715
    12  N    0.488626
    13  O   -0.466435
    14  O   -0.459342
    15  C   -0.153571
    16  C   -0.210484
    17  C   -0.169198
    18  C    0.159142
    19  C   -0.177533
    20  C   -0.213010
    21  H    0.226042
    22  H    0.220823
    23  H    0.270543
    24  H    0.269673
    25  H    0.222559
    26  N    0.485177
    27  O   -0.465652
    28  O   -0.465338
 Sum of Mulliken charges =  -0.00000

 Dipole moment (field-independent basis, Debye):
    X=             -2.3429    Y=             -1.2526    Z=              0.6463  Tot=              2.7342
 Quadrupole moment (field-independent basis, Debye-Ang):
   XX=            -84.5103   YY=           -114.6322   ZZ=           -100.8126
   XY=            -18.2939   XZ=             -4.6722   YZ=             -4.7098

 Normal termination of Gaussian 16 at Thu May  6 09:43:16 2021.
