 Gaussian 16, Revision A.03,
 Gaussian 16:  EM64L-G16RevA.03 25-Dec-2016

 -------------
 #p 6-31g* mp2
 -------------

 ------------------------------------------------------
 Input file generated by CHIRIPA (05-May-2021 14:53:16)
 ------------------------------------------------------
 Symbolic Z-matrix:
 Charge =  0 Multiplicity = 1

                         Standard orientation:
 ---------------------------------------------------------------------
 Center     Atomic      Atomic             Coordinates (Angstroms)
 Number     Number       Type             X           Y           Z
 ---------------------------------------------------------------------
      1          6           0       -5.695506   -0.070071    0.214672
      2          6           0       -6.430079   -0.876017   -0.857168
      3          6           0       -7.927376   -1.006405   -0.576287
      4          1           0       -5.846373   -0.548676    1.191975
      5          1           0       -6.145020    0.930208    0.283771
      6          1           0       -5.978417   -1.874010   -0.925190
      7          1           0       -6.277287   -0.395544   -1.832061
      8          1           0       -8.397881   -0.018989   -0.529003
      9          1           0       -8.097313   -1.505855    0.383022
     10          1           0       -8.432905   -1.586165   -1.354861
     11          6           0       -4.197779    0.069032   -0.052144
     12          6           0       -3.463206    0.874978    1.019696
     13          6           0       -1.965909    1.005366    0.738814
     14          1           0       -3.748265   -0.931246   -0.121243
     15          1           0       -4.046912    0.547637   -1.029447
     16          1           0       -3.615998    0.394505    1.994589
     17          1           0       -3.914869    1.872971    1.087718
     18          1           0       -1.795973    1.504816   -0.220494
     19          1           0       -1.495404    0.017950    0.691530
     20          1           0       -1.460380    1.585126    1.517389
     21          6           0        1.906713    1.591847   -0.071055
     22          6           0        3.099950    1.946995   -0.708690
     23          6           0        4.191207    1.073096   -0.710836
     24          6           0        4.053842   -0.153449   -0.062756
     25          6           0        2.878221   -0.536045    0.581311
     26          6           0        1.799846    0.353643    0.570780
     27          1           0        1.064002    2.276845   -0.074312
     28          1           0        3.185801    2.907943   -1.207943
     29          1           0        5.126642    1.322669   -1.196729
     30          1           0        2.822743   -1.500894    1.070605
     31          1           0        0.874387    0.075171    1.066787
     32          7           0        5.202288   -1.086965   -0.058317
     33          8           0        5.055855   -2.161703    0.519723
     34          8           0        6.227129   -0.726239   -0.632962
 ---------------------------------------------------------------------

 SCF Done:  E(RHF) =  -669.535357390     A.U. after   15 cycles
 E2 =    -0.2091354495D+01 EUMP2 =    -0.67162671188532D+03

 The electronic state is 1-A.
 Alpha  occ. eigenvalues --  -20.60678 -20.60673 -15.85730 -11.31066 -11.27637
 Alpha  occ. eigenvalues --  -11.27615 -11.27333 -11.26645 -11.26555 -11.22602
 Alpha  occ. eigenvalues --  -11.22490 -11.22150 -11.22082 -11.21964 -11.21464
 Alpha  occ. eigenvalues --   -1.59755  -1.39309  -1.19230  -1.09167  -1.08626
 Alpha  occ. eigenvalues --   -1.04633  -1.04321  -0.96814  -0.95466  -0.87857
 Alpha  occ. eigenvalues --   -0.86017  -0.82303  -0.80414  -0.78920  -0.77357
 Alpha  occ. eigenvalues --   -0.71949  -0.71077  -0.70330  -0.65800  -0.64877
 Alpha  occ. eigenvalues --   -0.64650  -0.62051  -0.61668  -0.60205  -0.58373
 Alpha  occ. eigenvalues --   -0.56142  -0.55088  -0.53567  -0.53269  -0.52945
 Alpha  occ. eigenvalues --   -0.52655  -0.50717  -0.48740  -0.48706  -0.48663
 Alpha  occ. eigenvalues --   -0.47395  -0.46476  -0.46361  -0.44721  -0.44555
 Alpha  occ. eigenvalues --   -0.37203  -0.36234
 Alpha virt. eigenvalues --    0.05169   0.11382   0.16658   0.20207   0.22327
 Alpha virt. eigenvalues --    0.23797   0.25578   0.25801   0.26880   0.27491
 Alpha virt. eigenvalues --    0.29151   0.29724   0.30587   0.31616   0.32149

 Mulliken charges:
               1
     1  C   -0.299033
     2  C   -0.300220
     3  C   -0.476123
     4  H    0.150888
     5  H    0.150396
     6  H    0.152979
     7  H    0.152507
     8  H    0.155611
     9  H    0.155929
    10  H    0.161876
    11  C   -0.299458
    12  C   -0.299723
    13  C   -0.484358
    14  H    0.151002
    15  H    0.150586
    16  H    0.155241
    17  H    0.154924
    18  H    0.156200
    19  H    0.154702
    20  H    0.158324
    21  C   -0.174318
    22  C   -0.218694
    23  C   -0.171358
    24  C    0.158693
    25  C   -0.172164
    26  C   -0.222710
    27  H    0.228126
    28  H    0.222719
    29  H    0.275033
    30  H    0.275008
    31  H    0.231048
    32  N    0.488019
    33  O   -0.460827
    34  O   -0.460828
 Sum of Mulliken charges =  -0.00000

 Dipole moment (field-independent basis, Debye):
    X=             -4.3646    Y=              3.2838    Z=             -0.0207  Tot=              5.4620
 Quadrupole moment (field-independent basis, Debye-Ang):
   XX=           -127.0054   YY=            -93.3133   ZZ=            -93.7345
   XY=             15.7760   XZ=             -1.3063   YZ=             -2.7115

 Normal termination of Gaussian 16 at Thu May  6 15:34:32 2021.
