 Gaussian 16, Revision A.03,
 Gaussian 16:  EM64L-G16RevA.03 25-Dec-2016

 -------------
 #p 6-31g* mp2
 -------------

 ------------------------------------------------------
 Input file generated by CHIRIPA (05-May-2021 14:55:21)
 ------------------------------------------------------
 Symbolic Z-matrix:
 Charge =  0 Multiplicity = 1

                         Standard orientation:
 ---------------------------------------------------------------------
 Center     Atomic      Atomic             Coordinates (Angstroms)
 Number     Number       Type             X           Y           Z
 ---------------------------------------------------------------------
      1          6           0        2.444329    2.011630    1.058928
      2          6           0        3.434837    1.560025    0.180595
      3          6           0        3.412750    0.247403   -0.300115
      4          6           0        2.380871   -0.590440    0.120046
      5          6           0        1.379677   -0.170035    0.994210
      6          6           0        1.421713    1.146683    1.462221
      7          1           0        2.469235    3.032897    1.427423
      8          1           0        4.230218    2.229541   -0.134305
      9          1           0        4.166928   -0.128279   -0.980921
     10          1           0        0.599493   -0.860759    1.290234
     11          1           0        0.651147    1.494672    2.144259
     12          7           0        2.346929   -1.982222   -0.382138
     13          8           0        1.427128   -2.700677    0.003124
     14          8           0        3.240768   -2.328293   -1.151504
     15          6           0       -3.752063    0.198145   -0.094129
     16          6           0       -3.771678   -1.293185    0.242823
     17          6           0       -5.173868   -1.806558    0.571616
     18          1           0       -4.162064    0.764449    0.753305
     19          1           0       -4.420489    0.383194   -0.946396
     20          1           0       -3.102349   -1.475579    1.093322
     21          1           0       -3.361406   -1.855990   -0.605436
     22          1           0       -5.848885   -1.653482   -0.276629
     23          1           0       -5.588357   -1.270909    1.431780
     24          1           0       -5.164748   -2.874833    0.809450
     25          6           0       -2.357286    0.726162   -0.425071
     26          6           0       -2.337672    2.217491   -0.762023
     27          6           0       -0.935482    2.730864   -1.090816
     28          1           0       -1.688862    0.541112    0.427196
     29          1           0       -1.947287    0.159857   -1.272505
     30          1           0       -2.747944    2.780296    0.086236
     31          1           0       -3.007001    2.399885   -1.612521
     32          1           0       -0.520994    2.195215   -1.950980
     33          1           0       -0.260465    2.577788   -0.242571
     34          1           0       -0.944601    3.799139   -1.328650
 ---------------------------------------------------------------------

 SCF Done:  E(RHF) =  -669.534316662     A.U. after   15 cycles
 E2 =    -0.2093791465D+01 EUMP2 =    -0.67162810812790D+03

 The electronic state is 1-A.
 Alpha  occ. eigenvalues --  -20.60788 -20.60782 -15.85842 -11.31226 -11.27799
 Alpha  occ. eigenvalues --  -11.27790 -11.27541 -11.26817 -11.26807 -11.21873
 Alpha  occ. eigenvalues --  -11.21646 -11.21609 -11.21505 -11.21241 -11.21047
 Alpha  occ. eigenvalues --   -1.59863  -1.39415  -1.19411  -1.08808  -1.08605
 Alpha  occ. eigenvalues --   -1.04824  -1.03663  -0.96126  -0.95627  -0.87145
 Alpha  occ. eigenvalues --   -0.86214  -0.82466  -0.79736  -0.78428  -0.77495
 Alpha  occ. eigenvalues --   -0.72061  -0.71185  -0.70511  -0.65274  -0.65062
 Alpha  occ. eigenvalues --   -0.64825  -0.62171  -0.61074  -0.59496  -0.57739
 Alpha  occ. eigenvalues --   -0.55461  -0.55314  -0.53264  -0.52914  -0.52802
 Alpha  occ. eigenvalues --   -0.52445  -0.50069  -0.48822  -0.48813  -0.48023
 Alpha  occ. eigenvalues --   -0.46782  -0.45955  -0.45883  -0.44814  -0.43937
 Alpha  occ. eigenvalues --   -0.37335  -0.36326
 Alpha virt. eigenvalues --    0.04993   0.11132   0.16381   0.20211   0.23022
 Alpha virt. eigenvalues --    0.24126   0.25155   0.26887   0.27427   0.28335
 Alpha virt. eigenvalues --    0.29691   0.30523   0.31514   0.31623   0.31949

 Mulliken charges:
               1
     1  C   -0.168756
     2  C   -0.217771
     3  C   -0.170819
     4  C    0.157437
     5  C   -0.166844
     6  C   -0.221003
     7  H    0.226471
     8  H    0.223883
     9  H    0.275827
    10  H    0.276210
    11  H    0.224033
    12  N    0.488008
    13  O   -0.459996
    14  O   -0.460495
    15  C   -0.298679
    16  C   -0.299468
    17  C   -0.476038
    18  H    0.147269
    19  H    0.151108
    20  H    0.148903
    21  H    0.158115
    22  H    0.155543
    23  H    0.153410
    24  H    0.162804
    25  C   -0.297836
    26  C   -0.299771
    27  C   -0.480488
    28  H    0.140033
    29  H    0.155378
    30  H    0.148290
    31  H    0.153880
    32  H    0.157697
    33  H    0.156651
    34  H    0.157014
 Sum of Mulliken charges =  -0.00000

 Dipole moment (field-independent basis, Debye):
    X=              0.1769    Y=              4.7986    Z=              1.7082  Tot=              5.0966
 Quadrupole moment (field-independent basis, Debye-Ang):
   XX=            -91.6579   YY=           -101.4939   ZZ=            -92.5811
   XY=             12.5230   XZ=              2.3285   YZ=             -0.4896

 Normal termination of Gaussian 16 at Thu May  6 09:18:57 2021.
