 Gaussian 16, Revision A.03,
 Gaussian 16:  EM64L-G16RevA.03 25-Dec-2016

 -------------
 #p 6-31g* mp2
 -------------

 ------------------------------------------------------
 Input file generated by CHIRIPA (05-May-2021 14:57:24)
 ------------------------------------------------------
 Symbolic Z-matrix:
 Charge =  0 Multiplicity = 1

                         Standard orientation:
 ---------------------------------------------------------------------
 Center     Atomic      Atomic             Coordinates (Angstroms)
 Number     Number       Type             X           Y           Z
 ---------------------------------------------------------------------
      1          6           0       -1.698685    1.580030    1.883735
      2          6           0       -2.085822    2.212668    0.697812
      3          6           0       -2.777292    1.506186   -0.290773
      4          6           0       -3.066475    0.162278   -0.059308
      5          6           0       -2.694254   -0.496067    1.111727
      6          6           0       -2.003598    0.230061    2.086550
      7          1           0       -1.161851    2.136473    2.646347
      8          1           0       -1.850373    3.260969    0.537585
      9          1           0       -3.088908    1.971219   -1.218166
     10          1           0       -2.943200   -1.542137    1.242802
     11          1           0       -1.704190   -0.263847    3.006580
     12          7           0       -3.798072   -0.596042   -1.098595
     13          8           0       -4.040820   -1.779122   -0.870488
     14          8           0       -4.114896    0.007025   -2.121614
     15          6           0        0.918996   -1.634697    0.552849
     16          6           0        2.200416   -2.171521    0.715030
     17          6           0        3.330618   -1.433950    0.350094
     18          6           0        3.141852   -0.156993   -0.176251
     19          6           0        1.878210    0.405410   -0.350036
     20          6           0        0.762259   -0.350209    0.021769
     21          1           0        0.046563   -2.214671    0.839007
     22          1           0        2.325155   -3.168811    1.127216
     23          1           0        4.334183   -1.825229    0.464885
     24          1           0        1.785640    1.402299   -0.763634
     25          1           0       -0.231700    0.069244   -0.105311
     26          7           0        4.330804    0.633395   -0.566230
     27          8           0        4.137673    1.756082   -1.027651
     28          8           0        5.433321    0.115247   -0.403087
 ---------------------------------------------------------------------

 SCF Done:  E(RHF) =  -868.335561829     A.U. after   16 cycles
 E2 =    -0.2605289413D+01 EUMP2 =    -0.87094085124208D+03

 The electronic state is 1-A.
 Alpha  occ. eigenvalues --  -20.61829 -20.61812 -20.60903 -20.60895 -15.86887
 Alpha  occ. eigenvalues --  -15.85948 -11.32526 -11.31279 -11.29047 -11.29037
 Alpha  occ. eigenvalues --  -11.28674 -11.28040 -11.28026 -11.27800 -11.27761
 Alpha  occ. eigenvalues --  -11.27500 -11.26858 -11.26607  -1.60897  -1.59977
 Alpha  occ. eigenvalues --   -1.40441  -1.39532  -1.20739  -1.19412  -1.09996
 Alpha  occ. eigenvalues --   -1.08824  -1.06104  -1.04797  -0.96791  -0.95673
 Alpha  occ. eigenvalues --   -0.87428  -0.86212  -0.83597  -0.82501  -0.78646
 Alpha  occ. eigenvalues --   -0.77570  -0.73079  -0.72256  -0.72160  -0.71659
 Alpha  occ. eigenvalues --   -0.71299  -0.70549  -0.66268  -0.65997  -0.65060
 Alpha  occ. eigenvalues --   -0.64926  -0.63390  -0.62265  -0.56449  -0.55413
 Alpha  occ. eigenvalues --   -0.54647  -0.54095  -0.53151  -0.52290  -0.49865
 Alpha  occ. eigenvalues --   -0.49831  -0.48929  -0.48900  -0.45784  -0.44946
 Alpha  occ. eigenvalues --   -0.38862  -0.37943  -0.37204  -0.36235
 Alpha virt. eigenvalues --    0.03818   0.04956   0.09751   0.11375   0.15244
 Alpha virt. eigenvalues --    0.16525   0.19968   0.21850   0.25499   0.27024
 Alpha virt. eigenvalues --    0.27688   0.28940   0.30081   0.30851   0.32030

 Mulliken charges:
               1
     1  C   -0.170730
     2  C   -0.222272
     3  C   -0.177915
     4  C    0.157577
     5  C   -0.187035
     6  C   -0.216089
     7  H    0.233491
     8  H    0.231344
     9  H    0.281546
    10  H    0.276403
    11  H    0.228292
    12  N    0.488620
    13  O   -0.458805
    14  O   -0.455104
    15  C   -0.177181
    16  C   -0.218023
    17  C   -0.172872
    18  C    0.159611
    19  C   -0.178988
    20  C   -0.216532
    21  H    0.221038
    22  H    0.223043
    23  H    0.275189
    24  H    0.272204
    25  H    0.236975
    26  N    0.487991
    27  O   -0.461709
    28  O   -0.460069
 Sum of Mulliken charges =  -0.00000

 Dipole moment (field-independent basis, Debye):
    X=             -1.9523    Y=              0.0852    Z=              5.0902  Tot=              5.4525
 Quadrupole moment (field-independent basis, Debye-Ang):
   XX=           -146.0754   YY=            -97.0206   ZZ=           -104.4728
   XY=            -19.0713   XZ=             -5.1846   YZ=             -2.9454

 Normal termination of Gaussian 16 at Fri May  7 12:35:12 2021.
