 Gaussian 16, Revision A.03,
 Gaussian 16:  EM64L-G16RevA.03 25-Dec-2016

 -------------
 #p 6-31g* mp2
 -------------

 ------------------------------------------------------
 Input file generated by CHIRIPA (05-May-2021 14:51:14)
 ------------------------------------------------------
 Symbolic Z-matrix:
 Charge =  0 Multiplicity = 1

                         Standard orientation:
 ---------------------------------------------------------------------
 Center     Atomic      Atomic             Coordinates (Angstroms)
 Number     Number       Type             X           Y           Z
 ---------------------------------------------------------------------
      1          6           0        4.037975   -0.248682    0.366226
      2          6           0        4.986128   -0.148485   -0.829161
      3          6           0        6.453641   -0.044986   -0.412645
      4          1           0        4.176576    0.630153    1.010729
      5          1           0        4.311467   -1.125197    0.969814
      6          1           0        4.710057    0.726790   -1.431071
      7          1           0        4.845117   -1.027566   -1.470994
      8          1           0        6.751794   -0.923121    0.169235
      9          1           0        6.615967    0.841203    0.209385
     10          1           0        7.113879    0.025642   -1.282679
     11          6           0        2.567370   -0.352788   -0.034040
     12          6           0        1.619218   -0.452985    1.161348
     13          6           0        0.151704   -0.556484    0.744832
     14          1           0        2.293878    0.523727   -0.637628
     15          1           0        2.428770   -1.231623   -0.678543
     16          1           0        1.760228    0.426096    1.803180
     17          1           0        1.895288   -1.328260    1.763257
     18          1           0       -0.010622   -1.442673    0.122802
     19          1           0       -0.146449    0.321651    0.162952
     20          1           0       -0.508533   -0.627112    1.614865
     21          6           0       -3.563495   -0.329412    0.177881
     22          6           0       -3.874602   -1.466921   -0.795397
     23          6           0       -4.395446   -2.720745   -0.092232
     24          1           0       -2.821944   -0.675164    0.911028
     25          1           0       -4.471839   -0.082446    0.744728
     26          1           0       -2.966296   -1.710734   -1.361215
     27          1           0       -4.615356   -1.118359   -1.526428
     28          1           0       -5.315687   -2.499617    0.458097
     29          1           0       -3.657258   -3.095358    0.624247
     30          1           0       -4.611431   -3.521253   -0.806654
     31          6           0       -3.041851    0.930881   -0.510068
     32          6           0       -2.730743    2.068391    0.463210
     33          6           0       -2.209898    3.322215   -0.239954
     34          1           0       -2.133507    0.683916   -1.076914
     35          1           0       -3.783401    1.276635   -1.243215
     36          1           0       -1.989990    1.719829    1.194241
     37          1           0       -3.639049    2.312204    1.029029
     38          1           0       -2.948087    3.696828   -0.956434
     39          1           0       -1.289658    3.101087   -0.790284
     40          1           0       -1.993914    4.122723    0.474467
 ---------------------------------------------------------------------

 SCF Done:  E(RHF) =  -470.731595342     A.U. after   11 cycles
 E2 =    -0.1584689948D+01 EUMP2 =    -0.47231628528952D+03

 The electronic state is 1-A.
 Alpha  occ. eigenvalues --  -11.21674 -11.21638 -11.21505 -11.21496 -11.21467
 Alpha  occ. eigenvalues --  -11.21403 -11.21261 -11.21189 -11.21164 -11.21099
 Alpha  occ. eigenvalues --  -11.21059 -11.21008  -1.08506  -1.08322  -1.03607
 Alpha  occ. eigenvalues --   -1.03452  -0.96093  -0.95878  -0.87098  -0.86921
 Alpha  occ. eigenvalues --   -0.79688  -0.79515  -0.78307  -0.78147  -0.65221
 Alpha  occ. eigenvalues --   -0.64929  -0.61206  -0.60681  -0.59447  -0.59269
 Alpha  occ. eigenvalues --   -0.57694  -0.57493  -0.55359  -0.55206  -0.52788
 Alpha  occ. eigenvalues --   -0.52585  -0.52485  -0.52313  -0.50192  -0.49658
 Alpha  occ. eigenvalues --   -0.48013  -0.47822  -0.46685  -0.46547  -0.45908
 Alpha  occ. eigenvalues --   -0.45779  -0.45652  -0.45509  -0.43770  -0.43669
 Alpha virt. eigenvalues --    0.20860   0.22937   0.23650   0.24499   0.26131
 Alpha virt. eigenvalues --    0.26386   0.26715   0.27896   0.27916   0.29903
 Alpha virt. eigenvalues --    0.30048   0.31498   0.31520   0.31800   0.32320

 Mulliken charges:
               1
     1  C   -0.298342
     2  C   -0.299688
     3  C   -0.475745
     4  H    0.149850
     5  H    0.149691
     6  H    0.152023
     7  H    0.151986
     8  H    0.155235
     9  H    0.155274
    10  H    0.160403
    11  C   -0.298798
    12  C   -0.300463
    13  C   -0.481499
    14  H    0.149343
    15  H    0.149711
    16  H    0.152278
    17  H    0.152120
    18  H    0.155347
    19  H    0.162116
    20  H    0.161406
    21  C   -0.302550
    22  C   -0.299875
    23  C   -0.475707
    24  H    0.156788
    25  H    0.148496
    26  H    0.152101
    27  H    0.151437
    28  H    0.154958
    29  H    0.154927
    30  H    0.159786
    31  C   -0.300363
    32  C   -0.303900
    33  C   -0.475919
    34  H    0.151243
    35  H    0.149549
    36  H    0.155671
    37  H    0.152008
    38  H    0.155519
    39  H    0.153568
    40  H    0.160013
 Sum of Mulliken charges =  -0.00000

 Dipole moment (field-independent basis, Debye):
    X=              0.0552    Y=             -0.0157    Z=              0.0212  Tot=              0.0611
 Quadrupole moment (field-independent basis, Debye-Ang):
   XX=            -85.4526   YY=            -84.7053   ZZ=            -84.9508
   XY=             -0.8658   XZ=              0.0249   YZ=              0.3398

 Normal termination of Gaussian 16 at Thu May  6 04:01:15 2021.
