 Gaussian 16, Revision A.03,
 Gaussian 16:  EM64L-G16RevA.03 25-Dec-2016

 -------------
 #p 6-31g* mp2
 -------------

 ------------------------------------------------------
 Input file generated by CHIRIPA (05-May-2021 14:51:09)
 ------------------------------------------------------
 Symbolic Z-matrix:
 Charge =  0 Multiplicity = 1

                         Standard orientation:
 ---------------------------------------------------------------------
 Center     Atomic      Atomic             Coordinates (Angstroms)
 Number     Number       Type             X           Y           Z
 ---------------------------------------------------------------------
      1          6           0        3.593160    0.810218   -0.016637
      2          6           0        2.823931    2.126852   -0.129531
      3          6           0        3.635664    3.329060    0.353771
      4          1           0        3.892084    0.656076    1.029226
      5          1           0        4.521734    0.885006   -0.599348
      6          1           0        1.896416    2.049115    0.452094
      7          1           0        2.526638    2.277784   -1.175213
      8          1           0        4.553940    3.434836   -0.232900
      9          1           0        3.920136    3.204868    1.403653
     10          1           0        3.066772    4.259761    0.264233
     11          6           0        2.794848   -0.400836   -0.495985
     12          6           0        3.564076   -1.717471   -0.383091
     13          6           0        2.752343   -2.919679   -0.866393
     14          1           0        1.866274   -0.475624    0.086726
     15          1           0        2.495924   -0.246694   -1.541848
     16          1           0        3.861369   -1.868402    0.662592
     17          1           0        4.491592   -1.639733   -0.964716
     18          1           0        2.467872   -2.795487   -1.916275
     19          1           0        1.834068   -3.025455   -0.279722
     20          1           0        3.321235   -3.850380   -0.776855
     21          6           0       -2.791211   -0.815073    0.476819
     22          6           0       -1.375360   -0.471832    0.941076
     23          6           0       -0.582010   -1.703322    1.379049
     24          1           0       -3.323602   -1.325477    1.291063
     25          1           0       -2.733431   -1.530221   -0.355419
     26          1           0       -1.435754    0.243518    1.771283
     27          1           0       -0.846341    0.037986    0.125698
     28          1           0       -0.492129   -2.417188    0.553871
     29          1           0       -1.084891   -2.210488    2.208805
     30          1           0        0.427118   -1.435041    1.706989
     31          6           0       -3.596796    0.405692    0.035803
     32          6           0       -5.012648    0.062451   -0.428454
     33          6           0       -5.805998    1.293941   -0.866428
     34          1           0       -3.654576    1.120839    0.868041
     35          1           0       -3.064405    0.916096   -0.778440
     36          1           0       -5.541667   -0.447367    0.386924
     37          1           0       -4.952253   -0.652899   -1.258661
     38          1           0       -5.303117    1.801106   -1.696184
     39          1           0       -5.895879    2.007807   -0.041249
     40          1           0       -6.815126    1.025659   -1.194367
 ---------------------------------------------------------------------

 SCF Done:  E(RHF) =  -470.732596429     A.U. after   11 cycles
 E2 =    -0.1583906177D+01 EUMP2 =    -0.47231650260583D+03

 The electronic state is 1-A.
 Alpha  occ. eigenvalues --  -11.21662 -11.21619 -11.21582 -11.21551 -11.21440
 Alpha  occ. eigenvalues --  -11.21377 -11.21356 -11.21272 -11.21155 -11.21083
 Alpha  occ. eigenvalues --  -11.21056 -11.20974  -1.08479  -1.08382  -1.03594
 Alpha  occ. eigenvalues --   -1.03477  -0.96038  -0.95936  -0.87057  -0.86954
 Alpha  occ. eigenvalues --   -0.79668  -0.79528  -0.78295  -0.78196  -0.65184
 Alpha  occ. eigenvalues --   -0.64977  -0.61087  -0.60809  -0.59442  -0.59259
 Alpha  occ. eigenvalues --   -0.57732  -0.57487  -0.55364  -0.55192  -0.52755
 Alpha  occ. eigenvalues --   -0.52625  -0.52557  -0.52273  -0.50069  -0.49794
 Alpha  occ. eigenvalues --   -0.47951  -0.47856  -0.46725  -0.46495  -0.45898
 Alpha  occ. eigenvalues --   -0.45753  -0.45708  -0.45540  -0.43808  -0.43739
 Alpha virt. eigenvalues --    0.20862   0.23080   0.23736   0.24460   0.26145
 Alpha virt. eigenvalues --    0.26379   0.26643   0.27332   0.28237   0.29578
 Alpha virt. eigenvalues --    0.30547   0.31024   0.31756   0.32259   0.32377

 Mulliken charges:
               1
     1  C   -0.297635
     2  C   -0.300458
     3  C   -0.475625
     4  H    0.149045
     5  H    0.149451
     6  H    0.152670
     7  H    0.151599
     8  H    0.155186
     9  H    0.155106
    10  H    0.160189
    11  C   -0.309140
    12  C   -0.298645
    13  C   -0.481589
    14  H    0.161947
    15  H    0.148630
    16  H    0.151167
    17  H    0.151729
    18  H    0.154127
    19  H    0.161866
    20  H    0.159779
    21  C   -0.298448
    22  C   -0.303423
    23  C   -0.481422
    24  H    0.149809
    25  H    0.150100
    26  H    0.151880
    27  H    0.155467
    28  H    0.158812
    29  H    0.156467
    30  H    0.160928
    31  C   -0.298448
    32  C   -0.299719
    33  C   -0.475737
    34  H    0.149530
    35  H    0.150019
    36  H    0.151956
    37  H    0.152047
    38  H    0.155265
    39  H    0.155194
    40  H    0.160324
 Sum of Mulliken charges =  -0.00000

 Dipole moment (field-independent basis, Debye):
    X=             -0.0612    Y=             -0.0050    Z=              0.0155  Tot=              0.0634
 Quadrupole moment (field-independent basis, Debye-Ang):
   XX=            -85.4038   YY=            -86.3611   ZZ=            -83.2070
   XY=              0.1737   XZ=             -1.0040   YZ=             -0.0775

 Normal termination of Gaussian 16 at Wed May  5 22:59:29 2021.
