 Gaussian 16, Revision A.03,
 Gaussian 16:  EM64L-G16RevA.03 25-Dec-2016

 -------------
 #p 6-31g* mp2
 -------------

 ------------------------------------------------------
 Input file generated by CHIRIPA (05-May-2021 14:57:23)
 ------------------------------------------------------
 Symbolic Z-matrix:
 Charge =  0 Multiplicity = 1

                         Standard orientation:
 ---------------------------------------------------------------------
 Center     Atomic      Atomic             Coordinates (Angstroms)
 Number     Number       Type             X           Y           Z
 ---------------------------------------------------------------------
      1          6           0        2.533065    2.424595    0.401127
      2          6           0        2.304492    1.402713    1.328506
      3          6           0        2.681325    0.087109    1.042618
      4          6           0        3.287138   -0.172164   -0.185820
      5          6           0        3.528314    0.824242   -1.130436
      6          6           0        3.143170    2.132613   -0.823226
      7          1           0        2.237104    3.443779    0.631493
      8          1           0        1.830866    1.626544    2.280148
      9          1           0        2.516235   -0.723163    1.742347
     10          1           0        4.002446    0.570285   -2.070713
     11          1           0        3.321926    2.924212   -1.545350
     12          7           0        3.690473   -1.561106   -0.499763
     13          8           0        4.222507   -1.763496   -1.589081
     14          8           0        3.466935   -2.421069    0.349432
     15          6           0       -5.315249   -0.172409   -1.267800
     16          6           0       -4.460196    0.929232   -1.376396
     17          6           0       -3.296903    1.003914   -0.604567
     18          6           0       -3.018167   -0.045569    0.269606
     19          6           0       -3.850198   -1.156388    0.400358
     20          6           0       -5.008062   -1.209874   -0.381332
     21          1           0       -6.216814   -0.222192   -1.871205
     22          1           0       -4.696234    1.736404   -2.064003
     23          1           0       -2.617410    1.845098   -0.668739
     24          1           0       -3.588278   -1.945588    1.094604
     25          1           0       -5.670269   -2.066646   -0.294907
     26          7           0       -1.789515    0.022274    1.091927
     27          8           0       -1.566426   -0.915349    1.854639
     28          8           0       -1.072849    1.011789    0.958177
 ---------------------------------------------------------------------

 SCF Done:  E(RHF) =  -868.339038124     A.U. after   16 cycles
 E2 =    -0.2599616332D+01 EUMP2 =    -0.87093865445538D+03

 The electronic state is 1-A.
 Alpha  occ. eigenvalues --  -20.61294 -20.61280 -20.59814 -20.59791 -15.86312
 Alpha  occ. eigenvalues --  -15.84846 -11.31510 -11.29970 -11.28083 -11.28036
 Alpha  occ. eigenvalues --  -11.27772 -11.27052 -11.27017 -11.26560 -11.26349
 Alpha  occ. eigenvalues --  -11.26187 -11.25605 -11.25325  -1.60355  -1.58886
 Alpha  occ. eigenvalues --   -1.39912  -1.38444  -1.19667  -1.18099  -1.09097
 Alpha  occ. eigenvalues --   -1.07554  -1.05047  -1.03448  -0.95962  -0.94433
 Alpha  occ. eigenvalues --   -0.86453  -0.84877  -0.82800  -0.81264  -0.77867
 Alpha  occ. eigenvalues --   -0.76338  -0.72557  -0.71654  -0.71075  -0.70777
 Alpha  occ. eigenvalues --   -0.70205  -0.69239  -0.65326  -0.65052  -0.63757
 Alpha  occ. eigenvalues --   -0.63464  -0.62398  -0.60809  -0.55557  -0.54011
 Alpha  occ. eigenvalues --   -0.53382  -0.53140  -0.51828  -0.51556  -0.49310
 Alpha  occ. eigenvalues --   -0.49282  -0.47839  -0.47809  -0.45347  -0.43903
 Alpha  occ. eigenvalues --   -0.37637  -0.36641  -0.36078  -0.34960
 Alpha virt. eigenvalues --    0.04660   0.06167   0.11017   0.12642   0.16189
 Alpha virt. eigenvalues --    0.17742   0.21166   0.22647   0.27077   0.28041
 Alpha virt. eigenvalues --    0.28632   0.29474   0.30736   0.32153   0.32256

 Mulliken charges:
               1
     1  C   -0.172210
     2  C   -0.196069
     3  C   -0.170516
     4  C    0.156001
     5  C   -0.174857
     6  C   -0.219746
     7  H    0.220929
     8  H    0.229068
     9  H    0.278025
    10  H    0.269887
    11  H    0.216657
    12  N    0.487871
    13  O   -0.465942
    14  O   -0.460635
    15  C   -0.170054
    16  C   -0.218400
    17  C   -0.170445
    18  C    0.158427
    19  C   -0.169852
    20  C   -0.218402
    21  H    0.226874
    22  H    0.223615
    23  H    0.273270
    24  H    0.277285
    25  H    0.225213
    26  N    0.489879
    27  O   -0.459408
    28  O   -0.466466
 Sum of Mulliken charges =  -0.00000

 Dipole moment (field-independent basis, Debye):
    X=             -6.1755    Y=              4.6089    Z=             -1.5320  Tot=              7.8565
 Quadrupole moment (field-independent basis, Debye-Ang):
   XX=            -89.2675   YY=           -103.1861   ZZ=           -102.7794
   XY=             19.2985   XZ=             10.2838   YZ=             -4.5538

 Normal termination of Gaussian 16 at Fri May  7 11:01:24 2021.
