 Gaussian 16, Revision A.03,
 Gaussian 16:  EM64L-G16RevA.03 25-Dec-2016

 -------------
 #p 6-31g* mp2
 -------------

 ------------------------------------------------------
 Input file generated by CHIRIPA (05-May-2021 14:55:19)
 ------------------------------------------------------
 Symbolic Z-matrix:
 Charge =  0 Multiplicity = 1

                         Standard orientation:
 ---------------------------------------------------------------------
 Center     Atomic      Atomic             Coordinates (Angstroms)
 Number     Number       Type             X           Y           Z
 ---------------------------------------------------------------------
      1          6           0       -2.132279    2.311491    0.061731
      2          6           0       -2.429563    1.704719   -1.163002
      3          6           0       -3.080792    0.468260   -1.203242
      4          6           0       -3.421796   -0.136020    0.005829
      5          6           0       -3.139246    0.443209    1.241931
      6          6           0       -2.487443    1.679914    1.258179
      7          1           0       -1.626166    3.272098    0.083671
      8          1           0       -2.154928    2.192900   -2.093754
      9          1           0       -3.322976   -0.023819   -2.137385
     10          1           0       -3.425544   -0.067776    2.153164
     11          1           0       -2.257830    2.148800    2.210791
     12          7           0       -4.111526   -1.445133   -0.024071
     13          8           0       -4.401374   -1.956954    1.055125
     14          8           0       -4.349229   -1.934607   -1.126137
     15          6           0        3.657138    0.389280   -0.107523
     16          6           0        2.280166   -0.253350    0.062652
     17          6           0        1.135521    0.742279   -0.127884
     18          1           0        3.761904    1.212723    0.612137
     19          1           0        3.723327    0.838382   -1.108184
     20          1           0        2.217095   -0.702310    1.062189
     21          1           0        2.178739   -1.075482   -0.657367
     22          1           0        1.170209    1.182006   -1.129902
     23          1           0        1.208782    1.557299    0.599424
     24          1           0        0.160298    0.261744   -0.001848
     25          6           0        4.811649   -0.593408    0.079984
     26          6           0        6.188621    0.049222   -0.090190
     27          6           0        7.333265   -0.946408    0.100346
     28          1           0        4.745461   -1.042510    1.080645
     29          1           0        4.706883   -1.416851   -0.639675
     30          1           0        6.290047    0.871354    0.629829
     31          1           0        6.251692    0.498181   -1.089727
     32          1           0        7.260004   -1.761428   -0.626962
     33          1           0        7.298578   -1.386135    1.102364
     34          1           0        8.308489   -0.465873   -0.025690
 ---------------------------------------------------------------------

 SCF Done:  E(RHF) =  -669.534991893     A.U. after   15 cycles
 E2 =    -0.2092308195D+01 EUMP2 =    -0.67162730008793D+03

 The electronic state is 1-A.
 Alpha  occ. eigenvalues --  -20.60779 -20.60774 -15.85834 -11.31210 -11.27774
 Alpha  occ. eigenvalues --  -11.27764 -11.27478 -11.26760 -11.26748 -11.21815
 Alpha  occ. eigenvalues --  -11.21786 -11.21638 -11.21551 -11.21353 -11.21214
 Alpha  occ. eigenvalues --   -1.59856  -1.39409  -1.19379  -1.08769  -1.08643
 Alpha  occ. eigenvalues --   -1.04773  -1.03746  -0.96207  -0.95595  -0.87226
 Alpha  occ. eigenvalues --   -0.86167  -0.82427  -0.79816  -0.78462  -0.77480
 Alpha  occ. eigenvalues --   -0.72050  -0.71181  -0.70468  -0.65281  -0.65019
 Alpha  occ. eigenvalues --   -0.64769  -0.62119  -0.61150  -0.59597  -0.57819
 Alpha  occ. eigenvalues --   -0.55512  -0.55257  -0.53651  -0.52860  -0.52649
 Alpha  occ. eigenvalues --   -0.52288  -0.50164  -0.48810  -0.48805  -0.48130
 Alpha  occ. eigenvalues --   -0.46854  -0.46006  -0.45930  -0.44813  -0.43977
 Alpha  occ. eigenvalues --   -0.37274  -0.36376
 Alpha virt. eigenvalues --    0.05043   0.11257   0.16533   0.21231   0.22666
 Alpha virt. eigenvalues --    0.24101   0.26350   0.27089   0.27315   0.27547
 Alpha virt. eigenvalues --    0.28561   0.30640   0.31328   0.31507   0.31806

 Mulliken charges:
               1
     1  C   -0.166062
     2  C   -0.217017
     3  C   -0.172018
     4  C    0.157948
     5  C   -0.172069
     6  C   -0.218348
     7  H    0.226018
     8  H    0.223464
     9  H    0.275640
    10  H    0.275675
    11  H    0.223394
    12  N    0.488142
    13  O   -0.460402
    14  O   -0.460377
    15  C   -0.298152
    16  C   -0.300810
    17  C   -0.476094
    18  H    0.147741
    19  H    0.148338
    20  H    0.152687
    21  H    0.154022
    22  H    0.149291
    23  H    0.147119
    24  H    0.170092
    25  C   -0.298412
    26  C   -0.299616
    27  C   -0.475816
    28  H    0.150137
    29  H    0.150815
    30  H    0.151240
    31  H    0.151565
    32  H    0.155881
    33  H    0.155600
    34  H    0.160384
 Sum of Mulliken charges =  -0.00000

 Dipole moment (field-independent basis, Debye):
    X=              2.3974    Y=              4.6050    Z=              0.1044  Tot=              5.1927
 Quadrupole moment (field-independent basis, Debye-Ang):
   XX=           -113.2051   YY=            -97.0078   ZZ=            -88.7621
   XY=            -15.9019   XZ=             -0.5516   YZ=              0.2475

 Normal termination of Gaussian 16 at Thu May  6 02:53:48 2021.
