 Gaussian 16, Revision A.03,
 Gaussian 16:  EM64L-G16RevA.03 25-Dec-2016

 -------------
 #p 6-31g* mp2
 -------------

 ------------------------------------------------------
 Input file generated by CHIRIPA (05-May-2021 14:55:22)
 ------------------------------------------------------
 Symbolic Z-matrix:
 Charge =  0 Multiplicity = 1

                         Standard orientation:
 ---------------------------------------------------------------------
 Center     Atomic      Atomic             Coordinates (Angstroms)
 Number     Number       Type             X           Y           Z
 ---------------------------------------------------------------------
      1          6           0       -0.581502   -2.568528    0.971991
      2          6           0       -1.553920   -2.754082   -0.016187
      3          6           0       -2.310713   -1.673670   -0.479351
      4          6           0       -2.067692   -0.415795    0.070177
      5          6           0       -1.106015   -0.198887    1.055782
      6          6           0       -0.361042   -1.293770    1.503884
      7          1           0        0.001802   -3.413439    1.325937
      8          1           0       -1.727294   -3.742948   -0.431073
      9          1           0       -3.069850   -1.789053   -1.243429
     10          1           0       -0.955963    0.798751    1.450270
     11          1           0        0.393488   -1.146703    2.271413
     12          7           0       -2.862618    0.735649   -0.412181
     13          8           0       -2.629287    1.833803    0.088072
     14          8           0       -3.703961    0.518195   -1.281372
     15          6           0        2.598102    0.149341   -0.613046
     16          6           0        3.706966   -0.749184   -0.064361
     17          6           0        3.933539   -1.997044   -0.918356
     18          1           0        1.665286   -0.427505   -0.676665
     19          1           0        2.851789    0.447625   -1.639723
     20          1           0        3.451929   -1.044559    0.961468
     21          1           0        4.637205   -0.170077   -0.001861
     22          1           0        4.212430   -1.719279   -1.939956
     23          1           0        3.020420   -2.598729   -0.971153
     24          1           0        4.730421   -2.625096   -0.508003
     25          6           0        2.359796    1.400908    0.229877
     26          6           0        1.250931    2.299435   -0.318808
     27          6           0        1.024357    3.547294    0.535187
     28          1           0        2.106108    1.102625    1.256554
     29          1           0        3.292611    1.977756    0.293495
     30          1           0        0.320692    1.720327   -0.381307
     31          1           0        1.505967    2.594809   -1.344637
     32          1           0        1.937477    4.148980    0.587985
     33          1           0        0.745468    3.269529    1.556788
     34          1           0        0.227475    4.175345    0.124835
 ---------------------------------------------------------------------

 SCF Done:  E(RHF) =  -669.534524571     A.U. after   15 cycles
 E2 =    -0.2095927454D+01 EUMP2 =    -0.67163045202503D+03

 The electronic state is 1-A.
 Alpha  occ. eigenvalues --  -20.60945 -20.60926 -15.85965 -11.31327 -11.27897
 Alpha  occ. eigenvalues --  -11.27884 -11.27648 -11.26910 -11.26900 -11.22001
 Alpha  occ. eigenvalues --  -11.21598 -11.21505 -11.21499 -11.21407 -11.20834
 Alpha  occ. eigenvalues --   -1.59996  -1.39551  -1.19520  -1.08907  -1.08608
 Alpha  occ. eigenvalues --   -1.04920  -1.03659  -0.96101  -0.95738  -0.87128
 Alpha  occ. eigenvalues --   -0.86314  -0.82567  -0.79735  -0.78408  -0.77621
 Alpha  occ. eigenvalues --   -0.72189  -0.71319  -0.70632  -0.65339  -0.65160
 Alpha  occ. eigenvalues --   -0.64923  -0.62297  -0.60997  -0.59476  -0.57680
 Alpha  occ. eigenvalues --   -0.55474  -0.55378  -0.53255  -0.52987  -0.52750
 Alpha  occ. eigenvalues --   -0.52520  -0.50092  -0.48962  -0.48942  -0.48036
 Alpha  occ. eigenvalues --   -0.46814  -0.45948  -0.45906  -0.44831  -0.43892
 Alpha  occ. eigenvalues --   -0.37471  -0.36433
 Alpha virt. eigenvalues --    0.04885   0.11007   0.16282   0.19532   0.23257
 Alpha virt. eigenvalues --    0.23404   0.25272   0.26784   0.27356   0.28291
 Alpha virt. eigenvalues --    0.29826   0.30888   0.31269   0.31679   0.31689

 Mulliken charges:
               1
     1  C   -0.171767
     2  C   -0.218538
     3  C   -0.170378
     4  C    0.160250
     5  C   -0.175363
     6  C   -0.218758
     7  H    0.226887
     8  H    0.224312
     9  H    0.276208
    10  H    0.280986
    11  H    0.225274
    12  N    0.488551
    13  O   -0.459650
    14  O   -0.458882
    15  C   -0.303055
    16  C   -0.297953
    17  C   -0.475532
    18  H    0.155470
    19  H    0.151418
    20  H    0.143154
    21  H    0.153921
    22  H    0.158111
    23  H    0.151436
    24  H    0.159487
    25  C   -0.296648
    26  C   -0.308020
    27  C   -0.473877
    28  H    0.136539
    29  H    0.151293
    30  H    0.157479
    31  H    0.154632
    32  H    0.152919
    33  H    0.147042
    34  H    0.173052
 Sum of Mulliken charges =  -0.00000

 Dipole moment (field-independent basis, Debye):
    X=              2.6129    Y=             -3.9992    Z=              1.5807  Tot=              5.0318
 Quadrupole moment (field-independent basis, Debye-Ang):
   XX=           -105.5414   YY=            -90.1650   ZZ=            -93.0460
   XY=              9.5881   XZ=             -2.0374   YZ=              0.1794

 Normal termination of Gaussian 16 at Wed May  5 20:40:50 2021.
