 Gaussian 16, Revision A.03,
 Gaussian 16:  EM64L-G16RevA.03 25-Dec-2016

 -------------
 #p 6-31g* mp2
 -------------

 ------------------------------------------------------
 Input file generated by CHIRIPA (05-May-2021 14:57:22)
 ------------------------------------------------------
 Symbolic Z-matrix:
 Charge =  0 Multiplicity = 1

                         Standard orientation:
 ---------------------------------------------------------------------
 Center     Atomic      Atomic             Coordinates (Angstroms)
 Number     Number       Type             X           Y           Z
 ---------------------------------------------------------------------
      1          6           0       -2.879529    1.839189    1.437884
      2          6           0       -2.124448    0.748661    1.881868
      3          6           0       -1.947893   -0.372260    1.065220
      4          6           0       -2.543222   -0.368968   -0.195280
      5          6           0       -3.301174    0.702092   -0.666054
      6          6           0       -3.464451    1.812471    0.167580
      7          1           0       -3.011524    2.705853    2.078874
      8          1           0       -1.669029    0.766643    2.867928
      9          1           0       -1.368317   -1.230153    1.383858
     10          1           0       -3.742922    0.655015   -1.654012
     11          1           0       -4.051380    2.657960   -0.179852
     12          7           0       -2.363339   -1.550057   -1.068820
     13          8           0       -2.898156   -1.522546   -2.175098
     14          8           0       -1.690937   -2.480942   -0.630682
     15          6           0        2.547066    2.366730   -1.197110
     16          6           0        3.477462    1.378916   -1.536384
     17          6           0        3.500908    0.160368   -0.851446
     18          6           0        2.575363   -0.037644    0.172003
     19          6           0        1.636135    0.926994    0.533409
     20          6           0        1.630987    2.138019   -0.165116
     21          1           0        2.535959    3.310406   -1.734463
     22          1           0        4.190088    1.553774   -2.337404
     23          1           0        4.210380   -0.621612   -1.093470
     24          1           0        0.938260    0.723588    1.336538
     25          1           0        0.907296    2.903362    0.100531
     26          7           0        2.590499   -1.323685    0.904308
     27          8           0        1.764535   -1.473567    1.802058
     28          8           0        3.428040   -2.157450    0.566673
 ---------------------------------------------------------------------

 SCF Done:  E(RHF) =  -868.338106172     A.U. after   16 cycles
 E2 =    -0.2601678458D+01 EUMP2 =    -0.87093978463072D+03

 The electronic state is 1-A.
 Alpha  occ. eigenvalues --  -20.60880 -20.60825 -20.60711 -20.60673 -15.85897
 Alpha  occ. eigenvalues --  -15.85755 -11.31299 -11.31213 -11.27970 -11.27797
 Alpha  occ. eigenvalues --  -11.27795 -11.27777 -11.27758 -11.27540 -11.27014
 Alpha  occ. eigenvalues --  -11.26957 -11.26828 -11.26778  -1.59899  -1.59774
 Alpha  occ. eigenvalues --   -1.39467  -1.39317  -1.19539  -1.19387  -1.08905
 Alpha  occ. eigenvalues --   -1.08793  -1.04973  -1.04778  -0.95698  -0.95628
 Alpha  occ. eigenvalues --   -0.86334  -0.86202  -0.82509  -0.82481  -0.77606
 Alpha  occ. eigenvalues --   -0.77433  -0.72135  -0.71961  -0.71205  -0.71104
 Alpha  occ. eigenvalues --   -0.70617  -0.70518  -0.65181  -0.65062  -0.64924
 Alpha  occ. eigenvalues --   -0.64811  -0.62328  -0.62080  -0.55468  -0.55323
 Alpha  occ. eigenvalues --   -0.53412  -0.53064  -0.53009  -0.52825  -0.48888
 Alpha  occ. eigenvalues --   -0.48855  -0.48752  -0.48699  -0.44879  -0.44678
 Alpha  occ. eigenvalues --   -0.37587  -0.37370  -0.36714  -0.36222
 Alpha virt. eigenvalues --    0.04837   0.05136   0.10818   0.11463   0.16271
 Alpha virt. eigenvalues --    0.16472   0.20763   0.21754   0.26221   0.27492
 Alpha virt. eigenvalues --    0.28039   0.28875   0.30658   0.31328   0.32696

 Mulliken charges:
               1
     1  C   -0.174127
     2  C   -0.231883
     3  C   -0.176679
     4  C    0.158141
     5  C   -0.170414
     6  C   -0.220691
     7  H    0.224814
     8  H    0.227579
     9  H    0.295579
    10  H    0.275984
    11  H    0.222719
    12  N    0.487158
    13  O   -0.462541
    14  O   -0.452980
    15  C   -0.170398
    16  C   -0.218277
    17  C   -0.168914
    18  C    0.160351
    19  C   -0.170602
    20  C   -0.219432
    21  H    0.224907
    22  H    0.224230
    23  H    0.277040
    24  H    0.270184
    25  H    0.220396
    26  N    0.491413
    27  O   -0.468711
    28  O   -0.454848
 Sum of Mulliken charges =  -0.00000

 Dipole moment (field-independent basis, Debye):
    X=             -0.5990    Y=              8.4249    Z=              0.4075  Tot=              8.4560
 Quadrupole moment (field-independent basis, Debye-Ang):
   XX=            -97.9683   YY=           -107.8466   ZZ=           -103.7881
   XY=             -1.4044   XZ=            -15.0316   YZ=             -2.0570

 Normal termination of Gaussian 16 at Wed May  5 17:49:26 2021.
