 Gaussian 16, Revision A.03,
 Gaussian 16:  EM64L-G16RevA.03 25-Dec-2016

 -------------
 #p 6-31g* mp2
 -------------

 ------------------------------------------------------
 Input file generated by CHIRIPA (05-May-2021 14:53:15)
 ------------------------------------------------------
 Symbolic Z-matrix:
 Charge =  0 Multiplicity = 1

                         Standard orientation:
 ---------------------------------------------------------------------
 Center     Atomic      Atomic             Coordinates (Angstroms)
 Number     Number       Type             X           Y           Z
 ---------------------------------------------------------------------
      1          6           0        3.051527    1.218729    0.353296
      2          6           0        2.305618    2.228200   -0.519957
      3          6           0        2.015954    3.540461    0.209331
      4          1           0        2.458616    1.015317    1.255530
      5          1           0        3.995569    1.666099    0.693942
      6          1           0        1.363909    1.778556   -0.859987
      7          1           0        2.900284    2.429088   -1.420309
      8          1           0        2.947796    4.014235    0.534615
      9          1           0        1.402692    3.360007    1.098120
     10          1           0        1.482188    4.247551   -0.433302
     11          6           0        3.348335   -0.098186   -0.361804
     12          6           0        4.094244   -1.107657    0.511449
     13          6           0        4.383908   -2.419918   -0.217839
     14          1           0        2.404293   -0.545555   -0.702450
     15          1           0        3.941246    0.105226   -1.264038
     16          1           0        3.499578   -1.308545    1.411801
     17          1           0        5.035953   -0.658013    0.851479
     18          1           0        4.997170   -2.239464   -1.106628
     19          1           0        3.452066   -2.893692   -0.543123
     20          1           0        4.917674   -3.127008    0.424795
     21          6           0       -4.860092    0.454248    0.009873
     22          6           0       -4.195084    0.242691   -1.202369
     23          6           0       -2.887261   -0.251175   -1.217992
     24          6           0       -2.271776   -0.523944    0.002690
     25          6           0       -2.907887   -0.323703    1.226846
     26          6           0       -4.215507    0.170876    1.218480
     27          1           0       -5.875961    0.838171    0.012692
     28          1           0       -4.693205    0.461877   -2.142517
     29          1           0       -2.349093   -0.424253   -2.142025
     30          1           0       -2.385286   -0.551516    2.147935
     31          1           0       -4.729515    0.334199    2.161436
     32          7           0       -0.887350   -1.047154   -0.001152
     33          8           0       -0.367100   -1.279596    1.087860
     34          8           0       -0.348700   -1.214896   -1.093102
 ---------------------------------------------------------------------

 SCF Done:  E(RHF) =  -669.537162726     A.U. after   15 cycles
 E2 =    -0.2092132683D+01 EUMP2 =    -0.67162929540884D+03

 The electronic state is 1-A.
 Alpha  occ. eigenvalues --  -20.61204 -20.61179 -15.86183 -11.31420 -11.27967
 Alpha  occ. eigenvalues --  -11.27964 -11.27689 -11.26953 -11.26943 -11.20639
 Alpha  occ. eigenvalues --  -11.20403 -11.20102 -11.20089 -11.19670 -11.19627
 Alpha  occ. eigenvalues --   -1.60226  -1.39784  -1.19576  -1.08998  -1.07080
 Alpha  occ. eigenvalues --   -1.04957  -1.02323  -0.95852  -0.94776  -0.86362
 Alpha  occ. eigenvalues --   -0.85805  -0.82688  -0.78416  -0.77754  -0.76831
 Alpha  occ. eigenvalues --   -0.72392  -0.71529  -0.70683  -0.65231  -0.64962
 Alpha  occ. eigenvalues --   -0.63687  -0.62304  -0.59716  -0.58191  -0.56388
 Alpha  occ. eigenvalues --   -0.55467  -0.54058  -0.53291  -0.53047  -0.51555
 Alpha  occ. eigenvalues --   -0.51215  -0.49246  -0.49159  -0.48655  -0.46736
 Alpha  occ. eigenvalues --   -0.45492  -0.45226  -0.44404  -0.44065  -0.42519
 Alpha  occ. eigenvalues --   -0.37548  -0.36552
 Alpha virt. eigenvalues --    0.04742   0.11103   0.16244   0.21236   0.24086
 Alpha virt. eigenvalues --    0.25497   0.27174   0.27807   0.28282   0.28812
 Alpha virt. eigenvalues --    0.29146   0.30904   0.32346   0.32512   0.32706

 Mulliken charges:
               1
     1  C   -0.298215
     2  C   -0.299230
     3  C   -0.474788
     4  H    0.153320
     5  H    0.143085
     6  H    0.152372
     7  H    0.149359
     8  H    0.153746
     9  H    0.152526
    10  H    0.155150
    11  C   -0.310458
    12  C   -0.298139
    13  C   -0.476655
    14  H    0.180001
    15  H    0.140787
    16  H    0.157754
    17  H    0.143456
    18  H    0.149646
    19  H    0.164050
    20  H    0.154157
    21  C   -0.170187
    22  C   -0.218538
    23  C   -0.170528
    24  C    0.158608
    25  C   -0.170577
    26  C   -0.218570
    27  H    0.226544
    28  H    0.224370
    29  H    0.276244
    30  H    0.275986
    31  H    0.224321
    32  N    0.488629
    33  O   -0.459189
    34  O   -0.459038
 Sum of Mulliken charges =  -0.00000

 Dipole moment (field-independent basis, Debye):
    X=             -5.3088    Y=              1.6388    Z=              0.0094  Tot=              5.5560
 Quadrupole moment (field-independent basis, Debye-Ang):
   XX=            -73.7849   YY=            -99.1408   ZZ=            -89.7853
   XY=             -1.3738   XZ=             -0.2789   YZ=             -0.6752

 Normal termination of Gaussian 16 at Thu May  6 20:25:10 2021.
