 Gaussian 16, Revision A.03,
 Gaussian 16:  EM64L-G16RevA.03 25-Dec-2016

 -------------
 #p 6-31g* mp2
 -------------

 ------------------------------------------------------
 Input file generated by CHIRIPA (05-May-2021 14:57:21)
 ------------------------------------------------------
 Symbolic Z-matrix:
 Charge =  0 Multiplicity = 1

                         Standard orientation:
 ---------------------------------------------------------------------
 Center     Atomic      Atomic             Coordinates (Angstroms)
 Number     Number       Type             X           Y           Z
 ---------------------------------------------------------------------
      1          6           0       -4.562668    1.576087    0.906529
      2          6           0       -4.660831    1.225877   -0.444115
      3          6           0       -3.931886    0.146684   -0.952571
      4          6           0       -3.110770   -0.563662   -0.078232
      5          6           0       -2.991729   -0.239319    1.272294
      6          6           0       -3.729899    0.843662    1.758920
      7          1           0       -5.132514    2.415902    1.293031
      8          1           0       -5.306776    1.792895   -1.108412
      9          1           0       -3.989139   -0.146125   -1.993918
     10          1           0       -2.339444   -0.823444    1.910056
     11          1           0       -3.651700    1.113366    2.808296
     12          7           0       -2.334186   -1.708161   -0.604957
     13          8           0       -1.617852   -2.318025    0.185972
     14          8           0       -2.456537   -1.973684   -1.798760
     15          6           0        1.305942    1.899093   -0.563001
     16          6           0        2.613040    2.282127   -0.881278
     17          6           0        3.691624    1.445655   -0.578759
     18          6           0        3.425619    0.227694    0.045021
     19          6           0        2.134630   -0.182051    0.374789
     20          6           0        1.071323    0.670392    0.062914
     21          1           0        0.474006    2.555088   -0.801638
     22          1           0        2.798232    3.235778   -1.367387
     23          1           0        4.713511    1.717377   -0.813989
     24          1           0        1.981450   -1.138762    0.859204
     25          1           0        0.057258    0.370321    0.311264
     26          7           0        4.559381   -0.666295    0.370237
     27          8           0        4.298495   -1.734199    0.919926
     28          8           0        5.687442   -0.282173    0.069295
 ---------------------------------------------------------------------

 SCF Done:  E(RHF) =  -868.338179594     A.U. after   16 cycles
 E2 =    -0.2600409639D+01 EUMP2 =    -0.87093858923344D+03

 The electronic state is 1-A.
 Alpha  occ. eigenvalues --  -20.61740 -20.61697 -20.60323 -20.60305 -15.86754
 Alpha  occ. eigenvalues --  -15.85370 -11.32173 -11.30729 -11.28725 -11.28673
 Alpha  occ. eigenvalues --  -11.28396 -11.27704 -11.27685 -11.27353 -11.27235
 Alpha  occ. eigenvalues --  -11.27122 -11.26389 -11.26296  -1.60786  -1.59393
 Alpha  occ. eigenvalues --   -1.40338  -1.38945  -1.20327  -1.18920  -1.09700
 Alpha  occ. eigenvalues --   -1.08333  -1.05709  -1.04314  -0.96526  -0.95158
 Alpha  occ. eigenvalues --   -0.87101  -0.85730  -0.83342  -0.81983  -0.78403
 Alpha  occ. eigenvalues --   -0.77018  -0.72953  -0.72133  -0.71590  -0.71380
 Alpha  occ. eigenvalues --   -0.70715  -0.70051  -0.65952  -0.65674  -0.64576
 Alpha  occ. eigenvalues --   -0.64340  -0.63037  -0.61652  -0.56167  -0.54875
 Alpha  occ. eigenvalues --   -0.54069  -0.53770  -0.52659  -0.52404  -0.49724
 Alpha  occ. eigenvalues --   -0.49714  -0.48356  -0.48338  -0.45712  -0.44351
 Alpha  occ. eigenvalues --   -0.38296  -0.37322  -0.36936  -0.35912
 Alpha virt. eigenvalues --    0.04096   0.05510   0.10201   0.11723   0.15593
 Alpha virt. eigenvalues --    0.16979   0.20535   0.21722   0.26277   0.26992
 Alpha virt. eigenvalues --    0.27818   0.28707   0.30229   0.30972   0.32111

 Mulliken charges:
               1
     1  C   -0.171512
     2  C   -0.218746
     3  C   -0.172035
     4  C    0.155323
     5  C   -0.180116
     6  C   -0.218122
     7  H    0.228870
     8  H    0.226595
     9  H    0.278308
    10  H    0.276698
    11  H    0.227313
    12  N    0.488338
    13  O   -0.461771
    14  O   -0.453634
    15  C   -0.171804
    16  C   -0.218768
    17  C   -0.171298
    18  C    0.158182
    19  C   -0.169772
    20  C   -0.221564
    21  H    0.221870
    22  H    0.220822
    23  H    0.274259
    24  H    0.283079
    25  H    0.222400
    26  N    0.488010
    27  O   -0.458269
    28  O   -0.462654
 Sum of Mulliken charges =  -0.00000

 Dipole moment (field-independent basis, Debye):
    X=             -7.0390    Y=              7.0574    Z=              0.6993  Tot=              9.9921
 Quadrupole moment (field-independent basis, Debye-Ang):
   XX=           -112.6372   YY=           -106.6291   ZZ=           -100.8887
   XY=              0.3495   XZ=             -9.0491   YZ=             -3.6588

 Normal termination of Gaussian 16 at Thu May  6 04:52:02 2021.
