 Gaussian 16, Revision A.03,
 Gaussian 16:  EM64L-G16RevA.03 25-Dec-2016

 -------------
 #p 6-31g* mp2
 -------------

 ------------------------------------------------------
 Input file generated by CHIRIPA (05-May-2021 14:53:12)
 ------------------------------------------------------
 Symbolic Z-matrix:
 Charge =  0 Multiplicity = 1

                         Standard orientation:
 ---------------------------------------------------------------------
 Center     Atomic      Atomic             Coordinates (Angstroms)
 Number     Number       Type             X           Y           Z
 ---------------------------------------------------------------------
      1          6           0       -4.108883    0.403899   -0.301336
      2          6           0       -2.782910    0.047735    0.371664
      3          6           0       -1.634294    0.956409   -0.067410
      4          1           0       -3.987439    0.342977   -1.391513
      5          1           0       -4.359024    1.449134   -0.072625
      6          1           0       -2.536036   -0.996934    0.142893
      7          1           0       -2.907578    0.109325    1.460370
      8          1           0       -1.854845    2.000862    0.175646
      9          1           0       -1.481192    0.888317   -1.149318
     10          1           0       -0.695961    0.684157    0.425814
     11          6           0       -5.266746   -0.495657    0.127474
     12          6           0       -6.592719   -0.139493   -0.545526
     13          6           0       -7.741335   -1.048167   -0.106452
     14          1           0       -5.016605   -1.540892   -0.101237
     15          1           0       -5.388190   -0.434735    1.217651
     16          1           0       -6.468051   -0.201084   -1.634232
     17          1           0       -6.839593    0.905176   -0.316755
     18          1           0       -7.894437   -0.980076    0.975456
     19          1           0       -7.520784   -2.092620   -0.349508
     20          1           0       -8.679668   -0.775915   -0.599676
     21          6           0        1.996889    1.860469    0.580636
     22          6           0        1.956435    0.656049    1.290745
     23          6           0        2.874265   -0.361868    1.015101
     24          6           0        3.823366   -0.140555    0.018347
     25          6           0        3.889263    1.048365   -0.706509
     26          6           0        2.961473    2.052445   -0.413971
     27          1           0        1.280028    2.645838    0.801325
     28          1           0        1.208430    0.504179    2.063707
     29          1           0        2.865528   -1.304061    1.549529
     30          1           0        4.646546    1.170479   -1.471380
     31          1           0        2.995257    2.986790   -0.967057
     32          7           0        4.800304   -1.210853   -0.282408
     33          8           0        5.626640   -0.991158   -1.165323
     34          8           0        4.721193   -2.249183    0.370470
 ---------------------------------------------------------------------

 SCF Done:  E(RHF) =  -669.534544590     A.U. after   15 cycles
 E2 =    -0.2092170360D+01 EUMP2 =    -0.67162671495001D+03

 The electronic state is 1-A.
 Alpha  occ. eigenvalues --  -20.60767 -20.60762 -15.85822 -11.31191 -11.27777
 Alpha  occ. eigenvalues --  -11.27773 -11.27496 -11.26771 -11.26761 -11.22202
 Alpha  occ. eigenvalues --  -11.21923 -11.21864 -11.21754 -11.21748 -11.21335
 Alpha  occ. eigenvalues --   -1.59843  -1.39396  -1.19378  -1.08888  -1.08765
 Alpha  occ. eigenvalues --   -1.04789  -1.04003  -0.96469  -0.95594  -0.87496
 Alpha  occ. eigenvalues --   -0.86180  -0.82430  -0.80078  -0.78679  -0.77481
 Alpha  occ. eigenvalues --   -0.72041  -0.71167  -0.70473  -0.65510  -0.65036
 Alpha  occ. eigenvalues --   -0.64819  -0.62157  -0.61397  -0.59851  -0.58074
 Alpha  occ. eigenvalues --   -0.55749  -0.55264  -0.53563  -0.52950  -0.52889
 Alpha  occ. eigenvalues --   -0.52623  -0.50398  -0.48802  -0.48794  -0.48384
 Alpha  occ. eigenvalues --   -0.47101  -0.46226  -0.46137  -0.44802  -0.44271
 Alpha  occ. eigenvalues --   -0.37277  -0.36363
 Alpha virt. eigenvalues --    0.05054   0.11118   0.16504   0.20828   0.22561
 Alpha virt. eigenvalues --    0.24020   0.26154   0.26658   0.26775   0.27644
 Alpha virt. eigenvalues --    0.29041   0.29960   0.31102   0.31758   0.31974

 Mulliken charges:
               1
     1  C   -0.298654
     2  C   -0.299570
     3  C   -0.483320
     4  H    0.151158
     5  H    0.148874
     6  H    0.154882
     7  H    0.149475
     8  H    0.149402
     9  H    0.159463
    10  H    0.161705
    11  C   -0.298648
    12  C   -0.299931
    13  C   -0.475950
    14  H    0.150867
    15  H    0.149451
    16  H    0.152679
    17  H    0.151728
    18  H    0.155253
    19  H    0.156031
    20  H    0.161130
    21  C   -0.165702
    22  C   -0.221068
    23  C   -0.172172
    24  C    0.158110
    25  C   -0.170485
    26  C   -0.219544
    27  H    0.228181
    28  H    0.224246
    29  H    0.275785
    30  H    0.275729
    31  H    0.223674
    32  N    0.488134
    33  O   -0.460459
    34  O   -0.460454
 Sum of Mulliken charges =  -0.00000

 Dipole moment (field-independent basis, Debye):
    X=             -3.4821    Y=              3.7558    Z=              1.0136  Tot=              5.2210
 Quadrupole moment (field-independent basis, Debye-Ang):
   XX=           -121.3718   YY=            -94.5381   ZZ=            -92.1279
   XY=             15.9407   XZ=              2.4459   YZ=             -1.8356

 Normal termination of Gaussian 16 at Thu May  6 15:20:56 2021.
