 Gaussian 16, Revision A.03,
 Gaussian 16:  EM64L-G16RevA.03 25-Dec-2016

 -------------
 #p 6-31g* mp2
 -------------

 ------------------------------------------------------
 Input file generated by CHIRIPA (05-May-2021 14:55:21)
 ------------------------------------------------------
 Symbolic Z-matrix:
 Charge =  0 Multiplicity = 1

                         Standard orientation:
 ---------------------------------------------------------------------
 Center     Atomic      Atomic             Coordinates (Angstroms)
 Number     Number       Type             X           Y           Z
 ---------------------------------------------------------------------
      1          6           0        1.291953   -0.100203    1.889884
      2          6           0        1.024216    0.308188    0.579138
      3          6           0        2.024727    0.264931   -0.396391
      4          6           0        3.287370   -0.194296   -0.024730
      5          6           0        3.585117   -0.608023    1.272755
      6          6           0        2.569297   -0.556201    2.231906
      7          1           0        0.508786   -0.063273    2.641337
      8          1           0        0.033140    0.662775    0.310661
      9          1           0        1.844803    0.575060   -1.418578
     10          1           0        4.582823   -0.956714    1.510276
     11          1           0        2.780091   -0.873995    3.249068
     12          7           0        4.354670   -0.244623   -1.048809
     13          8           0        5.458828   -0.653238   -0.695954
     14          8           0        4.066852    0.125497   -2.184947
     15          6           0       -3.328510    0.630760   -0.220457
     16          6           0       -3.498834    2.121178    0.075567
     17          6           0       -2.181328    2.893314   -0.000452
     18          1           0       -2.609079    0.202081    0.490597
     19          1           0       -2.889151    0.510531   -1.220408
     20          1           0       -3.939023    2.238523    1.074105
     21          1           0       -4.218088    2.546318   -0.636154
     22          1           0       -1.740639    2.805913   -0.998829
     23          1           0       -1.459989    2.496369    0.721147
     24          1           0       -2.326185    3.956634    0.214550
     25          6           0       -4.636844   -0.154598   -0.148315
     26          6           0       -4.466520   -1.645016   -0.444336
     27          6           0       -5.784026   -2.417151   -0.368319
     28          1           0       -5.076203   -0.034368    0.851637
     29          1           0       -5.356275    0.274082   -0.859369
     30          1           0       -3.747266   -2.070156    0.267383
     31          1           0       -4.026331   -1.762361   -1.442876
     32          1           0       -6.505365   -2.020208   -1.089919
     33          1           0       -6.224715   -2.329751    0.630058
     34          1           0       -5.639169   -3.480472   -0.583321
 ---------------------------------------------------------------------

 SCF Done:  E(RHF) =  -669.535341637     A.U. after   15 cycles
 E2 =    -0.2091673398D+01 EUMP2 =    -0.67162701503479D+03

 The electronic state is 1-A.
 Alpha  occ. eigenvalues --  -20.60708 -20.60703 -15.85759 -11.31113 -11.27681
 Alpha  occ. eigenvalues --  -11.27659 -11.27421 -11.26704 -11.26610 -11.22527
 Alpha  occ. eigenvalues --  -11.22400 -11.22227 -11.22139 -11.22122 -11.21570
 Alpha  occ. eigenvalues --   -1.59783  -1.39337  -1.19279  -1.09281  -1.08680
 Alpha  occ. eigenvalues --   -1.04678  -1.04329  -0.96797  -0.95519  -0.87811
 Alpha  occ. eigenvalues --   -0.86083  -0.82350  -0.80405  -0.79097  -0.77390
 Alpha  occ. eigenvalues --   -0.71979  -0.71106  -0.70400  -0.65930  -0.64930
 Alpha  occ. eigenvalues --   -0.64691  -0.62089  -0.61674  -0.60153  -0.58401
 Alpha  occ. eigenvalues --   -0.56103  -0.55191  -0.53450  -0.53282  -0.52994
 Alpha  occ. eigenvalues --   -0.52752  -0.50740  -0.48800  -0.48735  -0.48627
 Alpha  occ. eigenvalues --   -0.47426  -0.46602  -0.46528  -0.44745  -0.44588
 Alpha  occ. eigenvalues --   -0.37267  -0.36272
 Alpha virt. eigenvalues --    0.05133   0.11300   0.16618   0.19537   0.22501
 Alpha virt. eigenvalues --    0.23727   0.25323   0.26095   0.27012   0.28198
 Alpha virt. eigenvalues --    0.29186   0.30234   0.30755   0.31332   0.31847

 Mulliken charges:
               1
     1  C   -0.173681
     2  C   -0.226850
     3  C   -0.173185
     4  C    0.159049
     5  C   -0.171491
     6  C   -0.218280
     7  H    0.224218
     8  H    0.238070
     9  H    0.275649
    10  H    0.275283
    11  H    0.222953
    12  N    0.488013
    13  O   -0.460715
    14  O   -0.460548
    15  C   -0.301284
    16  C   -0.300104
    17  C   -0.480452
    18  H    0.141646
    19  H    0.151139
    20  H    0.153702
    21  H    0.156953
    22  H    0.156426
    23  H    0.148392
    24  H    0.167417
    25  C   -0.298488
    26  C   -0.300269
    27  C   -0.476254
    28  H    0.150499
    29  H    0.153012
    30  H    0.150723
    31  H    0.153857
    32  H    0.156717
    33  H    0.155445
    34  H    0.162437
 Sum of Mulliken charges =  -0.00000

 Dipole moment (field-independent basis, Debye):
    X=             -4.0201    Y=              0.2198    Z=              3.5437  Tot=              5.3635
 Quadrupole moment (field-independent basis, Debye-Ang):
   XX=           -117.6774   YY=            -94.9872   ZZ=            -91.9744
   XY=             -0.7726   XZ=             14.8985   YZ=             -2.3414

 Normal termination of Gaussian 16 at Wed May  5 15:57:17 2021.
