 Gaussian 16, Revision A.03,
 Gaussian 16:  EM64L-G16RevA.03 25-Dec-2016

 -------------
 #p 6-31g* mp2
 -------------

 ------------------------------------------------------
 Input file generated by CHIRIPA (05-May-2021 14:55:19)
 ------------------------------------------------------
 Symbolic Z-matrix:
 Charge =  0 Multiplicity = 1

                         Standard orientation:
 ---------------------------------------------------------------------
 Center     Atomic      Atomic             Coordinates (Angstroms)
 Number     Number       Type             X           Y           Z
 ---------------------------------------------------------------------
      1          6           0        0.730664   -1.458457    0.618636
      2          6           0        1.048548   -0.191388    1.118644
      3          6           0        2.290634    0.388897    0.844711
      4          6           0        3.195063   -0.329171    0.063894
      5          6           0        2.907817   -1.593313   -0.448674
      6          6           0        1.659675   -2.154148   -0.162051
      7          1           0       -0.236571   -1.901682    0.836362
      8          1           0        0.329023    0.351202    1.725212
      9          1           0        2.562732    1.368293    1.219096
     10          1           0        3.645704   -2.109894   -1.050409
     11          1           0        1.415528   -3.138331   -0.551695
     12          7           0        4.513210    0.274855   -0.232824
     13          8           0        5.292597   -0.378279   -0.923193
     14          8           0        4.742027    1.389989    0.230596
     15          6           0       -3.198506    0.876437    0.172119
     16          6           0       -2.596894    1.991293   -0.684121
     17          6           0       -1.371049    2.637120   -0.037586
     18          1           0       -3.472619    1.284682    1.154536
     19          1           0       -2.432573    0.110031    0.354772
     20          1           0       -3.364134    2.754695   -0.866262
     21          1           0       -2.324358    1.580390   -1.664681
     22          1           0       -0.586120    1.892352    0.129164
     23          1           0       -1.631803    3.073329    0.932120
     24          1           0       -0.957016    3.431366   -0.666560
     25          6           0       -4.424706    0.221091   -0.460878
     26          6           0       -5.026317   -0.893764    0.395361
     27          6           0       -6.252161   -1.539591   -0.251172
     28          1           0       -5.190638    0.987498   -0.643531
     29          1           0       -4.150593   -0.187153   -1.443295
     30          1           0       -5.298854   -0.482861    1.375922
     31          1           0       -4.259078   -1.657166    0.577503
     32          1           0       -5.991408   -1.975800   -1.220879
     33          1           0       -7.037092   -0.794823   -0.417924
     34          1           0       -6.666196   -2.333838    0.377801
 ---------------------------------------------------------------------

 SCF Done:  E(RHF) =  -669.534991864     A.U. after   15 cycles
 E2 =    -0.2092638160D+01 EUMP2 =    -0.67162763002424D+03

 The electronic state is 1-A.
 Alpha  occ. eigenvalues --  -20.60791 -20.60786 -15.85845 -11.31239 -11.27810
 Alpha  occ. eigenvalues --  -11.27800 -11.27555 -11.26831 -11.26789 -11.22331
 Alpha  occ. eigenvalues --  -11.22260 -11.22200 -11.22075 -11.21668 -11.21636
 Alpha  occ. eigenvalues --   -1.59866  -1.39418  -1.19419  -1.09157  -1.08805
 Alpha  occ. eigenvalues --   -1.04830  -1.04191  -0.96649  -0.95634  -0.87670
 Alpha  occ. eigenvalues --   -0.86218  -0.82469  -0.80268  -0.78998  -0.77505
 Alpha  occ. eigenvalues --   -0.72063  -0.71189  -0.70517  -0.65810  -0.65067
 Alpha  occ. eigenvalues --   -0.64825  -0.62218  -0.61547  -0.60003  -0.58268
 Alpha  occ. eigenvalues --   -0.55980  -0.55301  -0.53304  -0.53298  -0.53046
 Alpha  occ. eigenvalues --   -0.52805  -0.50574  -0.48832  -0.48816  -0.48560
 Alpha  occ. eigenvalues --   -0.47291  -0.46522  -0.46452  -0.44817  -0.44464
 Alpha  occ. eigenvalues --   -0.37383  -0.36373
 Alpha virt. eigenvalues --    0.04997   0.11116   0.16366   0.19798   0.22542
 Alpha virt. eigenvalues --    0.23725   0.25063   0.26359   0.26483   0.28459
 Alpha virt. eigenvalues --    0.29437   0.30830   0.31118   0.31433   0.31646

 Mulliken charges:
               1
     1  C   -0.173581
     2  C   -0.219181
     3  C   -0.171077
     4  C    0.158703
     5  C   -0.170605
     6  C   -0.218670
     7  H    0.226683
     8  H    0.228155
     9  H    0.276820
    10  H    0.275881
    11  H    0.223693
    12  N    0.488087
    13  O   -0.460342
    14  O   -0.459935
    15  C   -0.299227
    16  C   -0.298605
    17  C   -0.485049
    18  H    0.150087
    19  H    0.139704
    20  H    0.154804
    21  H    0.154725
    22  H    0.156580
    23  H    0.152905
    24  H    0.165769
    25  C   -0.298784
    26  C   -0.298858
    27  C   -0.476049
    28  H    0.152885
    29  H    0.150972
    30  H    0.153081
    31  H    0.145882
    32  H    0.155818
    33  H    0.157407
    34  H    0.161325
 Sum of Mulliken charges =  -0.00000

 Dipole moment (field-independent basis, Debye):
    X=             -4.7095    Y=             -2.0989    Z=              0.9802  Tot=              5.2483
 Quadrupole moment (field-independent basis, Debye-Ang):
   XX=           -124.5494   YY=            -90.0438   ZZ=            -93.7021
   XY=             -7.5013   XZ=              1.9247   YZ=              2.0526

 Normal termination of Gaussian 16 at Thu May  6 07:39:34 2021.
