 Gaussian 16, Revision A.03,
 Gaussian 16:  EM64L-G16RevA.03 25-Dec-2016

 -------------
 #p 6-31g* mp2
 -------------

 ------------------------------------------------------
 Input file generated by CHIRIPA (05-May-2021 14:55:23)
 ------------------------------------------------------
 Symbolic Z-matrix:
 Charge =  0 Multiplicity = 1

                         Standard orientation:
 ---------------------------------------------------------------------
 Center     Atomic      Atomic             Coordinates (Angstroms)
 Number     Number       Type             X           Y           Z
 ---------------------------------------------------------------------
      1          6           0        3.695055    2.309960    0.449304
      2          6           0        3.556150    1.289374    1.395682
      3          6           0        3.104273    0.022919    1.012999
      4          6           0        2.798953   -0.189062   -0.330554
      5          6           0        2.926948    0.807375   -1.297001
      6          6           0        3.380565    2.066133   -0.891653
      7          1           0        4.046759    3.290784    0.755385
      8          1           0        3.799646    1.475871    2.437783
      9          1           0        2.987562   -0.785184    1.724875
     10          1           0        2.676410    0.591303   -2.328486
     11          1           0        3.487478    2.856847   -1.628800
     12          7           0        2.319650   -1.525727   -0.747681
     13          8           0        2.057257   -1.687017   -1.937543
     14          8           0        2.215443   -2.386806    0.123136
     15          6           0       -3.037999   -0.445355    0.289490
     16          6           0       -2.197473   -0.392542    1.565699
     17          6           0       -0.908730   -1.208349    1.458946
     18          1           0       -3.282662   -1.491985    0.062223
     19          1           0       -2.437116   -0.074879   -0.552580
     20          1           0       -2.800220   -0.761710    2.405358
     21          1           0       -1.954943    0.654100    1.790059
     22          1           0       -0.284386   -0.836897    0.639911
     23          1           0       -1.134464   -2.260750    1.258705
     24          1           0       -0.323235   -1.156670    2.382193
     25          6           0       -4.329547    0.365389    0.380734
     26          6           0       -5.170074    0.312576   -0.895475
     27          6           0       -6.458817    1.128383   -0.788722
     28          1           0       -4.930431   -0.005087    1.222804
     29          1           0       -4.084885    1.412019    0.608001
     30          1           0       -5.412604   -0.734066   -1.119835
     31          1           0       -4.567327    0.681744   -1.735134
     32          1           0       -6.233083    2.180785   -0.588482
     33          1           0       -7.083161    0.756931    0.030312
     34          1           0       -7.044312    1.076705   -1.711969
 ---------------------------------------------------------------------

 SCF Done:  E(RHF) =  -669.535450830     A.U. after   15 cycles
 E2 =    -0.2091914333D+01 EUMP2 =    -0.67162736516275D+03

 The electronic state is 1-A.
 Alpha  occ. eigenvalues --  -20.60802 -20.60785 -15.85823 -11.31203 -11.27782
 Alpha  occ. eigenvalues --  -11.27769 -11.27526 -11.26794 -11.26782 -11.21355
 Alpha  occ. eigenvalues --  -11.21213 -11.21116 -11.20985 -11.20891 -11.20515
 Alpha  occ. eigenvalues --   -1.59861  -1.39413  -1.19382  -1.08777  -1.08108
 Alpha  occ. eigenvalues --   -1.04783  -1.03196  -0.95642  -0.95598  -0.86644
 Alpha  occ. eigenvalues --   -0.86179  -0.82439  -0.79260  -0.77915  -0.77480
 Alpha  occ. eigenvalues --   -0.72053  -0.71196  -0.70488  -0.65034  -0.64787
 Alpha  occ. eigenvalues --   -0.64742  -0.62130  -0.60597  -0.59016  -0.57245
 Alpha  occ. eigenvalues --   -0.55289  -0.54925  -0.53112  -0.52878  -0.52330
 Alpha  occ. eigenvalues --   -0.52044  -0.49574  -0.48817  -0.48807  -0.47578
 Alpha  occ. eigenvalues --   -0.46311  -0.45479  -0.45390  -0.44730  -0.43443
 Alpha  occ. eigenvalues --   -0.37358  -0.36381
 Alpha virt. eigenvalues --    0.05027   0.11246   0.16513   0.21344   0.23146
 Alpha virt. eigenvalues --    0.24504   0.26922   0.27083   0.27720   0.27845
 Alpha virt. eigenvalues --    0.28569   0.30803   0.31368   0.31773   0.32119

 Mulliken charges:
               1
     1  C   -0.170677
     2  C   -0.218739
     3  C   -0.169515
     4  C    0.155392
     5  C   -0.171679
     6  C   -0.218721
     7  H    0.225649
     8  H    0.223527
     9  H    0.276294
    10  H    0.275656
    11  H    0.223431
    12  N    0.489450
    13  O   -0.460139
    14  O   -0.457046
    15  C   -0.298018
    16  C   -0.301435
    17  C   -0.468195
    18  H    0.152589
    19  H    0.149984
    20  H    0.150370
    21  H    0.147116
    22  H    0.149669
    23  H    0.164490
    24  H    0.153706
    25  C   -0.297849
    26  C   -0.299444
    27  C   -0.475477
    28  H    0.148871
    29  H    0.147225
    30  H    0.153216
    31  H    0.151760
    32  H    0.153754
    33  H    0.154891
    34  H    0.159894
 Sum of Mulliken charges =  -0.00000

 Dipole moment (field-independent basis, Debye):
    X=              1.7751    Y=              4.5920    Z=              1.4428  Tot=              5.1302
 Quadrupole moment (field-independent basis, Debye-Ang):
   XX=            -87.0676   YY=            -96.0124   ZZ=            -91.3665
   XY=             14.1353   XZ=              3.9131   YZ=             -3.9163

 Normal termination of Gaussian 16 at Thu May  6 20:49:20 2021.
