 Gaussian 16, Revision A.03,
 Gaussian 16:  EM64L-G16RevA.03 25-Dec-2016

 -------------
 #p 6-31g* mp2
 -------------

 ------------------------------------------------------
 Input file generated by CHIRIPA (05-May-2021 14:57:24)
 ------------------------------------------------------
 Symbolic Z-matrix:
 Charge =  0 Multiplicity = 1

                         Standard orientation:
 ---------------------------------------------------------------------
 Center     Atomic      Atomic             Coordinates (Angstroms)
 Number     Number       Type             X           Y           Z
 ---------------------------------------------------------------------
      1          6           0        3.266811   -2.089367   -0.205544
      2          6           0        3.978156   -1.273661    0.680534
      3          6           0        3.720569    0.098965    0.744531
      4          6           0        2.740417    0.624880   -0.095711
      5          6           0        2.014807   -0.161696   -0.989063
      6          6           0        2.289131   -1.531764   -1.036050
      7          1           0        3.473412   -3.154662   -0.248652
      8          1           0        4.737996   -1.703961    1.326698
      9          1           0        4.256373    0.753515    1.421210
     10          1           0        1.263270    0.296133   -1.620730
     11          1           0        1.735130   -2.162835   -1.725164
     12          7           0        2.458862    2.076663   -0.036964
     13          8           0        1.590357    2.515609   -0.787740
     14          8           0        3.112014    2.748136    0.758745
     15          6           0       -0.919262   -2.075730    0.252483
     16          6           0       -1.536862   -1.611699    1.418572
     17          6           0       -2.572634   -0.675276    1.349032
     18          6           0       -2.967369   -0.222213    0.091173
     19          6           0       -2.371729   -0.665431   -1.088683
     20          6           0       -1.337929   -1.601950   -0.995224
     21          1           0       -0.115415   -2.803203    0.315793
     22          1           0       -1.213791   -1.977888    2.388921
     23          1           0       -3.068134   -0.299178    2.235851
     24          1           0       -2.715606   -0.281901   -2.041612
     25          1           0       -0.860114   -1.960555   -1.902495
     26          7           0       -4.062852    0.769187    0.004893
     27          8           0       -4.392189    1.152722   -1.115408
     28          8           0       -4.571410    1.143939    1.059201
 ---------------------------------------------------------------------

 SCF Done:  E(RHF) =  -868.334659547     A.U. after   16 cycles
 E2 =    -0.2603431478D+01 EUMP2 =    -0.87093809102547D+03

 The electronic state is 1-A.
 Alpha  occ. eigenvalues --  -20.61180 -20.61171 -20.60757 -20.60751 -15.86242
 Alpha  occ. eigenvalues --  -15.85824 -11.31818 -11.31350 -11.28450 -11.28409
 Alpha  occ. eigenvalues --  -11.28283 -11.28040 -11.27975 -11.27818 -11.27596
 Alpha  occ. eigenvalues --  -11.27468 -11.27149 -11.26985  -1.60250  -1.59827
 Alpha  occ. eigenvalues --   -1.39797  -1.39378  -1.20054  -1.19588  -1.09422
 Alpha  occ. eigenvalues --   -1.08961  -1.05509  -1.05032  -0.96198  -0.95756
 Alpha  occ. eigenvalues --   -0.86902  -0.86447  -0.83036  -0.82599  -0.78057
 Alpha  occ. eigenvalues --   -0.77584  -0.72457  -0.72046  -0.71578  -0.71166
 Alpha  occ. eigenvalues --   -0.71142  -0.70738  -0.65733  -0.65643  -0.65235
 Alpha  occ. eigenvalues --   -0.65028  -0.62876  -0.62318  -0.56009  -0.55620
 Alpha  occ. eigenvalues --   -0.53979  -0.53619  -0.53141  -0.53121  -0.49234
 Alpha  occ. eigenvalues --   -0.49195  -0.48816  -0.48782  -0.45154  -0.44749
 Alpha  occ. eigenvalues --   -0.38186  -0.37986  -0.36820  -0.36320
 Alpha virt. eigenvalues --    0.04446   0.05012   0.10431   0.10945   0.15882
 Alpha virt. eigenvalues --    0.16391   0.18873   0.22105   0.24909   0.26855
 Alpha virt. eigenvalues --    0.28290   0.28858   0.29614   0.31354   0.31896

 Mulliken charges:
               1
     1  C   -0.175475
     2  C   -0.218907
     3  C   -0.170188
     4  C    0.157634
     5  C   -0.160837
     6  C   -0.224531
     7  H    0.225050
     8  H    0.225252
     9  H    0.278096
    10  H    0.276428
    11  H    0.215759
    12  N    0.488069
    13  O   -0.456931
    14  O   -0.458693
    15  C   -0.161195
    16  C   -0.220359
    17  C   -0.167817
    18  C    0.160167
    19  C   -0.168541
    20  C   -0.226614
    21  H    0.220161
    22  H    0.223709
    23  H    0.277837
    24  H    0.277380
    25  H    0.213767
    26  N    0.488686
    27  O   -0.458911
    28  O   -0.458995
 Sum of Mulliken charges =  -0.00000

 Dipole moment (field-independent basis, Debye):
    X=              4.8031    Y=             -8.3064    Z=              0.2621  Tot=              9.5987
 Quadrupole moment (field-independent basis, Debye-Ang):
   XX=           -120.3185   YY=           -111.3741   ZZ=            -97.6875
   XY=             -3.4028   XZ=              1.2227   YZ=              0.0787

 Normal termination of Gaussian 16 at Thu May  6 22:47:21 2021.
