 Gaussian 16, Revision A.03,
 Gaussian 16:  EM64L-G16RevA.03 25-Dec-2016

 -------------
 #p 6-31g* mp2
 -------------

 ------------------------------------------------------
 Input file generated by CHIRIPA (05-May-2021 14:51:07)
 ------------------------------------------------------
 Symbolic Z-matrix:
 Charge =  0 Multiplicity = 1

                         Standard orientation:
 ---------------------------------------------------------------------
 Center     Atomic      Atomic             Coordinates (Angstroms)
 Number     Number       Type             X           Y           Z
 ---------------------------------------------------------------------
      1          6           0        2.815976   -0.075803   -0.502101
      2          6           0        2.435752   -1.554507   -0.419333
      3          6           0        3.209715   -2.420459   -1.413769
      4          1           0        2.635497    0.286024   -1.523597
      5          1           0        3.894390    0.029101   -0.319313
      6          1           0        1.358128   -1.656450   -0.600854
      7          1           0        2.616976   -1.912806    0.602134
      8          1           0        4.286686   -2.348414   -1.230620
      9          1           0        3.020685   -2.090601   -2.440444
     10          1           0        2.922327   -3.473763   -1.337495
     11          6           0        2.050678    0.802723    0.485946
     12          6           0        2.430902    2.281426    0.403178
     13          6           0        1.656938    3.147378    1.397614
     14          1           0        0.972263    0.697818    0.303158
     15          1           0        2.231156    0.440896    1.507442
     16          1           0        2.249677    2.639726   -0.618289
     17          1           0        3.508526    2.383370    0.584699
     18          1           0        1.845968    2.817521    2.424289
     19          1           0        0.579967    3.075334    1.214465
     20          1           0        1.944326    4.200683    1.321340
     21          6           0       -2.039634   -0.793908    0.501183
     22          6           0       -2.391643   -2.279898    0.424322
     23          6           0       -1.595803   -3.128038    1.416840
     24          1           0       -0.964486   -0.668123    0.313619
     25          1           0       -2.223009   -0.433163    1.522765
     26          1           0       -2.208970   -2.637403   -0.597165
     27          1           0       -3.466113   -2.402141    0.611902
     28          1           0       -1.785702   -2.799106    2.443653
     29          1           0       -0.521415   -3.035704    1.227717
     30          1           0       -1.863181   -4.186899    1.344864
     31          6           0       -2.827020    0.066988   -0.485027
     32          6           0       -2.475011    1.552979   -0.408168
     33          6           0       -3.270850    2.401118   -1.400686
     34          1           0       -2.643645   -0.293757   -1.506611
     35          1           0       -3.902168   -0.058797   -0.297464
     36          1           0       -1.400540    1.675221   -0.595746
     37          1           0       -2.657684    1.910484    0.613321
     38          1           0       -4.345238    2.308784   -1.211561
     39          1           0       -3.080951    2.072187   -2.427498
     40          1           0       -3.003472    3.459980   -1.328710
 ---------------------------------------------------------------------

 SCF Done:  E(RHF) =  -470.732948094     A.U. after   11 cycles
 E2 =    -0.1584697904D+01 EUMP2 =    -0.47231764599803D+03

 The electronic state is 1-A.
 Alpha  occ. eigenvalues --  -11.21683 -11.21680 -11.21605 -11.21600 -11.21436
 Alpha  occ. eigenvalues --  -11.21431 -11.21354 -11.21347 -11.21127 -11.21124
 Alpha  occ. eigenvalues --  -11.21041 -11.21033  -1.08508  -1.08426  -1.03580
 Alpha  occ. eigenvalues --   -1.03536  -0.96022  -0.95980  -0.87027  -0.87007
 Alpha  occ. eigenvalues --   -0.79673  -0.79578  -0.78502  -0.78079  -0.65355
 Alpha  occ. eigenvalues --   -0.64862  -0.61077  -0.60851  -0.59418  -0.59314
 Alpha  occ. eigenvalues --   -0.57706  -0.57533  -0.55367  -0.55210  -0.52710
 Alpha  occ. eigenvalues --   -0.52687  -0.52474  -0.52373  -0.49966  -0.49927
 Alpha  occ. eigenvalues --   -0.48080  -0.47818  -0.46756  -0.46692  -0.46518
 Alpha  occ. eigenvalues --   -0.45788  -0.45757  -0.44860  -0.43816  -0.43794
 Alpha virt. eigenvalues --    0.19972   0.21715   0.23772   0.24594   0.25401
 Alpha virt. eigenvalues --    0.26521   0.26721   0.27313   0.28402   0.29732
 Alpha virt. eigenvalues --    0.31108   0.31409   0.31598   0.31803   0.32268

 Mulliken charges:
               1
     1  C   -0.297794
     2  C   -0.305193
     3  C   -0.475634
     4  H    0.149093
     5  H    0.149987
     6  H    0.155511
     7  H    0.152689
     8  H    0.155677
     9  H    0.155179
    10  H    0.160589
    11  C   -0.309433
    12  C   -0.298605
    13  C   -0.478045
    14  H    0.159900
    15  H    0.149878
    16  H    0.151308
    17  H    0.151957
    18  H    0.155132
    19  H    0.157913
    20  H    0.160015
    21  C   -0.309693
    22  C   -0.298578
    23  C   -0.478417
    24  H    0.160302
    25  H    0.149730
    26  H    0.151251
    27  H    0.151952
    28  H    0.155083
    29  H    0.158322
    30  H    0.159961
    31  C   -0.297749
    32  C   -0.304802
    33  C   -0.475633
    34  H    0.148942
    35  H    0.150094
    36  H    0.155087
    37  H    0.152624
    38  H    0.155671
    39  H    0.155180
    40  H    0.160549
 Sum of Mulliken charges =  -0.00000

 Dipole moment (field-independent basis, Debye):
    X=              0.0029    Y=              0.0007    Z=              0.0079  Tot=              0.0085
 Quadrupole moment (field-independent basis, Debye-Ang):
   XX=            -84.1579   YY=            -85.9199   ZZ=            -84.6592
   XY=              0.4150   XZ=             -0.0121   YZ=             -0.0139

 Normal termination of Gaussian 16 at Wed May  5 15:01:30 2021.
