 Gaussian 16, Revision A.03,
 Gaussian 16:  EM64L-G16RevA.03 25-Dec-2016

 -------------
 #p 6-31g* mp2
 -------------

 ------------------------------------------------------
 Input file generated by CHIRIPA (05-May-2021 14:53:12)
 ------------------------------------------------------
 Symbolic Z-matrix:
 Charge =  0 Multiplicity = 1

                         Standard orientation:
 ---------------------------------------------------------------------
 Center     Atomic      Atomic             Coordinates (Angstroms)
 Number     Number       Type             X           Y           Z
 ---------------------------------------------------------------------
      1          6           0        3.403753    0.849200   -0.218501
      2          6           0        3.623231    2.155286    0.545667
      3          6           0        3.008789    3.364009   -0.160906
      4          1           0        3.832829    0.944358   -1.225370
      5          1           0        2.325155    0.687641   -0.352365
      6          1           0        4.701051    2.313633    0.679258
      7          1           0        3.193752    2.056941    1.550899
      8          1           0        1.928578    3.232155   -0.280735
      9          1           0        3.444441    3.490306   -1.157328
     10          1           0        3.177464    4.286986    0.402586
     11          6           0        4.012279   -0.368210    0.475284
     12          6           0        3.792801   -1.674296   -0.288885
     13          6           0        4.407243   -2.883019    0.417688
     14          1           0        5.090878   -0.206651    0.609147
     15          1           0        3.583203   -0.463367    1.482152
     16          1           0        4.222281   -1.575951   -1.294117
     17          1           0        2.714982   -1.832643   -0.422475
     18          1           0        3.971591   -3.009315    1.414111
     19          1           0        5.487455   -2.751165    0.537517
     20          1           0        4.238569   -3.805995   -0.145804
     21          6           0       -0.530159   -0.830522   -0.693211
     22          6           0       -0.903803    0.517143   -0.666592
     23          6           0       -2.212368    0.884806   -0.339437
     24          6           0       -3.125694   -0.125759   -0.042985
     25          6           0       -2.783933   -1.477117   -0.060954
     26          6           0       -1.469759   -1.821603   -0.390840
     27          1           0        0.488545   -1.107129   -0.948412
     28          1           0       -0.176207    1.288970   -0.900972
     29          1           0       -2.528552    1.920495   -0.311284
     30          1           0       -3.531478   -2.223974    0.177373
     31          1           0       -1.182405   -2.869018   -0.410722
     32          7           0       -4.513982    0.251201    0.304804
     33          8           0       -5.299847   -0.658135    0.562023
     34          8           0       -4.789971    1.448861    0.313596
 ---------------------------------------------------------------------

 SCF Done:  E(RHF) =  -669.535075227     A.U. after   15 cycles
 E2 =    -0.2092655738D+01 EUMP2 =    -0.67162773096509D+03

 The electronic state is 1-A.
 Alpha  occ. eigenvalues --  -20.60743 -20.60738 -15.85797 -11.31162 -11.27733
 Alpha  occ. eigenvalues --  -11.27729 -11.27434 -11.26740 -11.26727 -11.22784
 Alpha  occ. eigenvalues --  -11.22565 -11.22499 -11.22390 -11.22008 -11.21990
 Alpha  occ. eigenvalues --   -1.59819  -1.39372  -1.19334  -1.09498  -1.08725
 Alpha  occ. eigenvalues --   -1.04739  -1.04537  -0.96969  -0.95565  -0.87983
 Alpha  occ. eigenvalues --   -0.86138  -0.82401  -0.80611  -0.79345  -0.77443
 Alpha  occ. eigenvalues --   -0.72015  -0.71142  -0.70473  -0.66154  -0.64983
 Alpha  occ. eigenvalues --   -0.64715  -0.62144  -0.61884  -0.60339  -0.58588
 Alpha  occ. eigenvalues --   -0.56258  -0.55262  -0.53633  -0.53395  -0.53064
 Alpha  occ. eigenvalues --   -0.52835  -0.50917  -0.48935  -0.48770  -0.48757
 Alpha  occ. eigenvalues --   -0.47640  -0.46844  -0.46755  -0.44798  -0.44778
 Alpha  occ. eigenvalues --   -0.37303  -0.36341
 Alpha virt. eigenvalues --    0.05077   0.11246   0.16516   0.18613   0.21729
 Alpha virt. eigenvalues --    0.22821   0.25105   0.25621   0.26251   0.27541
 Alpha virt. eigenvalues --    0.29381   0.30554   0.30946   0.31236   0.32126

 Mulliken charges:
               1
     1  C   -0.303280
     2  C   -0.300675
     3  C   -0.477040
     4  H    0.152104
     5  H    0.141865
     6  H    0.156110
     7  H    0.155497
     8  H    0.148942
     9  H    0.157390
    10  H    0.165857
    11  C   -0.298989
    12  C   -0.304256
    13  C   -0.476092
    14  H    0.154421
    15  H    0.153194
    16  H    0.154966
    17  H    0.143111
    18  H    0.157469
    19  H    0.159278
    20  H    0.161432
    21  C   -0.178710
    22  C   -0.225784
    23  C   -0.171243
    24  C    0.158409
    25  C   -0.170782
    26  C   -0.221204
    27  H    0.237734
    28  H    0.228678
    29  H    0.275668
    30  H    0.275530
    31  H    0.223341
    32  N    0.487980
    33  O   -0.460499
    34  O   -0.460420
 Sum of Mulliken charges =  -0.00000

 Dipole moment (field-independent basis, Debye):
    X=              5.1821    Y=             -1.2942    Z=             -1.1376  Tot=              5.4611
 Quadrupole moment (field-independent basis, Debye-Ang):
   XX=           -123.7566   YY=            -90.2549   ZZ=            -95.2958
   XY=              5.4797   XZ=              3.1709   YZ=             -0.1004

 Normal termination of Gaussian 16 at Thu May  6 08:50:34 2021.
