 Gaussian 16, Revision A.03,
 Gaussian 16:  EM64L-G16RevA.03 25-Dec-2016

 -------------
 #p 6-31g* mp2
 -------------

 ------------------------------------------------------
 Input file generated by CHIRIPA (05-May-2021 14:51:11)
 ------------------------------------------------------
 Symbolic Z-matrix:
 Charge =  0 Multiplicity = 1

                         Standard orientation:
 ---------------------------------------------------------------------
 Center     Atomic      Atomic             Coordinates (Angstroms)
 Number     Number       Type             X           Y           Z
 ---------------------------------------------------------------------
      1          6           0        4.260329    0.166350   -0.280143
      2          6           0        5.628255   -0.193598    0.300546
      3          6           0        6.769115    0.597619   -0.339928
      4          1           0        4.270191   -0.013788   -1.363840
      5          1           0        4.083421    1.242216   -0.143720
      6          1           0        5.801936   -1.268721    0.164307
      7          1           0        5.615074   -0.012763    1.383016
      8          1           0        6.623004    1.672499   -0.191990
      9          1           0        6.810927    0.409405   -1.417624
     10          1           0        7.737870    0.324585    0.089987
     11          6           0        3.109688   -0.616345    0.350049
     12          6           0        1.741762   -0.256397   -0.230640
     13          6           0        0.600901   -1.047613    0.409834
     14          1           0        3.286596   -1.692210    0.213626
     15          1           0        3.099826   -0.436206    1.433746
     16          1           0        1.754942   -0.437231   -1.313110
     17          1           0        1.568081    0.818727   -0.094401
     18          1           0        0.559090   -0.859399    1.487530
     19          1           0        0.747013   -2.122493    0.261896
     20          1           0       -0.367853   -0.774579   -0.020082
     21          6           0       -3.962223    0.935595   -0.075381
     22          6           0       -2.898796    2.014151    0.133959
     23          6           0       -3.468769    3.430451    0.050198
     24          1           0       -4.437755    1.083686   -1.054607
     25          1           0       -4.752726    1.058848    0.677818
     26          1           0       -2.109841    1.888048   -0.618548
     27          1           0       -2.425608    1.863360    1.112719
     28          1           0       -4.241558    3.580337    0.811075
     29          1           0       -3.923997    3.605165   -0.930028
     30          1           0       -2.691468    4.185696    0.202740
     31          6           0       -3.407793   -0.485601    0.005475
     32          6           0       -4.471221   -1.564156   -0.203864
     33          6           0       -3.901248   -2.980457   -0.120104
     34          1           0       -2.617290   -0.608854   -0.747724
     35          1           0       -2.932262   -0.633692    0.984701
     36          1           0       -4.944409   -1.413366   -1.182625
     37          1           0       -5.260175   -1.438054    0.548642
     38          1           0       -3.446019   -3.155171    0.860122
     39          1           0       -3.128459   -3.130342   -0.880980
     40          1           0       -4.678548   -3.735702   -0.272646
 ---------------------------------------------------------------------

 SCF Done:  E(RHF) =  -470.732988163     A.U. after   11 cycles
 E2 =    -0.1582985011D+01 EUMP2 =    -0.47231597317395D+03

 The electronic state is 1-A.
 Alpha  occ. eigenvalues --  -11.21620 -11.21602 -11.21576 -11.21532 -11.21415
 Alpha  occ. eigenvalues --  -11.21363 -11.21355 -11.21301 -11.21087 -11.21053
 Alpha  occ. eigenvalues --  -11.21051 -11.20901  -1.08452  -1.08380  -1.03536
 Alpha  occ. eigenvalues --   -1.03472  -0.96000  -0.95907  -0.87020  -0.86922
 Alpha  occ. eigenvalues --   -0.79622  -0.79527  -0.78278  -0.78190  -0.65081
 Alpha  occ. eigenvalues --   -0.65013  -0.60933  -0.60869  -0.59383  -0.59289
 Alpha  occ. eigenvalues --   -0.57691  -0.57447  -0.55275  -0.55203  -0.52803
 Alpha  occ. eigenvalues --   -0.52628  -0.52396  -0.52245  -0.49927  -0.49861
 Alpha  occ. eigenvalues --   -0.47951  -0.47838  -0.46632  -0.46578  -0.45791
 Alpha  occ. eigenvalues --   -0.45764  -0.45702  -0.45660  -0.43808  -0.43620
 Alpha virt. eigenvalues --    0.21854   0.23113   0.24018   0.24187   0.26126
 Alpha virt. eigenvalues --    0.26490   0.26812   0.27614   0.27929   0.29310
 Alpha virt. eigenvalues --    0.31190   0.31467   0.31540   0.31674   0.32117

 Mulliken charges:
               1
     1  C   -0.298159
     2  C   -0.299582
     3  C   -0.475666
     4  H    0.149438
     5  H    0.149384
     6  H    0.151875
     7  H    0.151870
     8  H    0.155120
     9  H    0.155106
    10  H    0.160160
    11  C   -0.298280
    12  C   -0.299323
    13  C   -0.483622
    14  H    0.149375
    15  H    0.149462
    16  H    0.150942
    17  H    0.151792
    18  H    0.153756
    19  H    0.154161
    20  H    0.170407
    21  C   -0.297795
    22  C   -0.300642
    23  C   -0.475637
    24  H    0.149487
    25  H    0.149597
    26  H    0.152155
    27  H    0.152474
    28  H    0.155274
    29  H    0.155238
    30  H    0.160252
    31  C   -0.303035
    32  C   -0.298976
    33  C   -0.475938
    34  H    0.152033
    35  H    0.152395
    36  H    0.151694
    37  H    0.151905
    38  H    0.155832
    39  H    0.155326
    40  H    0.160145
 Sum of Mulliken charges =  -0.00000

 Dipole moment (field-independent basis, Debye):
    X=             -0.0602    Y=              0.0018    Z=              0.0046  Tot=              0.0604
 Quadrupole moment (field-independent basis, Debye-Ang):
   XX=            -85.7407   YY=            -85.6795   ZZ=            -83.3807
   XY=             -0.2254   XZ=              0.0349   YZ=              0.7384

 Normal termination of Gaussian 16 at Wed May  5 19:52:25 2021.
