 Gaussian 16, Revision A.03,
 Gaussian 16:  EM64L-G16RevA.03 25-Dec-2016

 -------------
 #p 6-31g* mp2
 -------------

 ------------------------------------------------------
 Input file generated by CHIRIPA (05-May-2021 14:53:16)
 ------------------------------------------------------
 Symbolic Z-matrix:
 Charge =  0 Multiplicity = 1

                         Standard orientation:
 ---------------------------------------------------------------------
 Center     Atomic      Atomic             Coordinates (Angstroms)
 Number     Number       Type             X           Y           Z
 ---------------------------------------------------------------------
      1          6           0       -2.492868    0.526849   -0.618391
      2          6           0       -2.832785    1.998697   -0.381525
      3          6           0       -1.812186    2.949341   -1.007982
      4          1           0       -1.495033    0.317140   -0.209378
      5          1           0       -2.432822    0.341032   -1.699715
      6          1           0       -2.893534    2.181370    0.699010
      7          1           0       -3.830007    2.204880   -0.790979
      8          1           0       -1.756799    2.796061   -2.090589
      9          1           0       -0.815005    2.772417   -0.592134
     10          1           0       -2.074565    3.996289   -0.826554
     11          6           0       -3.503930   -0.435828    0.001881
     12          6           0       -3.164013   -1.907676   -0.234984
     13          6           0       -4.184612   -2.858320    0.391472
     14          1           0       -3.563976   -0.250011    1.083205
     15          1           0       -4.501765   -0.226118   -0.407131
     16          1           0       -2.166791   -2.113859    0.174470
     17          1           0       -3.103264   -2.090349   -1.315519
     18          1           0       -5.181793   -2.681395   -0.024375
     19          1           0       -4.240000   -2.705040    1.474080
     20          1           0       -3.922233   -3.905268    0.210044
     21          6           0        1.141397    1.724872    1.591442
     22          6           0        1.240220    0.416725    2.076732
     23          6           0        1.903411   -0.566825    1.336896
     24          6           0        2.458617   -0.205747    0.110251
     25          6           0        2.376875    1.088894   -0.400155
     26          6           0        1.709038    2.056197    0.356725
     27          1           0        0.624410    2.482607    2.172785
     28          1           0        0.800339    0.156549    3.035303
     29          1           0        1.994667   -1.587224    1.688855
     30          1           0        2.825454    1.318068   -1.359151
     31          1           0        1.633837    3.071318   -0.022645
     32          7           0        3.163166   -1.238387   -0.682001
     33          8           0        3.643790   -0.894795   -1.759769
     34          8           0        3.221427   -2.371809   -0.210200
 ---------------------------------------------------------------------

 SCF Done:  E(RHF) =  -669.535027215     A.U. after   15 cycles
 E2 =    -0.2093401531D+01 EUMP2 =    -0.67162842874667D+03

 The electronic state is 1-A.
 Alpha  occ. eigenvalues --  -20.60843 -20.60838 -15.85899 -11.31312 -11.27895
 Alpha  occ. eigenvalues --  -11.27869 -11.27641 -11.26923 -11.26885 -11.22029
 Alpha  occ. eigenvalues --  -11.21746 -11.21631 -11.21569 -11.21528 -11.21204
 Alpha  occ. eigenvalues --   -1.59917  -1.39469  -1.19499  -1.08894  -1.08686
 Alpha  occ. eigenvalues --   -1.04909  -1.03820  -0.96276  -0.95704  -0.87307
 Alpha  occ. eigenvalues --   -0.86297  -0.82533  -0.79890  -0.78488  -0.77572
 Alpha  occ. eigenvalues --   -0.72117  -0.71240  -0.70591  -0.65361  -0.65145
 Alpha  occ. eigenvalues --   -0.64905  -0.62263  -0.61229  -0.59644  -0.57877
 Alpha  occ. eigenvalues --   -0.55591  -0.55395  -0.53290  -0.53041  -0.52951
 Alpha  occ. eigenvalues --   -0.52648  -0.50227  -0.48879  -0.48868  -0.48192
 Alpha  occ. eigenvalues --   -0.46915  -0.46025  -0.45933  -0.44865  -0.44061
 Alpha  occ. eigenvalues --   -0.37426  -0.36463
 Alpha virt. eigenvalues --    0.04953   0.11014   0.16404   0.20873   0.22709
 Alpha virt. eigenvalues --    0.24101   0.26356   0.26476   0.27176   0.28090
 Alpha virt. eigenvalues --    0.28464   0.30533   0.31280   0.31691   0.31889

 Mulliken charges:
               1
     1  C   -0.302415
     2  C   -0.297354
     3  C   -0.483764
     4  H    0.154339
     5  H    0.151446
     6  H    0.146284
     7  H    0.153702
     8  H    0.157886
     9  H    0.155023
    10  H    0.157476
    11  C   -0.297878
    12  C   -0.299771
    13  C   -0.475848
    14  H    0.145895
    15  H    0.150115
    16  H    0.151790
    17  H    0.154524
    18  H    0.155507
    19  H    0.153121
    20  H    0.162387
    21  C   -0.169959
    22  C   -0.218920
    23  C   -0.171231
    24  C    0.158880
    25  C   -0.171252
    26  C   -0.218986
    27  H    0.227339
    28  H    0.224197
    29  H    0.276234
    30  H    0.276618
    31  H    0.226392
    32  N    0.488135
    33  O   -0.459801
    34  O   -0.460111
 Sum of Mulliken charges =  -0.00000

 Dipole moment (field-independent basis, Debye):
    X=             -2.3795    Y=              3.5524    Z=              2.7660  Tot=              5.0924
 Quadrupole moment (field-independent basis, Debye-Ang):
   XX=           -107.7544   YY=            -95.1949   ZZ=            -91.2784
   XY=             10.0491   XZ=              6.7214   YZ=             -2.5226

 Normal termination of Gaussian 16 at Thu May  6 17:14:35 2021.
