 Gaussian 16, Revision A.03,
 Gaussian 16:  EM64L-G16RevA.03 25-Dec-2016

 -------------
 #p 6-31g* mp2
 -------------

 ------------------------------------------------------
 Input file generated by CHIRIPA (05-May-2021 14:51:10)
 ------------------------------------------------------
 Symbolic Z-matrix:
 Charge =  0 Multiplicity = 1

                         Standard orientation:
 ---------------------------------------------------------------------
 Center     Atomic      Atomic             Coordinates (Angstroms)
 Number     Number       Type             X           Y           Z
 ---------------------------------------------------------------------
      1          6           0        3.479293   -0.118179   -0.272706
      2          6           0        4.191859    1.175838    0.121952
      3          6           0        5.293873    1.567851   -0.862774
      4          1           0        4.217096   -0.929269   -0.341448
      5          1           0        3.049794   -0.000366   -1.277219
      6          1           0        4.618701    1.056098    1.125986
      7          1           0        3.452245    1.983900    0.189949
      8          1           0        4.880022    1.714553   -1.865673
      9          1           0        6.053105    0.781480   -0.924317
     10          1           0        5.790076    2.495674   -0.561464
     11          6           0        2.374952   -0.523190    0.702037
     12          6           0        1.662386   -1.817207    0.307378
     13          6           0        0.560372   -2.209220    1.292104
     14          1           0        2.804451   -0.641003    1.706549
     15          1           0        1.637149    0.287900    0.770778
     16          1           0        2.402000   -2.625269    0.239381
     17          1           0        1.235544   -1.697467   -0.696656
     18          1           0       -0.198860   -1.422849    1.353648
     19          1           0        0.974223   -2.355922    2.295003
     20          1           0        0.064169   -3.137043    0.990794
     21          6           0       -2.607289   -0.254287   -0.602668
     22          6           0       -3.147852   -1.628400   -0.205693
     23          6           0       -2.498323   -2.768487   -0.990619
     24          1           0       -2.769862   -0.100087   -1.678185
     25          1           0       -1.519971   -0.236242   -0.445158
     26          1           0       -4.234026   -1.643391   -0.362598
     27          1           0       -2.984146   -1.779268    0.869042
     28          1           0       -1.416091   -2.782090   -0.825723
     29          1           0       -2.673072   -2.645440   -2.064361
     30          1           0       -2.899417   -3.741721   -0.690955
     31          6           0       -3.246956    0.895656    0.173338
     32          6           0       -2.706392    2.269770   -0.223637
     33          6           0       -3.355922    3.409855    0.561289
     34          1           0       -4.334274    0.877611    0.015828
     35          1           0       -3.084383    0.741455    1.248854
     36          1           0       -2.870099    2.420637   -1.298372
     37          1           0       -1.620219    2.284760   -0.066732
     38          1           0       -3.181172    3.286809    1.635031
     39          1           0       -4.438154    3.423458    0.396393
     40          1           0       -2.954828    4.383090    0.261624
 ---------------------------------------------------------------------

 SCF Done:  E(RHF) =  -470.732401165     A.U. after   11 cycles
 E2 =    -0.1584247546D+01 EUMP2 =    -0.47231664871053D+03

 The electronic state is 1-A.
 Alpha  occ. eigenvalues --  -11.21680 -11.21636 -11.21631 -11.21562 -11.21465
 Alpha  occ. eigenvalues --  -11.21418 -11.21397 -11.21356 -11.21109 -11.21093
 Alpha  occ. eigenvalues --  -11.21091 -11.20966  -1.08504  -1.08422  -1.03633
 Alpha  occ. eigenvalues --   -1.03479  -0.96074  -0.95937  -0.87072  -0.86973
 Alpha  occ. eigenvalues --   -0.79649  -0.79588  -0.78296  -0.78256  -0.65335
 Alpha  occ. eigenvalues --   -0.64911  -0.61287  -0.60677  -0.59419  -0.59326
 Alpha  occ. eigenvalues --   -0.57751  -0.57516  -0.55375  -0.55179  -0.52750
 Alpha  occ. eigenvalues --   -0.52656  -0.52523  -0.52296  -0.49990  -0.49866
 Alpha  occ. eigenvalues --   -0.47949  -0.47886  -0.46699  -0.46589  -0.45925
 Alpha  occ. eigenvalues --   -0.45761  -0.45753  -0.45627  -0.43825  -0.43782
 Alpha virt. eigenvalues --    0.19670   0.23165   0.23373   0.24831   0.25856
 Alpha virt. eigenvalues --    0.26472   0.26749   0.27850   0.28399   0.29642
 Alpha virt. eigenvalues --    0.30721   0.31123   0.31503   0.31865   0.32271

 Mulliken charges:
               1
     1  C   -0.298410
     2  C   -0.299708
     3  C   -0.475762
     4  H    0.149875
     5  H    0.149928
     6  H    0.151962
     7  H    0.151957
     8  H    0.155351
     9  H    0.155237
    10  H    0.160365
    11  C   -0.298579
    12  C   -0.303436
    13  C   -0.483058
    14  H    0.150032
    15  H    0.149031
    16  H    0.152848
    17  H    0.153970
    18  H    0.159059
    19  H    0.156276
    20  H    0.163256
    21  C   -0.303002
    22  C   -0.299718
    23  C   -0.482357
    24  H    0.149877
    25  H    0.152371
    26  H    0.152028
    27  H    0.153048
    28  H    0.164218
    29  H    0.154245
    30  H    0.159346
    31  C   -0.298624
    32  C   -0.299443
    33  C   -0.475721
    34  H    0.149999
    35  H    0.149558
    36  H    0.152071
    37  H    0.150948
    38  H    0.155329
    39  H    0.155365
    40  H    0.160267
 Sum of Mulliken charges =  -0.00000

 Dipole moment (field-independent basis, Debye):
    X=              0.0286    Y=             -0.0128    Z=              0.0119  Tot=              0.0335
 Quadrupole moment (field-independent basis, Debye-Ang):
   XX=            -84.6050   YY=            -85.5023   ZZ=            -84.6227
   XY=             -0.4918   XZ=              1.5342   YZ=             -0.5959

 Normal termination of Gaussian 16 at Wed May  5 15:10:39 2021.
