 Gaussian 16, Revision A.03,
 Gaussian 16:  EM64L-G16RevA.03 25-Dec-2016

 -------------
 #p 6-31g* mp2
 -------------

 ------------------------------------------------------
 Input file generated by CHIRIPA (05-May-2021 14:55:25)
 ------------------------------------------------------
 Symbolic Z-matrix:
 Charge =  0 Multiplicity = 1

                         Standard orientation:
 ---------------------------------------------------------------------
 Center     Atomic      Atomic             Coordinates (Angstroms)
 Number     Number       Type             X           Y           Z
 ---------------------------------------------------------------------
      1          6           0       -0.479363   -0.697797   -0.123861
      2          6           0       -1.005399    0.505352   -0.605773
      3          6           0       -2.382893    0.741883   -0.572442
      4          6           0       -3.209003   -0.251021   -0.048062
      5          6           0       -2.715178   -1.459967    0.439665
      6          6           0       -1.334423   -1.674894    0.396403
      7          1           0        0.591974   -0.873149   -0.153611
      8          1           0       -0.343735    1.265972   -1.010374
      9          1           0       -2.816850    1.664304   -0.938829
     10          1           0       -3.399910   -2.199286    0.837116
     11          1           0       -0.928697   -2.610220    0.771364
     12          7           0       -4.669020   -0.012052   -0.007520
     13          8           0       -5.375588   -0.902763    0.459420
     14          8           0       -5.079168    1.061438   -0.443449
     15          6           0        4.443428   -0.026847   -0.029717
     16          6           0        4.217086   -1.537511   -0.097874
     17          6           0        5.514624   -2.321248   -0.297744
     18          1           0        4.935754    0.305795   -0.953789
     19          1           0        5.137864    0.196127    0.792133
     20          1           0        3.522203   -1.757446   -0.918472
     21          1           0        3.725069   -1.866564    0.826388
     22          1           0        6.210312   -2.131093    0.525942
     23          1           0        6.006294   -2.021354   -1.228832
     24          1           0        5.329651   -3.398995   -0.343637
     25          6           0        3.155610    0.770286    0.169862
     26          6           0        3.381952    2.280952    0.238019
     27          6           0        2.084415    3.064688    0.437890
     28          1           0        2.461174    0.547313   -0.651987
     29          1           0        2.663285    0.437646    1.093936
     30          1           0        3.873968    2.610005   -0.686242
     31          1           0        4.076835    2.500886    1.058618
     32          1           0        1.592745    2.764795    1.368978
     33          1           0        1.388725    2.874533   -0.385796
     34          1           0        2.269388    4.142435    0.483783
 ---------------------------------------------------------------------

 SCF Done:  E(RHF) =  -669.534896783     A.U. after   15 cycles
 E2 =    -0.2092745349D+01 EUMP2 =    -0.67162764213174D+03

 The electronic state is 1-A.
 Alpha  occ. eigenvalues --  -20.60664 -20.60659 -15.85717 -11.31049 -11.27623
 Alpha  occ. eigenvalues --  -11.27617 -11.27259 -11.26611 -11.26585 -11.22749
 Alpha  occ. eigenvalues --  -11.22730 -11.22665 -11.22461 -11.22152 -11.21944
 Alpha  occ. eigenvalues --   -1.59741  -1.39295  -1.19216  -1.09602  -1.08605
 Alpha  occ. eigenvalues --   -1.04641  -1.04581  -0.97053  -0.95451  -0.88063
 Alpha  occ. eigenvalues --   -0.86019  -0.82294  -0.80684  -0.79483  -0.77347
 Alpha  occ. eigenvalues --   -0.71935  -0.71064  -0.70306  -0.66231  -0.64861
 Alpha  occ. eigenvalues --   -0.64640  -0.62112  -0.61861  -0.60402  -0.58700
 Alpha  occ. eigenvalues --   -0.56357  -0.55127  -0.53692  -0.53462  -0.52947
 Alpha  occ. eigenvalues --   -0.52690  -0.50975  -0.48983  -0.48692  -0.48684
 Alpha  occ. eigenvalues --   -0.47702  -0.46920  -0.46890  -0.44879  -0.44708
 Alpha  occ. eigenvalues --   -0.37174  -0.36227
 Alpha virt. eigenvalues --    0.05181   0.11389   0.16642   0.19375   0.22234
 Alpha virt. eigenvalues --    0.22680   0.24972   0.25119   0.26186   0.28282
 Alpha virt. eigenvalues --    0.29440   0.30367   0.30964   0.31337   0.31977

 Mulliken charges:
               1
     1  C   -0.178034
     2  C   -0.223573
     3  C   -0.172277
     4  C    0.158138
     5  C   -0.170890
     6  C   -0.220227
     7  H    0.235816
     8  H    0.228045
     9  H    0.275244
    10  H    0.274900
    11  H    0.222972
    12  N    0.488064
    13  O   -0.460944
    14  O   -0.460826
    15  C   -0.297673
    16  C   -0.303290
    17  C   -0.475961
    18  H    0.153248
    19  H    0.154203
    20  H    0.148772
    21  H    0.150476
    22  H    0.158120
    23  H    0.157908
    24  H    0.162346
    25  C   -0.305357
    26  C   -0.300151
    27  C   -0.478721
    28  H    0.141621
    29  H    0.151542
    30  H    0.155165
    31  H    0.157100
    32  H    0.160150
    33  H    0.147467
    34  H    0.166627
 Sum of Mulliken charges =  -0.00000

 Dipole moment (field-independent basis, Debye):
    X=              5.5166    Y=             -0.7556    Z=             -0.0646  Tot=              5.5685
 Quadrupole moment (field-independent basis, Debye-Ang):
   XX=           -127.7739   YY=            -90.4510   ZZ=            -93.5772
   XY=              2.8505   XZ=              0.2780   YZ=             -2.0930

 Normal termination of Gaussian 16 at Thu May  6 01:39:55 2021.
