 Gaussian 16, Revision A.03,
 Gaussian 16:  EM64L-G16RevA.03 25-Dec-2016

 -------------
 #p 6-31g* mp2
 -------------

 ------------------------------------------------------
 Input file generated by CHIRIPA (05-May-2021 14:55:24)
 ------------------------------------------------------
 Symbolic Z-matrix:
 Charge =  0 Multiplicity = 1

                         Standard orientation:
 ---------------------------------------------------------------------
 Center     Atomic      Atomic             Coordinates (Angstroms)
 Number     Number       Type             X           Y           Z
 ---------------------------------------------------------------------
      1          6           0        4.528721    0.769541   -0.367015
      2          6           0        4.267748   -0.417025   -1.060179
      3          6           0        3.119715   -1.164500   -0.781166
      4          6           0        2.250282   -0.693893    0.201638
      5          6           0        2.482602    0.484366    0.909467
      6          6           0        3.636887    1.215663    0.613867
      7          1           0        5.422969    1.343914   -0.590202
      8          1           0        4.958590   -0.765905   -1.822456
      9          1           0        2.893243   -2.086581   -1.302603
     10          1           0        1.775301    0.806688    1.663955
     11          1           0        3.837000    2.136801    1.153779
     12          7           0        1.031601   -1.476648    0.505797
     13          8           0        0.281364   -1.040548    1.376198
     14          8           0        0.849712   -2.511450   -0.131963
     15          6           0       -2.884975    1.406876    0.034263
     16          6           0       -1.529969    1.784034   -0.565483
     17          6           0       -1.038180    3.154738   -0.099538
     18          1           0       -3.624060    2.173998   -0.234482
     19          1           0       -2.808535    1.416887    1.130371
     20          1           0       -1.608576    1.771967   -1.660148
     21          1           0       -0.794068    1.015827   -0.295439
     22          1           0       -0.931520    3.175873    0.989854
     23          1           0       -1.750656    3.936309   -0.382608
     24          1           0       -0.067978    3.404301   -0.540316
     25          6           0       -3.389931    0.039231   -0.422128
     26          6           0       -4.744937   -0.337926    0.177619
     27          6           0       -5.236726   -1.708631   -0.288326
     28          1           0       -3.466372    0.029220   -1.518235
     29          1           0       -2.650846   -0.727891   -0.153382
     30          1           0       -5.480838    0.430281   -0.092425
     31          1           0       -4.666330   -0.325858    1.272284
     32          1           0       -4.524251   -2.490201   -0.005255
     33          1           0       -5.343386   -1.729766   -1.377719
     34          1           0       -6.206929   -1.958194    0.152452
 ---------------------------------------------------------------------

 SCF Done:  E(RHF) =  -669.536685622     A.U. after   15 cycles
 E2 =    -0.2092328380D+01 EUMP2 =    -0.67162901400245D+03

 The electronic state is 1-A.
 Alpha  occ. eigenvalues --  -20.61059 -20.61051 -15.86056 -11.31322 -11.27877
 Alpha  occ. eigenvalues --  -11.27874 -11.27606 -11.26874 -11.26862 -11.20962
 Alpha  occ. eigenvalues --  -11.20798 -11.20690 -11.20568 -11.20296 -11.20177
 Alpha  occ. eigenvalues --   -1.60101  -1.39660  -1.19485  -1.08902  -1.07582
 Alpha  occ. eigenvalues --   -1.04871  -1.02805  -0.95752  -0.95261  -0.86286
 Alpha  occ. eigenvalues --   -0.86275  -0.82588  -0.78882  -0.77652  -0.77366
 Alpha  occ. eigenvalues --   -0.72285  -0.71414  -0.70593  -0.65144  -0.64875
 Alpha  occ. eigenvalues --   -0.64179  -0.62220  -0.60195  -0.58665  -0.56873
 Alpha  occ. eigenvalues --   -0.55381  -0.54542  -0.53198  -0.52960  -0.52014
 Alpha  occ. eigenvalues --   -0.51697  -0.49247  -0.49042  -0.49009  -0.47217
 Alpha  occ. eigenvalues --   -0.45991  -0.45215  -0.44902  -0.44502  -0.43018
 Alpha  occ. eigenvalues --   -0.37458  -0.36462
 Alpha virt. eigenvalues --    0.04850   0.11133   0.16323   0.21149   0.23541
 Alpha virt. eigenvalues --    0.24783   0.27103   0.27401   0.28218   0.28349
 Alpha virt. eigenvalues --    0.28804   0.30717   0.31744   0.32108   0.32566

 Mulliken charges:
               1
     1  C   -0.170385
     2  C   -0.218587
     3  C   -0.170561
     4  C    0.158116
     5  C   -0.170854
     6  C   -0.218782
     7  H    0.226191
     8  H    0.223950
     9  H    0.275885
    10  H    0.276401
    11  H    0.224372
    12  N    0.488319
    13  O   -0.459339
    14  O   -0.457541
    15  C   -0.295261
    16  C   -0.303571
    17  C   -0.476052
    18  H    0.144553
    19  H    0.152243
    20  H    0.148549
    21  H    0.157233
    22  H    0.152445
    23  H    0.154772
    24  H    0.153778
    25  C   -0.304653
    26  C   -0.298894
    27  C   -0.476352
    28  H    0.144407
    29  H    0.169047
    30  H    0.147066
    31  H    0.153043
    32  H    0.161368
    33  H    0.152425
    34  H    0.156667
 Sum of Mulliken charges =  -0.00000

 Dipole moment (field-independent basis, Debye):
    X=              4.5004    Y=              2.5319    Z=             -0.9923  Tot=              5.2582
 Quadrupole moment (field-independent basis, Debye-Ang):
   XX=            -76.2205   YY=            -97.8710   ZZ=            -92.7697
   XY=              1.9788   XZ=             -2.7063   YZ=              3.5396

 Normal termination of Gaussian 16 at Wed May  5 17:35:55 2021.
