 Gaussian 16, Revision A.03,
 Gaussian 16:  EM64L-G16RevA.03 25-Dec-2016

 -------------
 #p 6-31g* mp2
 -------------

 ------------------------------------------------------
 Input file generated by CHIRIPA (05-May-2021 14:53:18)
 ------------------------------------------------------
 Symbolic Z-matrix:
 Charge =  0 Multiplicity = 1

                         Standard orientation:
 ---------------------------------------------------------------------
 Center     Atomic      Atomic             Coordinates (Angstroms)
 Number     Number       Type             X           Y           Z
 ---------------------------------------------------------------------
      1          6           0       -3.186573    0.077809   -0.232970
      2          6           0       -1.974130   -0.778712    0.133552
      3          6           0       -0.647237   -0.110122   -0.227194
      4          1           0       -3.163554    0.292719   -1.310109
      5          1           0       -3.111338    1.046270    0.280663
      6          1           0       -2.052330   -1.745794   -0.379531
      7          1           0       -2.000141   -0.991768    1.209910
      8          1           0       -0.542946    0.846046    0.295745
      9          1           0       -0.595432    0.087736   -1.302726
     10          1           0        0.206163   -0.739667    0.043439
     11          6           0       -4.520413   -0.577119    0.121523
     12          6           0       -5.732856    0.279403   -0.244998
     13          6           0       -7.059749   -0.389187    0.115748
     14          1           0       -4.595648   -1.545580   -0.392109
     15          1           0       -4.543432   -0.792029    1.198663
     16          1           0       -5.706845    0.492458   -1.321356
     17          1           0       -5.654656    1.246484    0.268084
     18          1           0       -7.111555   -0.587046    1.191280
     19          1           0       -7.164040   -1.345356   -0.407191
     20          1           0       -7.913149    0.240357   -0.154885
     21          6           0        1.900979    2.456495    0.187152
     22          6           0        2.084191    1.691935    1.344045
     23          6           0        2.697749    0.437538    1.276326
     24          6           0        3.117810   -0.023586    0.029649
     25          6           0        2.949464    0.714549   -1.140867
     26          6           0        2.333438    1.966227   -1.049431
     27          1           0        1.423393    3.429885    0.248969
     28          1           0        1.749338    2.070154    2.305745
     29          1           0        2.852111   -0.175198    2.156181
     30          1           0        3.293797    0.310873   -2.085270
     31          1           0        2.192464    2.557811   -1.949542
     32          7           0        3.768663   -1.350120   -0.054595
     33          8           0        4.129844   -1.733874   -1.164964
     34          8           0        3.905296   -1.980987    0.991338
 ---------------------------------------------------------------------

 SCF Done:  E(RHF) =  -669.532816821     A.U. after   15 cycles
 E2 =    -0.2094502113D+01 EUMP2 =    -0.67162731893359D+03

 The electronic state is 1-A.
 Alpha  occ. eigenvalues --  -20.60778 -20.60773 -15.85831 -11.31162 -11.27763
 Alpha  occ. eigenvalues --  -11.27727 -11.27485 -11.26773 -11.26734 -11.21763
 Alpha  occ. eigenvalues --  -11.21623 -11.21551 -11.21489 -11.21203 -11.20960
 Alpha  occ. eigenvalues --   -1.59857  -1.39410  -1.19372  -1.08772  -1.08550
 Alpha  occ. eigenvalues --   -1.04767  -1.03619  -0.96074  -0.95602  -0.87100
 Alpha  occ. eigenvalues --   -0.86172  -0.82432  -0.79701  -0.78378  -0.77477
 Alpha  occ. eigenvalues --   -0.72050  -0.71188  -0.70484  -0.65192  -0.65018
 Alpha  occ. eigenvalues --   -0.64777  -0.62115  -0.61039  -0.59491  -0.57699
 Alpha  occ. eigenvalues --   -0.55443  -0.55277  -0.53796  -0.52864  -0.52562
 Alpha  occ. eigenvalues --   -0.51957  -0.50000  -0.48809  -0.48805  -0.48023
 Alpha  occ. eigenvalues --   -0.46739  -0.45909  -0.45853  -0.44816  -0.43847
 Alpha  occ. eigenvalues --   -0.37225  -0.36309
 Alpha virt. eigenvalues --    0.05020   0.11201   0.16474   0.21353   0.22731
 Alpha virt. eigenvalues --    0.24201   0.26500   0.27298   0.27360   0.27814
 Alpha virt. eigenvalues --    0.28320   0.30741   0.31412   0.31710   0.31817

 Mulliken charges:
               1
     1  C   -0.297579
     2  C   -0.300538
     3  C   -0.473095
     4  H    0.148721
     5  H    0.145264
     6  H    0.153747
     7  H    0.150141
     8  H    0.151738
     9  H    0.151035
    10  H    0.162630
    11  C   -0.298140
    12  C   -0.299444
    13  C   -0.475725
    14  H    0.151055
    15  H    0.149570
    16  H    0.151679
    17  H    0.150342
    18  H    0.155280
    19  H    0.156071
    20  H    0.160112
    21  C   -0.170870
    22  C   -0.214998
    23  C   -0.171539
    24  C    0.160094
    25  C   -0.170188
    26  C   -0.214233
    27  H    0.225474
    28  H    0.223036
    29  H    0.275279
    30  H    0.275551
    31  H    0.223417
    32  N    0.487335
    33  O   -0.460530
    34  O   -0.460689
 Sum of Mulliken charges =  -0.00000

 Dipole moment (field-independent basis, Debye):
    X=             -2.2056    Y=              4.7002    Z=              0.2833  Tot=              5.1997
 Quadrupole moment (field-independent basis, Debye-Ang):
   XX=           -111.1664   YY=            -95.4863   ZZ=            -89.0565
   XY=             14.6120   XZ=              0.4654   YZ=             -0.0409

 Normal termination of Gaussian 16 at Thu May  6 15:40:04 2021.
