 Gaussian 16, Revision A.03,
 Gaussian 16:  EM64L-G16RevA.03 25-Dec-2016

 -------------
 #p 6-31g* mp2
 -------------

 ------------------------------------------------------
 Input file generated by CHIRIPA (05-May-2021 14:53:16)
 ------------------------------------------------------
 Symbolic Z-matrix:
 Charge =  0 Multiplicity = 1

                         Standard orientation:
 ---------------------------------------------------------------------
 Center     Atomic      Atomic             Coordinates (Angstroms)
 Number     Number       Type             X           Y           Z
 ---------------------------------------------------------------------
      1          6           0       -5.133217    0.276865    0.049477
      2          6           0       -6.501586   -0.404210    0.008382
      3          6           0       -7.656418    0.594084   -0.078605
      4          1           0       -5.095854    0.958832    0.909982
      5          1           0       -5.014147    0.899394   -0.848117
      6          1           0       -6.617477   -1.026355    0.905109
      7          1           0       -6.535628   -1.084778   -0.852016
      8          1           0       -7.568449    1.207214   -0.981342
      9          1           0       -7.650763    1.265970    0.785767
     10          1           0       -8.625260    0.085745   -0.106833
     11          6           0       -3.968675   -0.708022    0.136470
     12          6           0       -2.600306   -0.026948    0.177565
     13          6           0       -1.445474   -1.025241    0.264552
     14          1           0       -4.087745   -1.330552    1.034064
     15          1           0       -4.006039   -1.389990   -0.724035
     16          1           0       -2.566265    0.653621    1.037963
     17          1           0       -2.484415    0.595198   -0.719162
     18          1           0       -1.451129   -1.697127   -0.599820
     19          1           0       -1.533444   -1.638372    1.167289
     20          1           0       -0.476632   -0.516902    0.292780
     21          6           0        4.330560   -2.232267   -0.030351
     22          6           0        3.046209   -1.919324   -0.487548
     23          6           0        2.606123   -0.592637   -0.515391
     24          6           0        3.480490    0.400510   -0.076723
     25          6           0        4.765913    0.120562    0.384367
     26          6           0        5.184807   -1.213121    0.403382
     27          1           0        4.664198   -3.265587   -0.012151
     28          1           0        2.380638   -2.708748   -0.824996
     29          1           0        1.616932   -0.322269   -0.864418
     30          1           0        5.406720    0.929186    0.714390
     31          1           0        6.182788   -1.453212    0.758962
     32          7           0        3.025808    1.808719   -0.101526
     33          8           0        3.815264    2.665374    0.290311
     34          8           0        1.888582    2.029151   -0.512335
 ---------------------------------------------------------------------

 SCF Done:  E(RHF) =  -669.535617058     A.U. after   15 cycles
 E2 =    -0.2091034362D+01 EUMP2 =    -0.67162665141991D+03

 The electronic state is 1-A.
 Alpha  occ. eigenvalues --  -20.60780 -20.60774 -15.85828 -11.31175 -11.27746
 Alpha  occ. eigenvalues --  -11.27712 -11.27485 -11.26764 -11.26744 -11.21524
 Alpha  occ. eigenvalues --  -11.21517 -11.21342 -11.21295 -11.21257 -11.20973
 Alpha  occ. eigenvalues --   -1.59852  -1.39406  -1.19348  -1.08747  -1.08367
 Alpha  occ. eigenvalues --   -1.04748  -1.03501  -0.95989  -0.95583  -0.87016
 Alpha  occ. eigenvalues --   -0.86146  -0.82414  -0.79560  -0.78163  -0.77466
 Alpha  occ. eigenvalues --   -0.72047  -0.71173  -0.70467  -0.65001  -0.64994
 Alpha  occ. eigenvalues --   -0.64761  -0.62138  -0.60897  -0.59330  -0.57573
 Alpha  occ. eigenvalues --   -0.55299  -0.55237  -0.53119  -0.52964  -0.52550
 Alpha  occ. eigenvalues --   -0.52362  -0.49926  -0.48804  -0.48803  -0.47874
 Alpha  occ. eigenvalues --   -0.46574  -0.45715  -0.45627  -0.44814  -0.43754
 Alpha  occ. eigenvalues --   -0.37331  -0.36339
 Alpha virt. eigenvalues --    0.05033   0.11241   0.16559   0.20931   0.22944
 Alpha virt. eigenvalues --    0.24094   0.26526   0.26797   0.27494   0.27931
 Alpha virt. eigenvalues --    0.29217   0.30195   0.31477   0.31568   0.32083

 Mulliken charges:
               1
     1  C   -0.298564
     2  C   -0.299564
     3  C   -0.475747
     4  H    0.151089
     5  H    0.151055
     6  H    0.151295
     7  H    0.151120
     8  H    0.155768
     9  H    0.155760
    10  H    0.159713
    11  C   -0.298816
    12  C   -0.298005
    13  C   -0.483780
    14  H    0.148410
    15  H    0.147785
    16  H    0.156621
    17  H    0.157069
    18  H    0.149021
    19  H    0.155522
    20  H    0.163816
    21  C   -0.170834
    22  C   -0.219646
    23  C   -0.174238
    24  C    0.158163
    25  C   -0.170932
    26  C   -0.218433
    27  H    0.225577
    28  H    0.224447
    29  H    0.281004
    30  H    0.275486
    31  H    0.223385
    32  N    0.488136
    33  O   -0.460130
    34  O   -0.461552
 Sum of Mulliken charges =  -0.00000

 Dipole moment (field-independent basis, Debye):
    X=              1.5766    Y=             -4.8944    Z=              0.1083  Tot=              5.1432
 Quadrupole moment (field-independent basis, Debye-Ang):
   XX=            -80.5919   YY=            -99.3431   ZZ=            -93.8348
   XY=            -15.1239   XZ=              1.9560   YZ=              1.1205

 Normal termination of Gaussian 16 at Wed May  5 18:43:16 2021.
