 Gaussian 16, Revision A.03,
 Gaussian 16:  EM64L-G16RevA.03 25-Dec-2016

 -------------
 #p 6-31g* mp2
 -------------

 ------------------------------------------------------
 Input file generated by CHIRIPA (05-May-2021 14:53:18)
 ------------------------------------------------------
 Symbolic Z-matrix:
 Charge =  0 Multiplicity = 1

                         Standard orientation:
 ---------------------------------------------------------------------
 Center     Atomic      Atomic             Coordinates (Angstroms)
 Number     Number       Type             X           Y           Z
 ---------------------------------------------------------------------
      1          6           0        2.483077    1.125575    0.181413
      2          6           0        2.128881    2.399434   -0.586580
      3          6           0        0.909219    3.118141   -0.008931
      4          1           0        1.618471    0.447832    0.173405
      5          1           0        2.670768    1.380370    1.233671
      6          1           0        1.943267    2.142512   -1.637368
      7          1           0        2.994497    3.074144   -0.576906
      8          1           0        1.087510    3.402750    1.033092
      9          1           0        0.030307    2.465825   -0.033395
     10          1           0        0.673727    4.025984   -0.573044
     11          6           0        3.700234    0.395888   -0.384107
     12          6           0        4.054430   -0.877971    0.383886
     13          6           0        5.274092   -1.596678   -0.193763
     14          1           0        3.512544    0.141093   -1.436365
     15          1           0        4.564841    1.073632   -0.376098
     16          1           0        3.188815   -1.552681    0.374212
     17          1           0        4.240045   -0.621049    1.434674
     18          1           0        6.153004   -0.944361   -0.169299
     19          1           0        5.095802   -1.881287   -1.235786
     20          1           0        5.509584   -2.504521    0.370350
     21          6           0       -4.591322    0.648992   -0.212822
     22          6           0       -4.112223   -0.173713   -1.237587
     23          6           0       -2.907787   -0.867348   -1.086750
     24          6           0       -2.204991   -0.714521    0.107407
     25          6           0       -2.656122    0.097643    1.146716
     26          6           0       -3.863027    0.781809    0.973965
     27          1           0       -5.527916    1.184147   -0.338507
     28          1           0       -4.675716   -0.278757   -2.160347
     29          1           0       -2.513758   -1.510893   -1.863932
     30          1           0       -2.072161    0.182379    2.055135
     31          1           0       -4.232678    1.420038    1.771504
     32          7           0       -0.928602   -1.443830    0.278690
     33          8           0       -0.328218   -1.292321    1.340396
     34          8           0       -0.552721   -2.153160   -0.652009
 ---------------------------------------------------------------------

 SCF Done:  E(RHF) =  -669.536438324     A.U. after   15 cycles
 E2 =    -0.2092095319D+01 EUMP2 =    -0.67162853364284D+03

 The electronic state is 1-A.
 Alpha  occ. eigenvalues --  -20.61035 -20.61011 -15.86038 -11.31347 -11.27898
 Alpha  occ. eigenvalues --  -11.27892 -11.27621 -11.26892 -11.26882 -11.20975
 Alpha  occ. eigenvalues --  -11.20721 -11.20388 -11.20326 -11.20297 -11.20060
 Alpha  occ. eigenvalues --   -1.60085  -1.39637  -1.19503  -1.08912  -1.07478
 Alpha  occ. eigenvalues --   -1.04890  -1.02676  -0.95757  -0.95154  -0.86292
 Alpha  occ. eigenvalues --   -0.86184  -0.82588  -0.78735  -0.77648  -0.77231
 Alpha  occ. eigenvalues --   -0.72254  -0.71407  -0.70604  -0.65155  -0.64889
 Alpha  occ. eigenvalues --   -0.64104  -0.62235  -0.60077  -0.58546  -0.56743
 Alpha  occ. eigenvalues --   -0.55394  -0.54465  -0.53219  -0.52979  -0.51895
 Alpha  occ. eigenvalues --   -0.51582  -0.49132  -0.49028  -0.49023  -0.47066
 Alpha  occ. eigenvalues --   -0.45794  -0.45218  -0.44767  -0.44416  -0.42894
 Alpha  occ. eigenvalues --   -0.37475  -0.36484
 Alpha virt. eigenvalues --    0.04851   0.11137   0.16341   0.21299   0.23633
 Alpha virt. eigenvalues --    0.25024   0.27208   0.27417   0.28034   0.28463
 Alpha virt. eigenvalues --    0.28854   0.30959   0.31950   0.32396   0.32488

 Mulliken charges:
               1
     1  C   -0.302872
     2  C   -0.299378
     3  C   -0.474408
     4  H    0.163459
     5  H    0.147397
     6  H    0.150007
     7  H    0.149562
     8  H    0.153899
     9  H    0.150323
    10  H    0.156501
    11  C   -0.297308
    12  C   -0.303323
    13  C   -0.475292
    14  H    0.148328
    15  H    0.144018
    16  H    0.170792
    17  H    0.148878
    18  H    0.150248
    19  H    0.154153
    20  H    0.159040
    21  C   -0.170320
    22  C   -0.218451
    23  C   -0.170861
    24  C    0.157821
    25  C   -0.170663
    26  C   -0.218364
    27  H    0.226316
    28  H    0.224036
    29  H    0.275848
    30  H    0.276772
    31  H    0.224401
    32  N    0.486465
    33  O   -0.457298
    34  O   -0.459725
 Sum of Mulliken charges =  -0.00000

 Dipole moment (field-independent basis, Debye):
    X=             -4.7448    Y=              2.3612    Z=             -0.5374  Tot=              5.3270
 Quadrupole moment (field-independent basis, Debye-Ang):
   XX=            -76.5766   YY=            -98.9257   ZZ=            -90.5604
   XY=             -1.8234   XZ=              2.2178   YZ=              3.0283

 Normal termination of Gaussian 16 at Thu May  6 04:26:26 2021.
