 Gaussian 16, Revision A.03,
 Gaussian 16:  EM64L-G16RevA.03 25-Dec-2016

 -------------
 #p 6-31g* mp2
 -------------

 ------------------------------------------------------
 Input file generated by CHIRIPA (05-May-2021 14:51:13)
 ------------------------------------------------------
 Symbolic Z-matrix:
 Charge =  0 Multiplicity = 1

                         Standard orientation:
 ---------------------------------------------------------------------
 Center     Atomic      Atomic             Coordinates (Angstroms)
 Number     Number       Type             X           Y           Z
 ---------------------------------------------------------------------
      1          6           0        2.665334   -1.029678    0.238971
      2          6           0        1.520300   -2.041884    0.287157
      3          6           0        1.966074   -3.415206    0.790216
      4          1           0        3.462648   -1.418168   -0.409342
      5          1           0        3.099849   -0.930002    1.243290
      6          1           0        1.087175   -2.138590   -0.716669
      7          1           0        0.725537   -1.650854    0.935279
      8          1           0        2.379249   -3.339645    1.801245
      9          1           0        2.742942   -3.830152    0.139911
     10          1           0        1.131913   -4.123256    0.816656
     11          6           0        2.235381    0.347996   -0.261909
     12          6           0        3.380415    1.360203   -0.310096
     13          6           0        2.934641    2.733524   -0.813154
     14          1           0        1.800866    0.248321   -1.266228
     15          1           0        1.438067    0.736486    0.386404
     16          1           0        4.175178    0.969172   -0.958217
     17          1           0        3.813540    1.456908    0.693730
     18          1           0        2.157773    3.148470   -0.162849
     19          1           0        2.521466    2.657963   -1.824183
     20          1           0        3.768803    3.441574   -0.839594
     21          6           0       -2.050610    0.885782    0.367380
     22          6           0       -2.621766    2.289132    0.161523
     23          6           0       -1.811173    3.368484    0.879667
     24          1           0       -2.015597    0.665219    1.443053
     25          1           0       -1.011793    0.864195    0.009907
     26          1           0       -3.659644    2.307696    0.518007
     27          1           0       -2.655601    2.506305   -0.913794
     28          1           0       -0.777951    3.379014    0.517808
     29          1           0       -1.787698    3.179276    1.957743
     30          1           0       -2.237029    4.363837    0.719106
     31          6           0       -2.850105   -0.204100   -0.344442
     32          6           0       -2.278949   -1.607450   -0.138585
     33          6           0       -3.089542   -2.686803   -0.856729
     34          1           0       -3.888922   -0.182513    0.013032
     35          1           0       -2.885118    0.016463   -1.420115
     36          1           0       -2.245114   -1.824624    0.936732
     37          1           0       -1.241071   -1.626014   -0.495069
     38          1           0       -3.113017   -2.497594   -1.934806
     39          1           0       -4.122764   -2.697332   -0.494870
     40          1           0       -2.663686   -3.682155   -0.696167
 ---------------------------------------------------------------------

 SCF Done:  E(RHF) =  -470.731899212     A.U. after   11 cycles
 E2 =    -0.1585289156D+01 EUMP2 =    -0.47231718836741D+03

 The electronic state is 1-A.
 Alpha  occ. eigenvalues --  -11.21651 -11.21580 -11.21569 -11.21445 -11.21415
 Alpha  occ. eigenvalues --  -11.21380 -11.21324 -11.21265 -11.21133 -11.21084
 Alpha  occ. eigenvalues --  -11.21071 -11.21003  -1.08500  -1.08343  -1.03596
 Alpha  occ. eigenvalues --   -1.03446  -0.96029  -0.95921  -0.87058  -0.86928
 Alpha  occ. eigenvalues --   -0.79837  -0.79382  -0.78577  -0.77913  -0.65124
 Alpha  occ. eigenvalues --   -0.64984  -0.60965  -0.60897  -0.59503  -0.59190
 Alpha  occ. eigenvalues --   -0.57763  -0.57418  -0.55345  -0.55184  -0.52730
 Alpha  occ. eigenvalues --   -0.52609  -0.52544  -0.52266  -0.49993  -0.49840
 Alpha  occ. eigenvalues --   -0.48386  -0.47564  -0.46709  -0.46583  -0.46511
 Alpha  occ. eigenvalues --   -0.45774  -0.45588  -0.44788  -0.43811  -0.43700
 Alpha virt. eigenvalues --    0.20874   0.22347   0.23492   0.24844   0.25120
 Alpha virt. eigenvalues --    0.25686   0.26261   0.27048   0.28793   0.29984
 Alpha virt. eigenvalues --    0.30605   0.31311   0.31566   0.31813   0.32164

 Mulliken charges:
               1
     1  C   -0.297137
     2  C   -0.305378
     3  C   -0.475506
     4  H    0.149413
     5  H    0.149537
     6  H    0.152146
     7  H    0.158642
     8  H    0.155197
     9  H    0.154999
    10  H    0.160429
    11  C   -0.304809
    12  C   -0.298908
    13  C   -0.478305
    14  H    0.148311
    15  H    0.155896
    16  H    0.152196
    17  H    0.152298
    18  H    0.156949
    19  H    0.155055
    20  H    0.160921
    21  C   -0.307050
    22  C   -0.298802
    23  C   -0.478380
    24  H    0.148008
    25  H    0.158685
    26  H    0.151874
    27  H    0.151969
    28  H    0.156663
    29  H    0.154749
    30  H    0.160559
    31  C   -0.296863
    32  C   -0.308271
    33  C   -0.475208
    34  H    0.148739
    35  H    0.148825
    36  H    0.149865
    37  H    0.164206
    38  H    0.154432
    39  H    0.154691
    40  H    0.159366
 Sum of Mulliken charges =  -0.00000

 Dipole moment (field-independent basis, Debye):
    X=              0.0705    Y=             -0.0061    Z=              0.0052  Tot=              0.0710
 Quadrupole moment (field-independent basis, Debye-Ang):
   XX=            -84.8813   YY=            -86.6594   ZZ=            -83.4978
   XY=             -0.2816   XZ=             -0.9388   YZ=              0.0875

 Normal termination of Gaussian 16 at Thu May  6 00:48:17 2021.
