 Gaussian 16, Revision A.03,
 Gaussian 16:  EM64L-G16RevA.03 25-Dec-2016

 -------------
 #p 6-31g* mp2
 -------------

 ------------------------------------------------------
 Input file generated by CHIRIPA (05-May-2021 14:53:18)
 ------------------------------------------------------
 Symbolic Z-matrix:
 Charge =  0 Multiplicity = 1

                         Standard orientation:
 ---------------------------------------------------------------------
 Center     Atomic      Atomic             Coordinates (Angstroms)
 Number     Number       Type             X           Y           Z
 ---------------------------------------------------------------------
      1          6           0        5.237478   -0.474074   -0.045246
      2          6           0        6.006313    0.847358   -0.018898
      3          6           0        7.513212    0.658170   -0.195701
      4          1           0        5.621605   -1.130319    0.747681
      5          1           0        5.434477   -0.985947   -0.997387
      6          1           0        5.806825    1.357235    0.932336
      7          1           0        5.620181    1.500607   -0.811857
      8          1           0        7.730805    0.171606   -1.152001
      9          1           0        7.918510    0.027420    0.602102
     10          1           0        8.043321    1.615438   -0.173740
     11          6           0        3.729800   -0.301371    0.130285
     12          6           0        2.960965   -1.622803    0.103936
     13          6           0        1.454067   -1.433615    0.280739
     14          1           0        3.532801    0.210502    1.082426
     15          1           0        3.345673    0.354874   -0.662642
     16          1           0        3.347097   -2.276052    0.896895
     17          1           0        3.160453   -2.132680   -0.847297
     18          1           0        1.048768   -0.802865   -0.517063
     19          1           0        1.236473   -0.947051    1.237040
     20          1           0        0.923957   -2.390883    0.258779
     21          6           0       -5.358633   -1.405795   -0.081167
     22          6           0       -4.024732   -1.818576   -0.163882
     23          6           0       -2.988351   -0.880597   -0.138265
     24          6           0       -3.323432    0.468099   -0.028583
     25          6           0       -4.642647    0.910662    0.055672
     26          6           0       -5.662798   -0.044892    0.028153
     27          1           0       -6.157415   -2.141266   -0.101805
     28          1           0       -3.785552   -2.874803   -0.248852
     29          1           0       -1.947058   -1.172540   -0.200673
     30          1           0       -4.849854    1.970584    0.139630
     31          1           0       -6.697817    0.278573    0.092561
     32          7           0       -2.234853    1.470399   -0.000457
     33          8           0       -2.556418    2.652673    0.096803
     34          8           0       -1.080672    1.054748   -0.076203
 ---------------------------------------------------------------------

 SCF Done:  E(RHF) =  -669.535787956     A.U. after   15 cycles
 E2 =    -0.2091159770D+01 EUMP2 =    -0.67162694772626D+03

 The electronic state is 1-A.
 Alpha  occ. eigenvalues --  -20.60803 -20.60792 -15.85845 -11.31183 -11.27761
 Alpha  occ. eigenvalues --  -11.27730 -11.27504 -11.26772 -11.26757 -11.21090
 Alpha  occ. eigenvalues --  -11.21023 -11.20850 -11.20682 -11.20657 -11.20327
 Alpha  occ. eigenvalues --   -1.59874  -1.39428  -1.19359  -1.08763  -1.07846
 Alpha  occ. eigenvalues --   -1.04758  -1.02966  -0.95614  -0.95397  -0.86431
 Alpha  occ. eigenvalues --   -0.86156  -0.82435  -0.79040  -0.77663  -0.77445
 Alpha  occ. eigenvalues --   -0.72072  -0.71192  -0.70469  -0.65016  -0.64763
 Alpha  occ. eigenvalues --   -0.64478  -0.62104  -0.60360  -0.58806  -0.57011
 Alpha  occ. eigenvalues --   -0.55266  -0.54676  -0.53092  -0.52861  -0.52149
 Alpha  occ. eigenvalues --   -0.51801  -0.49341  -0.48826  -0.48809  -0.47303
 Alpha  occ. eigenvalues --   -0.46057  -0.45174  -0.45110  -0.44823  -0.43242
 Alpha  occ. eigenvalues --   -0.37346  -0.36361
 Alpha virt. eigenvalues --    0.05038   0.11290   0.16529   0.21098   0.23435
 Alpha virt. eigenvalues --    0.24592   0.26187   0.27280   0.27679   0.28126
 Alpha virt. eigenvalues --    0.29309   0.30658   0.31655   0.32101   0.32375

 Mulliken charges:
               1
     1  C   -0.298088
     2  C   -0.299455
     3  C   -0.475418
     4  H    0.147500
     5  H    0.147608
     6  H    0.152583
     7  H    0.153328
     8  H    0.154100
     9  H    0.153952
    10  H    0.159577
    11  C   -0.298123
    12  C   -0.300329
    13  C   -0.479675
    14  H    0.151827
    15  H    0.154959
    16  H    0.148121
    17  H    0.148270
    18  H    0.172852
    19  H    0.160610
    20  H    0.144374
    21  C   -0.170436
    22  C   -0.220010
    23  C   -0.173771
    24  C    0.156713
    25  C   -0.170632
    26  C   -0.218896
    27  H    0.225547
    28  H    0.223764
    29  H    0.283104
    30  H    0.275452
    31  H    0.223360
    32  N    0.492156
    33  O   -0.460244
    34  O   -0.464679
 Sum of Mulliken charges =  -0.00000

 Dipole moment (field-independent basis, Debye):
    X=             -3.9510    Y=             -3.3748    Z=             -0.1132  Tot=              5.1974
 Quadrupole moment (field-independent basis, Debye-Ang):
   XX=            -69.1974   YY=            -96.1416   ZZ=            -94.6243
   XY=              7.6342   XZ=              0.3580   YZ=              0.3594

 Normal termination of Gaussian 16 at Thu May  6 06:01:53 2021.
