 Gaussian 16, Revision A.03,
 Gaussian 16:  EM64L-G16RevA.03 25-Dec-2016

 -------------
 #p 6-31g* mp2
 -------------

 ------------------------------------------------------
 Input file generated by CHIRIPA (05-May-2021 14:53:13)
 ------------------------------------------------------
 Symbolic Z-matrix:
 Charge =  0 Multiplicity = 1

                         Standard orientation:
 ---------------------------------------------------------------------
 Center     Atomic      Atomic             Coordinates (Angstroms)
 Number     Number       Type             X           Y           Z
 ---------------------------------------------------------------------
      1          6           0       -3.564323   -0.007728   -0.255179
      2          6           0       -2.655586   -1.169517    0.147845
      3          6           0       -1.184757   -0.910833   -0.180083
      4          1           0       -3.454610    0.178675   -1.332287
      5          1           0       -3.228862    0.905367    0.255818
      6          1           0       -2.993511   -2.080439   -0.362688
      7          1           0       -2.767620   -1.353300    1.224083
      8          1           0       -0.825182   -0.017681    0.341057
      9          1           0       -1.052357   -0.748952   -1.254730
     10          1           0       -0.553034   -1.753987    0.116361
     11          6           0       -5.037765   -0.251415    0.066248
     12          6           0       -5.946502    0.910374   -0.336776
     13          6           0       -7.417332    0.651691   -0.008848
     14          1           0       -5.373227   -1.164509   -0.444749
     15          1           0       -5.147478   -0.437817    1.143356
     16          1           0       -5.834469    1.094158   -1.413014
     17          1           0       -5.608578    1.821297    0.173757
     18          1           0       -7.549731    0.489809    1.065799
     19          1           0       -7.776906   -0.241461   -0.529988
     20          1           0       -8.049054    1.494844   -0.305292
     21          6           0        3.684242    2.603280    0.048304
     22          6           0        4.538734    1.779190   -0.691453
     23          6           0        4.368539    0.391552   -0.684727
     24          6           0        3.328863   -0.140661    0.076266
     25          6           0        2.461032    0.653974    0.823738
     26          6           0        2.649942    2.039036    0.802210
     27          1           0        3.823723    3.680229    0.037331
     28          1           0        5.342834    2.214619   -1.277857
     29          1           0        5.015516   -0.269747   -1.248217
     30          1           0        1.668409    0.190724    1.398688
     31          1           0        1.984809    2.676591    1.377680
     32          7           0        3.138779   -1.608328    0.091222
     33          8           0        2.215271   -2.052562    0.769768
     34          8           0        3.916899   -2.286660   -0.575885
 ---------------------------------------------------------------------

 SCF Done:  E(RHF) =  -669.535966531     A.U. after   15 cycles
 E2 =    -0.2091492602D+01 EUMP2 =    -0.67162745913287D+03

 The electronic state is 1-A.
 Alpha  occ. eigenvalues --  -20.60843 -20.60837 -15.85874 -11.31187 -11.27765
 Alpha  occ. eigenvalues --  -11.27738 -11.27506 -11.26772 -11.26760 -11.21538
 Alpha  occ. eigenvalues --  -11.21280 -11.21251 -11.21184 -11.21016 -11.20560
 Alpha  occ. eigenvalues --   -1.59902  -1.39458  -1.19363  -1.08769  -1.08256
 Alpha  occ. eigenvalues --   -1.04761  -1.03314  -0.95770  -0.95599  -0.86778
 Alpha  occ. eigenvalues --   -0.86158  -0.82449  -0.79392  -0.78078  -0.77491
 Alpha  occ. eigenvalues --   -0.72105  -0.71212  -0.70478  -0.65022  -0.64905
 Alpha  occ. eigenvalues --   -0.64763  -0.62121  -0.60721  -0.59100  -0.57349
 Alpha  occ. eigenvalues --   -0.55292  -0.55058  -0.53096  -0.52871  -0.52388
 Alpha  occ. eigenvalues --   -0.52169  -0.49730  -0.48855  -0.48853  -0.47693
 Alpha  occ. eigenvalues --   -0.46443  -0.45612  -0.45551  -0.44897  -0.43477
 Alpha  occ. eigenvalues --   -0.37342  -0.36352
 Alpha virt. eigenvalues --    0.04993   0.11258   0.16462   0.21099   0.23020
 Alpha virt. eigenvalues --    0.24363   0.26320   0.26994   0.27722   0.27787
 Alpha virt. eigenvalues --    0.29207   0.30892   0.31461   0.31930   0.32636

 Mulliken charges:
               1
     1  C   -0.297249
     2  C   -0.300014
     3  C   -0.484608
     4  H    0.149058
     5  H    0.145112
     6  H    0.153802
     7  H    0.151380
     8  H    0.140232
     9  H    0.152745
    10  H    0.186855
    11  C   -0.298042
    12  C   -0.299222
    13  C   -0.475575
    14  H    0.150448
    15  H    0.149335
    16  H    0.151635
    17  H    0.150143
    18  H    0.155041
    19  H    0.155726
    20  H    0.159478
    21  C   -0.170457
    22  C   -0.218671
    23  C   -0.170859
    24  C    0.157698
    25  C   -0.169490
    26  C   -0.219484
    27  H    0.225598
    28  H    0.223398
    29  H    0.275475
    30  H    0.278478
    31  H    0.223278
    32  N    0.489039
    33  O   -0.460680
    34  O   -0.459607
 Sum of Mulliken charges =  -0.00000

 Dipole moment (field-independent basis, Debye):
    X=              0.7941    Y=              5.0388    Z=             -0.0597  Tot=              5.1013
 Quadrupole moment (field-independent basis, Debye-Ang):
   XX=            -89.0531   YY=            -96.3839   ZZ=            -92.6358
   XY=             17.0618   XZ=             -2.6506   YZ=              1.1991

 Normal termination of Gaussian 16 at Thu May  6 18:43:04 2021.
