 Gaussian 16, Revision A.03,
 Gaussian 16:  EM64L-G16RevA.03 25-Dec-2016

 -------------
 #p 6-31g* mp2
 -------------

 ------------------------------------------------------
 Input file generated by CHIRIPA (05-May-2021 14:53:12)
 ------------------------------------------------------
 Symbolic Z-matrix:
 Charge =  0 Multiplicity = 1

                         Standard orientation:
 ---------------------------------------------------------------------
 Center     Atomic      Atomic             Coordinates (Angstroms)
 Number     Number       Type             X           Y           Z
 ---------------------------------------------------------------------
      1          6           0        3.509715    0.356651   -0.795421
      2          6           0        2.067194   -0.108598   -0.593777
      3          6           0        1.062679    0.712438   -1.402877
      4          1           0        3.589246    1.415865   -0.514911
      5          1           0        3.761161    0.296403   -1.863381
      6          1           0        1.818993   -0.048802    0.473667
      7          1           0        1.991130   -1.166879   -0.874618
      8          1           0        1.282387    0.643877   -2.473217
      9          1           0        1.109272    1.768307   -1.117272
     10          1           0        0.037800    0.362877   -1.243848
     11          6           0        4.525627   -0.454469    0.006911
     12          6           0        5.968148    0.010780   -0.194733
     13          6           0        6.972664   -0.810257    0.614367
     14          1           0        4.274181   -0.394221    1.074872
     15          1           0        4.446096   -1.513683   -0.273598
     16          1           0        6.044212    1.069061    0.086108
     17          1           0        6.216349   -0.049017   -1.262177
     18          1           0        6.926070   -1.866126    0.328762
     19          1           0        6.752955   -0.741695    1.684708
     20          1           0        7.997543   -0.460696    0.455338
     21          6           0       -1.213614    1.277883    1.367621
     22          6           0       -1.385641   -0.088568    1.612035
     23          6           0       -2.448773   -0.785585    1.030256
     24          6           0       -3.324926   -0.081637    0.205572
     25          6           0       -3.180142    1.279716   -0.057195
     26          6           0       -2.109834    1.956467    0.535254
     27          1           0       -0.384961    1.811471    1.823706
     28          1           0       -0.691177   -0.618142    2.258035
     29          1           0       -2.605429   -1.843514    1.202485
     30          1           0       -3.888764    1.780473   -0.705667
     31          1           0       -1.978696    3.017665    0.343659
     32          7           0       -4.454214   -0.808810   -0.415979
     33          8           0       -5.212306   -0.165710   -1.138721
     34          8           0       -4.559875   -2.008100   -0.168640
 ---------------------------------------------------------------------

 SCF Done:  E(RHF) =  -669.534881863     A.U. after   15 cycles
 E2 =    -0.2092999139D+01 EUMP2 =    -0.67162788100207D+03

 The electronic state is 1-A.
 Alpha  occ. eigenvalues --  -20.60796 -20.60791 -15.85852 -11.31241 -11.27810
 Alpha  occ. eigenvalues --  -11.27800 -11.27527 -11.26802 -11.26785 -11.22145
 Alpha  occ. eigenvalues --  -11.22007 -11.21889 -11.21827 -11.21431 -11.21392
 Alpha  occ. eigenvalues --   -1.59872  -1.39425  -1.19416  -1.08916  -1.08787
 Alpha  occ. eigenvalues --   -1.04810  -1.03962  -0.96398  -0.95626  -0.87410
 Alpha  occ. eigenvalues --   -0.86204  -0.82457  -0.80035  -0.78721  -0.77504
 Alpha  occ. eigenvalues --   -0.72067  -0.71197  -0.70514  -0.65547  -0.65056
 Alpha  occ. eigenvalues --   -0.64801  -0.62153  -0.61381  -0.59800  -0.58043
 Alpha  occ. eigenvalues --   -0.55731  -0.55293  -0.53586  -0.52911  -0.52888
 Alpha  occ. eigenvalues --   -0.52427  -0.50345  -0.48829  -0.48822  -0.48337
 Alpha  occ. eigenvalues --   -0.47095  -0.46256  -0.46199  -0.44826  -0.44204
 Alpha  occ. eigenvalues --   -0.37318  -0.36410
 Alpha virt. eigenvalues --    0.05009   0.11154   0.16478   0.20437   0.22657
 Alpha virt. eigenvalues --    0.24079   0.25810   0.26381   0.27404   0.27832
 Alpha virt. eigenvalues --    0.28376   0.30813   0.31175   0.31313   0.31688

 Mulliken charges:
               1
     1  C   -0.298063
     2  C   -0.299044
     3  C   -0.477161
     4  H    0.147310
     5  H    0.152267
     6  H    0.141174
     7  H    0.154563
     8  H    0.156494
     9  H    0.146566
    10  H    0.170424
    11  C   -0.297985
    12  C   -0.299806
    13  C   -0.475865
    14  H    0.146228
    15  H    0.151121
    16  H    0.151396
    17  H    0.153418
    18  H    0.156125
    19  H    0.154413
    20  H    0.161445
    21  C   -0.166941
    22  C   -0.218048
    23  C   -0.172103
    24  C    0.158026
    25  C   -0.171517
    26  C   -0.217470
    27  H    0.225600
    28  H    0.224058
    29  H    0.276000
    30  H    0.275989
    31  H    0.223712
    32  N    0.488154
    33  O   -0.460180
    34  O   -0.460299
 Sum of Mulliken charges =  -0.00000

 Dipole moment (field-independent basis, Debye):
    X=              3.9596    Y=              2.5427    Z=              2.1536  Tot=              5.1751
 Quadrupole moment (field-independent basis, Debye-Ang):
   XX=           -122.0325   YY=            -91.6316   ZZ=            -93.1344
   XY=            -10.1685   XZ=             -6.3783   YZ=             -0.9635

 Normal termination of Gaussian 16 at Thu May  6 07:15:43 2021.
