 Gaussian 16, Revision A.03,
 Gaussian 16:  EM64L-G16RevA.03 25-Dec-2016

 -------------
 #p 6-31g* mp2
 -------------

 ------------------------------------------------------
 Input file generated by CHIRIPA (05-May-2021 14:57:23)
 ------------------------------------------------------
 Symbolic Z-matrix:
 Charge =  0 Multiplicity = 1

                         Standard orientation:
 ---------------------------------------------------------------------
 Center     Atomic      Atomic             Coordinates (Angstroms)
 Number     Number       Type             X           Y           Z
 ---------------------------------------------------------------------
      1          6           0        2.859678   -2.276960   -1.271207
      2          6           0        4.010772   -1.826934   -0.616240
      3          6           0        4.026908   -0.579355    0.014500
      4          6           0        2.869087    0.195761   -0.029494
      5          6           0        1.706716   -0.224823   -0.673927
      6          6           0        1.713345   -1.475880   -1.297913
      7          1           0        2.855986   -3.247460   -1.758558
      8          1           0        4.902481   -2.446933   -0.593892
      9          1           0        4.904362   -0.206440    0.528725
     10          1           0        0.833118    0.415658   -0.679260
     11          1           0        0.817957   -1.822807   -1.805817
     12          7           0        2.874119    1.518359    0.634667
     13          8           0        1.841158    2.182296    0.581602
     14          8           0        3.910929    1.866029    1.195727
     15          6           0       -2.896507    2.153374   -1.211341
     16          6           0       -1.948163    1.979263   -0.198004
     17          6           0       -1.923192    0.802555    0.556505
     18          6           0       -2.865527   -0.183814    0.269498
     19          6           0       -3.822842   -0.040020   -0.733578
     20          6           0       -3.829174    1.144955   -1.475428
     21          1           0       -2.908665    3.070680   -1.792545
     22          1           0       -1.222630    2.760717    0.009299
     23          1           0       -1.200009    0.641576    1.346765
     24          1           0       -4.533327   -0.836891   -0.916945
     25          1           0       -4.566822    1.277428   -2.261794
     26          7           0       -2.848955   -1.433917    1.061562
     27          8           0       -3.689928   -2.287814    0.789052
     28          8           0       -1.995310   -1.536180    1.939894
 ---------------------------------------------------------------------

 SCF Done:  E(RHF) =  -868.340181268     A.U. after   16 cycles
 E2 =    -0.2600504383D+01 EUMP2 =    -0.87094068565090D+03

 The electronic state is 1-A.
 Alpha  occ. eigenvalues --  -20.61266 -20.61191 -20.60928 -20.60913 -15.86267
 Alpha  occ. eigenvalues --  -15.85970 -11.31306 -11.31281 -11.27848 -11.27838
 Alpha  occ. eigenvalues --  -11.27816 -11.27704 -11.27517 -11.27478 -11.26848
 Alpha  occ. eigenvalues --  -11.26793 -11.26774 -11.26616  -1.60287  -1.60006
 Alpha  occ. eigenvalues --   -1.39859  -1.39557  -1.19454  -1.19426  -1.08902
 Alpha  occ. eigenvalues --   -1.08821  -1.04839  -1.04751  -0.95798  -0.95666
 Alpha  occ. eigenvalues --   -0.86237  -0.86157  -0.82659  -0.82462  -0.77786
 Alpha  occ. eigenvalues --   -0.77486  -0.72510  -0.72178  -0.71589  -0.71344
 Alpha  occ. eigenvalues --   -0.70599  -0.70454  -0.65121  -0.65044  -0.64820
 Alpha  occ. eigenvalues --   -0.64685  -0.62270  -0.61975  -0.55332  -0.55251
 Alpha  occ. eigenvalues --   -0.53273  -0.53137  -0.52825  -0.52755  -0.49269
 Alpha  occ. eigenvalues --   -0.49204  -0.48943  -0.48933  -0.45334  -0.44971
 Alpha  occ. eigenvalues --   -0.37429  -0.37396  -0.36484  -0.36298
 Alpha virt. eigenvalues --    0.04716   0.04945   0.11007   0.11463   0.16303
 Alpha virt. eigenvalues --    0.16361   0.21220   0.21818   0.26928   0.27514
 Alpha virt. eigenvalues --    0.28289   0.28764   0.30904   0.31419   0.32621

 Mulliken charges:
               1
     1  C   -0.168746
     2  C   -0.218404
     3  C   -0.169714
     4  C    0.157577
     5  C   -0.174175
     6  C   -0.218400
     7  H    0.227601
     8  H    0.224389
     9  H    0.275429
    10  H    0.275440
    11  H    0.225520
    12  N    0.491678
    13  O   -0.475919
    14  O   -0.455682
    15  C   -0.172639
    16  C   -0.227051
    17  C   -0.183990
    18  C    0.156913
    19  C   -0.173763
    20  C   -0.218747
    21  H    0.227953
    22  H    0.246846
    23  H    0.283425
    24  H    0.274599
    25  H    0.223310
    26  N    0.487256
    27  O   -0.461880
    28  O   -0.458823
 Sum of Mulliken charges =  -0.00000

 Dipole moment (field-independent basis, Debye):
    X=              0.0542    Y=             -0.2290    Z=             -5.1001  Tot=              5.1056
 Quadrupole moment (field-independent basis, Debye-Ang):
   XX=            -97.1491   YY=           -108.2563   ZZ=           -105.6240
   XY=            -26.1507   XZ=              5.1527   YZ=              2.3623

 Normal termination of Gaussian 16 at Thu May  6 12:57:48 2021.
