 Gaussian 16, Revision A.03,
 Gaussian 16:  EM64L-G16RevA.03 25-Dec-2016

 -------------
 #p 6-31g* mp2
 -------------

 ------------------------------------------------------
 Input file generated by CHIRIPA (05-May-2021 14:53:12)
 ------------------------------------------------------
 Symbolic Z-matrix:
 Charge =  0 Multiplicity = 1

                         Standard orientation:
 ---------------------------------------------------------------------
 Center     Atomic      Atomic             Coordinates (Angstroms)
 Number     Number       Type             X           Y           Z
 ---------------------------------------------------------------------
      1          6           0        5.194827   -0.473573    0.013202
      2          6           0        5.928226    0.796144   -0.420306
      3          6           0        7.421618    0.565740   -0.653737
      4          1           0        5.655796   -0.859867    0.932566
      5          1           0        5.331745   -1.247896   -0.754309
      6          1           0        5.788811    1.568284    0.347143
      7          1           0        5.465335    1.179566   -1.338639
      8          1           0        7.578075   -0.185655   -1.434460
      9          1           0        7.903388    0.205273    0.260901
     10          1           0        7.926365    1.486352   -0.962871
     11          6           0        3.700997   -0.259275    0.250430
     12          6           0        2.967598   -1.528992    0.683938
     13          6           0        1.474206   -1.298589    0.917369
     14          1           0        3.564079    0.515047    1.017941
     15          1           0        3.240028    0.127018   -0.668934
     16          1           0        3.430489   -1.912414    1.602271
     17          1           0        3.107013   -2.301133   -0.083511
     18          1           0        0.992436   -0.938121    0.002731
     19          1           0        1.317750   -0.547194    1.698091
     20          1           0        0.969459   -2.219201    1.226503
     21          6           0       -5.330960   -1.399488   -0.384589
     22          6           0       -4.002099   -1.778731   -0.600977
     23          6           0       -2.965636   -0.853072   -0.447862
     24          6           0       -3.295497    0.449242   -0.075756
     25          6           0       -4.609619    0.857591    0.147011
     26          6           0       -5.629951   -0.084855   -0.011942
     27          1           0       -6.129845   -2.125083   -0.505800
     28          1           0       -3.766943   -2.799000   -0.890456
     29          1           0       -1.928181   -1.119758   -0.609053
     30          1           0       -4.812880    1.881942    0.434771
     31          1           0       -6.661051    0.212492    0.156772
     32          7           0       -2.206778    1.438082    0.089431
     33          8           0       -2.523689    2.579260    0.417936
     34          8           0       -1.057144    1.053232   -0.112731
 ---------------------------------------------------------------------

 SCF Done:  E(RHF) =  -669.535742949     A.U. after   15 cycles
 E2 =    -0.2091073502D+01 EUMP2 =    -0.67162681645180D+03

 The electronic state is 1-A.
 Alpha  occ. eigenvalues --  -20.60816 -20.60810 -15.85857 -11.31204 -11.27776
 Alpha  occ. eigenvalues --  -11.27764 -11.27521 -11.26791 -11.26779 -11.21068
 Alpha  occ. eigenvalues --  -11.20949 -11.20816 -11.20643 -11.20630 -11.20207
 Alpha  occ. eigenvalues --   -1.59885  -1.39440  -1.19379  -1.08779  -1.07801
 Alpha  occ. eigenvalues --   -1.04779  -1.02911  -0.95624  -0.95343  -0.86366
 Alpha  occ. eigenvalues --   -0.86178  -0.82452  -0.78983  -0.77621  -0.77464
 Alpha  occ. eigenvalues --   -0.72086  -0.71201  -0.70489  -0.65036  -0.64786
 Alpha  occ. eigenvalues --   -0.64436  -0.62129  -0.60311  -0.58743  -0.56952
 Alpha  occ. eigenvalues --   -0.55286  -0.54626  -0.53111  -0.52875  -0.52085
 Alpha  occ. eigenvalues --   -0.51743  -0.49307  -0.48837  -0.48804  -0.47264
 Alpha  occ. eigenvalues --   -0.46008  -0.45154  -0.45063  -0.44800  -0.43181
 Alpha  occ. eigenvalues --   -0.37362  -0.36382
 Alpha virt. eigenvalues --    0.05027   0.11269   0.16518   0.21112   0.23448
 Alpha virt. eigenvalues --    0.24608   0.26318   0.27386   0.27670   0.28198
 Alpha virt. eigenvalues --    0.29243   0.30587   0.31657   0.32274   0.32461

 Mulliken charges:
               1
     1  C   -0.297997
     2  C   -0.299378
     3  C   -0.475376
     4  H    0.147741
     5  H    0.147006
     6  H    0.152958
     7  H    0.152781
     8  H    0.153802
     9  H    0.154121
    10  H    0.159449
    11  C   -0.297815
    12  C   -0.300010
    13  C   -0.479338
    14  H    0.152748
    15  H    0.153766
    16  H    0.148661
    17  H    0.146726
    18  H    0.168527
    19  H    0.162141
    20  H    0.147902
    21  C   -0.170553
    22  C   -0.219476
    23  C   -0.171115
    24  C    0.157420
    25  C   -0.170815
    26  C   -0.218729
    27  H    0.225637
    28  H    0.223751
    29  H    0.278752
    30  H    0.275562
    31  H    0.223459
    32  N    0.491729
    33  O   -0.460232
    34  O   -0.463806
 Sum of Mulliken charges =  -0.00000

 Dipole moment (field-independent basis, Debye):
    X=             -3.9895    Y=             -3.3381    Z=             -0.5999  Tot=              5.2363
 Quadrupole moment (field-independent basis, Debye-Ang):
   XX=            -69.4397   YY=            -96.1227   ZZ=            -94.3658
   XY=              7.6936   XZ=              1.7004   YZ=              1.4178

 Normal termination of Gaussian 16 at Thu May  6 11:58:14 2021.
