 Gaussian 16, Revision A.03,
 Gaussian 16:  EM64L-G16RevA.03 25-Dec-2016

 -------------
 #p 6-31g* mp2
 -------------

 ------------------------------------------------------
 Input file generated by CHIRIPA (05-May-2021 14:57:25)
 ------------------------------------------------------
 Symbolic Z-matrix:
 Charge =  0 Multiplicity = 1

                         Standard orientation:
 ---------------------------------------------------------------------
 Center     Atomic      Atomic             Coordinates (Angstroms)
 Number     Number       Type             X           Y           Z
 ---------------------------------------------------------------------
      1          6           0       -2.580686    2.375748    0.356046
      2          6           0       -2.296325    1.810717   -0.891511
      3          6           0       -2.288026    0.422513   -1.056949
      4          6           0       -2.569784   -0.374426    0.051559
      5          6           0       -2.856813    0.158499    1.307304
      6          6           0       -2.859531    1.549293    1.449544
      7          1           0       -2.584965    3.455144    0.475552
      8          1           0       -2.079406    2.450104   -1.742496
      9          1           0       -2.071160   -0.041413   -2.011496
     10          1           0       -3.069211   -0.504679    2.137063
     11          1           0       -3.080713    1.985326    2.419595
     12          7           0       -2.563952   -1.845426   -0.111304
     13          8           0       -2.815421   -2.525744    0.880951
     14          8           0       -2.308024   -2.290225   -1.228126
     15          6           0        1.789565    2.500684   -0.459132
     16          6           0        2.833259    2.243108    0.435787
     17          6           0        3.274293    0.934608    0.654566
     18          6           0        2.646267   -0.097010   -0.041593
     19          6           0        1.603977    0.127504   -0.939655
     20          6           0        1.179331    1.443923   -1.142791
     21          1           0        1.453325    3.520235   -0.623009
     22          1           0        3.309028    3.061837    0.968115
     23          1           0        4.080140    0.706864    1.341706
     24          1           0        1.149232   -0.709365   -1.455675
     25          1           0        0.368560    1.640990   -1.838392
     26          7           0        3.104495   -1.486452    0.181738
     27          8           0        2.534717   -2.377816   -0.443930
     28          8           0        4.024755   -1.657823    0.978224
 ---------------------------------------------------------------------

 SCF Done:  E(RHF) =  -868.334104033     A.U. after   16 cycles
 E2 =    -0.2603831640D+01 EUMP2 =    -0.87093793567314D+03

 The electronic state is 1-A.
 Alpha  occ. eigenvalues --  -20.61080 -20.61063 -20.60630 -20.60595 -15.86134
 Alpha  occ. eigenvalues --  -15.85673 -11.31761 -11.31234 -11.28426 -11.28284
 Alpha  occ. eigenvalues --  -11.28150 -11.27806 -11.27772 -11.27655 -11.27526
 Alpha  occ. eigenvalues --  -11.27364 -11.26919 -11.26905  -1.60136  -1.59690
 Alpha  occ. eigenvalues --   -1.39687  -1.39235  -1.19964  -1.19425  -1.09308
 Alpha  occ. eigenvalues --   -1.08807  -1.05456  -1.04842  -0.96098  -0.95602
 Alpha  occ. eigenvalues --   -0.86824  -0.86260  -0.82966  -0.82422  -0.77977
 Alpha  occ. eigenvalues --   -0.77415  -0.72346  -0.71886  -0.71463  -0.71077
 Alpha  occ. eigenvalues --   -0.71019  -0.70562  -0.65650  -0.65522  -0.65081
 Alpha  occ. eigenvalues --   -0.64867  -0.62845  -0.62143  -0.55905  -0.55418
 Alpha  occ. eigenvalues --   -0.53957  -0.53555  -0.53066  -0.52800  -0.49121
 Alpha  occ. eigenvalues --   -0.49089  -0.48668  -0.48628  -0.45032  -0.44597
 Alpha  occ. eigenvalues --   -0.38057  -0.37551  -0.37140  -0.36024
 Alpha virt. eigenvalues --    0.04516   0.05160   0.10280   0.11441   0.15859
 Alpha virt. eigenvalues --    0.16644   0.19262   0.22126   0.25219   0.26723
 Alpha virt. eigenvalues --    0.28303   0.29008   0.29769   0.31372   0.32222

 Mulliken charges:
               1
     1  C   -0.170366
     2  C   -0.221166
     3  C   -0.174366
     4  C    0.162151
     5  C   -0.169059
     6  C   -0.216953
     7  H    0.224390
     8  H    0.217517
     9  H    0.273322
    10  H    0.279214
    11  H    0.225747
    12  N    0.488521
    13  O   -0.455110
    14  O   -0.459574
    15  C   -0.173797
    16  C   -0.218330
    17  C   -0.171608
    18  C    0.159124
    19  C   -0.175692
    20  C   -0.206108
    21  H    0.218996
    22  H    0.222154
    23  H    0.275936
    24  H    0.281177
    25  H    0.212106
    26  N    0.487426
    27  O   -0.454279
    28  O   -0.461369
 Sum of Mulliken charges =  -0.00000

 Dipole moment (field-independent basis, Debye):
    X=             -1.7670    Y=              9.7765    Z=              0.0014  Tot=              9.9349
 Quadrupole moment (field-independent basis, Debye-Ang):
   XX=           -111.6100   YY=           -110.3876   ZZ=            -98.4806
   XY=              1.2023   XZ=             -2.6860   YZ=              0.8746

 Normal termination of Gaussian 16 at Wed May  5 22:45:58 2021.
