 Gaussian 16, Revision A.03,
 Gaussian 16:  EM64L-G16RevA.03 25-Dec-2016

 -------------
 #p 6-31g* mp2
 -------------

 ------------------------------------------------------
 Input file generated by CHIRIPA (05-May-2021 14:55:24)
 ------------------------------------------------------
 Symbolic Z-matrix:
 Charge =  0 Multiplicity = 1

                         Standard orientation:
 ---------------------------------------------------------------------
 Center     Atomic      Atomic             Coordinates (Angstroms)
 Number     Number       Type             X           Y           Z
 ---------------------------------------------------------------------
      1          6           0       -3.758928    2.511978    0.015368
      2          6           0       -4.491856    1.629706   -0.785216
      3          6           0       -4.225810    0.257491   -0.757057
      4          6           0       -3.215283   -0.200140    0.087159
      5          6           0       -2.467640    0.653691    0.896660
      6          6           0       -2.750936    2.022019    0.852275
      7          1           0       -3.972299    3.576438   -0.012809
      8          1           0       -5.275252    2.007391   -1.436129
      9          1           0       -4.777856   -0.447770   -1.366377
     10          1           0       -1.692792    0.247444    1.535402
     11          1           0       -2.180125    2.704873    1.475115
     12          7           0       -2.924501   -1.650785    0.125558
     13          8           0       -2.029092   -2.028840    0.877858
     14          8           0       -3.597501   -2.382278   -0.597371
     15          6           0        4.801972    0.223644   -0.446866
     16          6           0        6.059040    0.130910    0.418678
     17          6           0        7.301241    0.681983   -0.282071
     18          1           0        4.968947   -0.323858   -1.384579
     19          1           0        4.632519    1.273409   -0.723766
     20          1           0        6.225294   -0.918192    0.695011
     21          1           0        5.888985    0.678536    1.354521
     22          1           0        7.160492    1.735780   -0.543420
     23          1           0        7.498711    0.129979   -1.206678
     24          1           0        8.188268    0.605875    0.354522
     25          6           0        3.551839   -0.323341    0.239941
     26          6           0        2.294772   -0.230606   -0.625602
     27          6           0        1.052571   -0.781680    0.075146
     28          1           0        3.721293   -1.373106    0.516842
     29          1           0        3.384865    0.224162    1.177654
     30          1           0        2.464827   -0.778232   -1.561446
     31          1           0        2.128518    0.818496   -0.901936
     32          1           0        0.855100   -0.229676    0.999753
     33          1           0        1.193321   -1.835476    0.336495
     34          1           0        0.165543   -0.705571   -0.561447
 ---------------------------------------------------------------------

 SCF Done:  E(RHF) =  -669.535192436     A.U. after   15 cycles
 E2 =    -0.2092194275D+01 EUMP2 =    -0.67162738671080D+03

 The electronic state is 1-A.
 Alpha  occ. eigenvalues --  -20.60811 -20.60780 -15.85822 -11.31177 -11.27761
 Alpha  occ. eigenvalues --  -11.27727 -11.27506 -11.26767 -11.26752 -11.21482
 Alpha  occ. eigenvalues --  -11.21282 -11.21234 -11.21142 -11.20985 -11.20566
 Alpha  occ. eigenvalues --   -1.59861  -1.39414  -1.19358  -1.08757  -1.08228
 Alpha  occ. eigenvalues --   -1.04758  -1.03294  -0.95754  -0.95569  -0.86752
 Alpha  occ. eigenvalues --   -0.86148  -0.82424  -0.79368  -0.78050  -0.77450
 Alpha  occ. eigenvalues --   -0.72049  -0.71184  -0.70470  -0.65011  -0.64880
 Alpha  occ. eigenvalues --   -0.64752  -0.62121  -0.60690  -0.59109  -0.57347
 Alpha  occ. eigenvalues --   -0.55292  -0.55007  -0.53102  -0.52874  -0.52390
 Alpha  occ. eigenvalues --   -0.52137  -0.49669  -0.48809  -0.48804  -0.47668
 Alpha  occ. eigenvalues --   -0.46404  -0.45585  -0.45514  -0.44848  -0.43451
 Alpha  occ. eigenvalues --   -0.37340  -0.36347
 Alpha virt. eigenvalues --    0.05039   0.11251   0.16514   0.21138   0.23046
 Alpha virt. eigenvalues --    0.24388   0.26079   0.27034   0.27693   0.27805
 Alpha virt. eigenvalues --    0.28896   0.30616   0.31453   0.31886   0.31998

 Mulliken charges:
               1
     1  C   -0.170480
     2  C   -0.218861
     3  C   -0.170879
     4  C    0.155772
     5  C   -0.169788
     6  C   -0.219960
     7  H    0.225539
     8  H    0.223355
     9  H    0.275518
    10  H    0.279916
    11  H    0.223250
    12  N    0.487809
    13  O   -0.457104
    14  O   -0.460307
    15  C   -0.297767
    16  C   -0.299426
    17  C   -0.475536
    18  H    0.150173
    19  H    0.147478
    20  H    0.152867
    21  H    0.150805
    22  H    0.154133
    23  H    0.155467
    24  H    0.159926
    25  C   -0.297977
    26  C   -0.302445
    27  C   -0.466620
    28  H    0.151846
    29  H    0.146710
    30  H    0.152927
    31  H    0.146467
    32  H    0.142316
    33  H    0.167188
    34  H    0.157687
 Sum of Mulliken charges =  -0.00000

 Dipole moment (field-independent basis, Debye):
    X=             -1.1066    Y=              4.9732    Z=             -0.1188  Tot=              5.0963
 Quadrupole moment (field-independent basis, Debye-Ang):
   XX=            -87.2805   YY=            -96.3670   ZZ=            -93.0480
   XY=            -16.5654   XZ=              3.4772   YZ=              1.5891

 Normal termination of Gaussian 16 at Thu May  6 15:58:35 2021.
