 Gaussian 16, Revision A.03,
 Gaussian 16:  EM64L-G16RevA.03 25-Dec-2016

 -------------
 #p 6-31g* mp2
 -------------

 ------------------------------------------------------
 Input file generated by CHIRIPA (05-May-2021 14:51:14)
 ------------------------------------------------------
 Symbolic Z-matrix:
 Charge =  0 Multiplicity = 1

                         Standard orientation:
 ---------------------------------------------------------------------
 Center     Atomic      Atomic             Coordinates (Angstroms)
 Number     Number       Type             X           Y           Z
 ---------------------------------------------------------------------
      1          6           0       -5.008643   -0.579405   -0.153920
      2          6           0       -6.486032   -0.311319    0.134931
      3          6           0       -7.309883   -1.594925    0.241797
      4          1           0       -4.922097   -1.151175   -1.088016
      5          1           0       -4.596310   -1.215698    0.641383
      6          1           0       -6.895106    0.325419   -0.659952
      7          1           0       -6.569060    0.260044    1.068348
      8          1           0       -6.928892   -2.231290    1.047084
      9          1           0       -7.256790   -2.165543   -0.691036
     10          1           0       -8.362937   -1.380043    0.448585
     11          6           0       -4.172004    0.694070   -0.263582
     12          6           0       -2.694615    0.425984   -0.552434
     13          6           0       -1.870765    1.709590   -0.659300
     14          1           0       -4.584337    1.330363   -1.058886
     15          1           0       -4.258550    1.265839    0.670514
     16          1           0       -2.611587   -0.145379   -1.485850
     17          1           0       -2.285542   -0.210755    0.242450
     18          1           0       -1.923858    2.280208    0.273533
     19          1           0       -2.251756    2.345954   -1.464586
     20          1           0       -0.817710    1.494708   -0.866087
     21          6           0        4.045952    0.478456    0.213521
     22          6           0        2.784557    0.054590    0.966653
     23          6           0        1.704681    1.137023    0.967388
     24          1           0        4.444995    1.396191    0.666812
     25          1           0        3.778741    0.731818   -0.821757
     26          1           0        3.054288   -0.199223    1.999822
     27          1           0        2.388578   -0.862349    0.511637
     28          1           0        1.407055    1.384960   -0.056597
     29          1           0        2.076548    2.051853    1.440043
     30          1           0        0.811834    0.813003    1.511167
     31          6           0        5.134696   -0.593120    0.203981
     32          6           0        6.396090   -0.169255   -0.549150
     33          6           0        7.475966   -1.251688   -0.549886
     34          1           0        5.401906   -0.846482    1.239259
     35          1           0        4.735652   -1.510855   -0.249309
     36          1           0        6.792069    0.747685   -0.094135
     37          1           0        6.126359    0.084559   -1.582320
     38          1           0        7.104100   -2.166518   -1.022542
     39          1           0        7.773592   -1.499625    0.474099
     40          1           0        8.368813   -0.927668   -1.093665
 ---------------------------------------------------------------------

 SCF Done:  E(RHF) =  -470.732964083     A.U. after   11 cycles
 E2 =    -0.1582395013D+01 EUMP2 =    -0.47231535909617D+03

 The electronic state is 1-A.
 Alpha  occ. eigenvalues --  -11.21602 -11.21596 -11.21585 -11.21557 -11.21407
 Alpha  occ. eigenvalues --  -11.21378 -11.21348 -11.21317 -11.21072 -11.21059
 Alpha  occ. eigenvalues --  -11.21049 -11.20947  -1.08432  -1.08397  -1.03543
 Alpha  occ. eigenvalues --   -1.03477  -0.96023  -0.95896  -0.87068  -0.86885
 Alpha  occ. eigenvalues --   -0.79635  -0.79513  -0.78244  -0.78212  -0.65068
 Alpha  occ. eigenvalues --   -0.65028  -0.60976  -0.60879  -0.59412  -0.59252
 Alpha  occ. eigenvalues --   -0.57608  -0.57549  -0.55309  -0.55193  -0.52846
 Alpha  occ. eigenvalues --   -0.52549  -0.52406  -0.52265  -0.49930  -0.49835
 Alpha  occ. eigenvalues --   -0.47957  -0.47820  -0.46625  -0.46579  -0.45786
 Alpha  occ. eigenvalues --   -0.45754  -0.45709  -0.45680  -0.43821  -0.43668
 Alpha virt. eigenvalues --    0.21948   0.23017   0.23527   0.25046   0.26373
 Alpha virt. eigenvalues --    0.26582   0.27041   0.27433   0.27648   0.28884
 Alpha virt. eigenvalues --    0.29515   0.31215   0.31677   0.31955   0.32198

 Mulliken charges:
               1
     1  C   -0.298194
     2  C   -0.299615
     3  C   -0.475680
     4  H    0.149521
     5  H    0.149377
     6  H    0.151905
     7  H    0.151917
     8  H    0.155134
     9  H    0.155126
    10  H    0.160200
    11  C   -0.298364
    12  C   -0.299723
    13  C   -0.479501
    14  H    0.149496
    15  H    0.149583
    16  H    0.151368
    17  H    0.151612
    18  H    0.155166
    19  H    0.153898
    20  H    0.166125
    21  C   -0.298473
    22  C   -0.299975
    23  C   -0.478323
    24  H    0.149728
    25  H    0.149517
    26  H    0.151801
    27  H    0.151891
    28  H    0.157736
    29  H    0.155275
    30  H    0.161413
    31  C   -0.298269
    32  C   -0.299657
    33  C   -0.475708
    34  H    0.149535
    35  H    0.149646
    36  H    0.151962
    37  H    0.151928
    38  H    0.155178
    39  H    0.155180
    40  H    0.160264
 Sum of Mulliken charges =  -0.00000

 Dipole moment (field-independent basis, Debye):
    X=              0.0263    Y=              0.0099    Z=              0.0071  Tot=              0.0290
 Quadrupole moment (field-independent basis, Debye-Ang):
   XX=            -86.0478   YY=            -85.8248   ZZ=            -83.0227
   XY=              0.1606   XZ=              0.6699   YZ=              0.3563

 Normal termination of Gaussian 16 at Thu May  6 04:00:48 2021.
