 Gaussian 16, Revision A.03,
 Gaussian 16:  EM64L-G16RevA.03 25-Dec-2016

 -------------
 #p 6-31g* mp2
 -------------

 ------------------------------------------------------
 Input file generated by CHIRIPA (05-May-2021 14:53:11)
 ------------------------------------------------------
 Symbolic Z-matrix:
 Charge =  0 Multiplicity = 1

                         Standard orientation:
 ---------------------------------------------------------------------
 Center     Atomic      Atomic             Coordinates (Angstroms)
 Number     Number       Type             X           Y           Z
 ---------------------------------------------------------------------
      1          6           0       -3.861450    0.725635    0.274553
      2          6           0       -3.078668    1.801287   -0.479244
      3          6           0       -2.024557    2.485068    0.392013
      4          1           0       -4.345580    1.179354    1.150168
      5          1           0       -3.159269   -0.026388    0.660297
      6          1           0       -3.782253    2.550325   -0.864634
      7          1           0       -2.596501    1.344993   -1.353273
      8          1           0       -1.300207    1.754001    0.765455
      9          1           0       -2.492695    2.966182    1.256870
     10          1           0       -1.476860    3.250378   -0.166725
     11          6           0       -4.918970    0.033000   -0.583139
     12          6           0       -5.701752   -1.042652    0.170657
     13          6           0       -6.755863   -1.726433   -0.700599
     14          1           0       -5.621151    0.785023   -0.968884
     15          1           0       -4.434840   -0.420719   -1.458754
     16          1           0       -6.183919   -0.586358    1.044687
     17          1           0       -4.998167   -1.791691    0.556048
     18          1           0       -6.287725   -2.207548   -1.565456
     19          1           0       -7.480213   -0.995367   -1.074041
     20          1           0       -7.303560   -2.491744   -0.141862
     21          6           0        1.211475   -0.786005    1.218247
     22          6           0        1.623927    0.537702    1.033308
     23          6           0        2.851084    0.820788    0.426272
     24          6           0        3.644316   -0.249003    0.014419
     25          6           0        3.261131   -1.578465    0.184686
     26          6           0        2.029951   -1.838010    0.794093
     27          1           0        0.256626   -0.996771    1.690729
     28          1           0        0.990345    1.356704    1.361718
     29          1           0        3.194879    1.836188    0.270751
     30          1           0        3.914389   -2.373785   -0.153160
     31          1           0        1.712201   -2.867001    0.936424
     32          7           0        4.945582    0.038227   -0.629478
     33          8           0        5.626125   -0.922076   -0.983481
     34          8           0        5.260335    1.218222   -0.767970
 ---------------------------------------------------------------------

 SCF Done:  E(RHF) =  -669.535429420     A.U. after   15 cycles
 E2 =    -0.2091117440D+01 EUMP2 =    -0.67162654685980D+03

 The electronic state is 1-A.
 Alpha  occ. eigenvalues --  -20.60756 -20.60751 -15.85809 -11.31180 -11.27749
 Alpha  occ. eigenvalues --  -11.27735 -11.27496 -11.26770 -11.26724 -11.22374
 Alpha  occ. eigenvalues --  -11.22176 -11.22163 -11.22070 -11.21987 -11.21540
 Alpha  occ. eigenvalues --   -1.59831  -1.39385  -1.19351  -1.09127  -1.08748
 Alpha  occ. eigenvalues --   -1.04753  -1.04227  -0.96697  -0.95582  -0.87721
 Alpha  occ. eigenvalues --   -0.86153  -0.82411  -0.80298  -0.78929  -0.77457
 Alpha  occ. eigenvalues --   -0.72028  -0.71154  -0.70464  -0.65770  -0.65004
 Alpha  occ. eigenvalues --   -0.64776  -0.62152  -0.61579  -0.60058  -0.58290
 Alpha  occ. eigenvalues --   -0.56010  -0.55253  -0.53393  -0.53190  -0.53068
 Alpha  occ. eigenvalues --   -0.52782  -0.50618  -0.48794  -0.48782  -0.48599
 Alpha  occ. eigenvalues --   -0.47316  -0.46475  -0.46387  -0.44789  -0.44479
 Alpha  occ. eigenvalues --   -0.37333  -0.36348
 Alpha virt. eigenvalues --    0.05073   0.11210   0.16560   0.19864   0.22445
 Alpha virt. eigenvalues --    0.23816   0.25426   0.25912   0.26630   0.28175
 Alpha virt. eigenvalues --    0.28749   0.30171   0.31025   0.31255   0.31577

 Mulliken charges:
               1
     1  C   -0.297323
     2  C   -0.299959
     3  C   -0.479190
     4  H    0.150920
     5  H    0.142741
     6  H    0.155805
     7  H    0.155194
     8  H    0.145376
     9  H    0.157798
    10  H    0.163969
    11  C   -0.298970
    12  C   -0.299669
    13  C   -0.476079
    14  H    0.151819
    15  H    0.151006
    16  H    0.152654
    17  H    0.149766
    18  H    0.155927
    19  H    0.156576
    20  H    0.161320
    21  C   -0.172730
    22  C   -0.220948
    23  C   -0.171811
    24  C    0.158697
    25  C   -0.171148
    26  C   -0.218503
    27  H    0.225480
    28  H    0.229287
    29  H    0.275913
    30  H    0.275559
    31  H    0.223297
    32  N    0.488017
    33  O   -0.460477
    34  O   -0.460316
 Sum of Mulliken charges =  -0.00000

 Dipole moment (field-independent basis, Debye):
    X=             -4.7554    Y=             -0.9675    Z=              2.1954  Tot=              5.3263
 Quadrupole moment (field-independent basis, Debye-Ang):
   XX=           -128.1812   YY=            -89.0961   ZZ=            -95.6666
   XY=             -4.5998   XZ=              7.7528   YZ=             -0.1879

 Normal termination of Gaussian 16 at Wed May  5 20:04:12 2021.
