 Gaussian 16, Revision A.03,
 Gaussian 16:  EM64L-G16RevA.03 25-Dec-2016

 -------------
 #p 6-31g* mp2
 -------------

 ------------------------------------------------------
 Input file generated by CHIRIPA (05-May-2021 14:51:10)
 ------------------------------------------------------
 Symbolic Z-matrix:
 Charge =  0 Multiplicity = 1

                         Standard orientation:
 ---------------------------------------------------------------------
 Center     Atomic      Atomic             Coordinates (Angstroms)
 Number     Number       Type             X           Y           Z
 ---------------------------------------------------------------------
      1          6           0       -2.940073    0.906624   -0.072394
      2          6           0       -3.494222    2.325253    0.063228
      3          6           0       -2.402193    3.394092    0.009850
      4          1           0       -2.209729    0.726981    0.728401
      5          1           0       -2.390930    0.824056   -1.020560
      6          1           0       -4.043331    2.404723    1.010213
      7          1           0       -4.223473    2.501473   -0.737868
      8          1           0       -1.859877    3.343664   -0.939862
      9          1           0       -1.678712    3.246364    0.818152
     10          1           0       -2.820443    4.400652    0.108661
     11          6           0       -4.019670   -0.172981   -0.020892
     12          6           0       -3.465520   -1.591610   -0.156514
     13          6           0       -4.557550   -2.660449   -0.103135
     14          1           0       -4.568813   -0.090413    0.927274
     15          1           0       -4.750013    0.006661   -0.821687
     16          1           0       -2.736270   -1.767830    0.644583
     17          1           0       -2.916411   -1.671080   -1.103499
     18          1           0       -5.281031   -2.512721   -0.911438
     19          1           0       -5.099866   -2.610021    0.846576
     20          1           0       -4.139300   -3.667009   -0.201946
     21          6           0        2.811375   -0.542766   -0.278300
     22          6           0        1.708208   -0.853190    0.733947
     23          6           0        0.376861   -1.203357    0.068596
     24          1           0        2.489318    0.290205   -0.918132
     25          1           0        2.947590   -1.409992   -0.939178
     26          1           0        1.575068    0.013845    1.393599
     27          1           0        2.033007   -1.685392    1.371567
     28          1           0        0.487289   -2.081895   -0.575281
     29          1           0        0.026749   -0.373003   -0.553124
     30          1           0       -0.397564   -1.421680    0.810527
     31          6           0        4.148368   -0.190877    0.371586
     32          6           0        5.251535    0.119547   -0.640661
     33          6           0        6.582883    0.469714    0.024689
     34          1           0        4.012153    0.676349    1.032464
     35          1           0        4.470424   -1.023848    1.011418
     36          1           0        4.926736    0.951749   -1.278282
     37          1           0        5.384674   -0.747487   -1.300314
     38          1           0        6.932994   -0.360640    0.646409
     39          1           0        6.472453    1.348252    0.668566
     40          1           0        7.357307    0.688038   -0.717242
 ---------------------------------------------------------------------

 SCF Done:  E(RHF) =  -470.732265162     A.U. after   11 cycles
 E2 =    -0.1583656026D+01 EUMP2 =    -0.47231592118767D+03

 The electronic state is 1-A.
 Alpha  occ. eigenvalues --  -11.21582 -11.21581 -11.21541 -11.21507 -11.21374
 Alpha  occ. eigenvalues --  -11.21356 -11.21314 -11.21295 -11.21084 -11.21056
 Alpha  occ. eigenvalues --  -11.21017 -11.20926  -1.08420  -1.08370  -1.03511
 Alpha  occ. eigenvalues --   -1.03472  -0.95971  -0.95916  -0.86979  -0.86950
 Alpha  occ. eigenvalues --   -0.79642  -0.79508  -0.78276  -0.78108  -0.65046
 Alpha  occ. eigenvalues --   -0.65019  -0.60912  -0.60885  -0.59449  -0.59190
 Alpha  occ. eigenvalues --   -0.57598  -0.57524  -0.55251  -0.55211  -0.52813
 Alpha  occ. eigenvalues --   -0.52527  -0.52412  -0.52313  -0.49902  -0.49878
 Alpha  occ. eigenvalues --   -0.47954  -0.47807  -0.46628  -0.46589  -0.45859
 Alpha  occ. eigenvalues --   -0.45710  -0.45654  -0.45518  -0.43772  -0.43603
 Alpha virt. eigenvalues --    0.21782   0.23131   0.24048   0.24181   0.25446
 Alpha virt. eigenvalues --    0.26317   0.26789   0.27754   0.27963   0.29635
 Alpha virt. eigenvalues --    0.30259   0.30978   0.31547   0.31950   0.32087

 Mulliken charges:
               1
     1  C   -0.300420
     2  C   -0.299474
     3  C   -0.475715
     4  H    0.152959
     5  H    0.149904
     6  H    0.151741
     7  H    0.151770
     8  H    0.154639
     9  H    0.154817
    10  H    0.160363
    11  C   -0.298415
    12  C   -0.302194
    13  C   -0.475443
    14  H    0.148876
    15  H    0.149199
    16  H    0.155188
    17  H    0.153427
    18  H    0.154812
    19  H    0.154633
    20  H    0.160071
    21  C   -0.298613
    22  C   -0.300475
    23  C   -0.478785
    24  H    0.149607
    25  H    0.149349
    26  H    0.151146
    27  H    0.151329
    28  H    0.153874
    29  H    0.159210
    30  H    0.162849
    31  C   -0.298150
    32  C   -0.299594
    33  C   -0.475675
    34  H    0.149447
    35  H    0.149525
    36  H    0.151917
    37  H    0.151837
    38  H    0.155119
    39  H    0.155168
    40  H    0.160177
 Sum of Mulliken charges =  -0.00000

 Dipole moment (field-independent basis, Debye):
    X=             -0.0157    Y=             -0.0050    Z=             -0.0079  Tot=              0.0183
 Quadrupole moment (field-independent basis, Debye-Ang):
   XX=            -86.4626   YY=            -84.7424   ZZ=            -83.8600
   XY=             -1.1327   XZ=             -0.2309   YZ=             -0.1100

 Normal termination of Gaussian 16 at Wed May  5 16:41:19 2021.
