 Gaussian 16, Revision A.03,
 Gaussian 16:  EM64L-G16RevA.03 25-Dec-2016

 -------------
 #p 6-31g* mp2
 -------------

 ------------------------------------------------------
 Input file generated by CHIRIPA (05-May-2021 14:55:21)
 ------------------------------------------------------
 Symbolic Z-matrix:
 Charge =  0 Multiplicity = 1

                         Standard orientation:
 ---------------------------------------------------------------------
 Center     Atomic      Atomic             Coordinates (Angstroms)
 Number     Number       Type             X           Y           Z
 ---------------------------------------------------------------------
      1          6           0        1.973582   -0.594831    2.480938
      2          6           0        1.019913   -0.066778    1.604469
      3          6           0        1.351184    0.202610    0.273215
      4          6           0        2.651317   -0.069393   -0.149818
      5          6           0        3.623728   -0.595475    0.699267
      6          6           0        3.270159   -0.857032    2.026341
      7          1           0        1.707582   -0.801057    3.513465
      8          1           0        0.012205    0.137846    1.954750
      9          1           0        0.632516    0.611438   -0.426638
     10          1           0        4.620152   -0.788963    0.320957
     11          1           0        4.012848   -1.267122    2.704784
     12          7           0        3.013821    0.211650   -1.556945
     13          8           0        4.166087   -0.036843   -1.905042
     14          8           0        2.138822    0.675104   -2.285110
     15          6           0       -3.262806   -0.480758   -0.535189
     16          6           0       -4.060530   -1.663129    0.015831
     17          6           0       -3.941738   -2.913858   -0.855581
     18          1           0       -3.609943   -0.254770   -1.552720
     19          1           0       -2.206078   -0.769097   -0.622261
     20          1           0       -5.115209   -1.372192    0.103141
     21          1           0       -3.711584   -1.886205    1.032241
     22          1           0       -2.896884   -3.231412   -0.933302
     23          1           0       -4.308484   -2.714478   -1.867681
     24          1           0       -4.519699   -3.746810   -0.443254
     25          6           0       -3.371619    0.776982    0.325030
     26          6           0       -2.573896    1.959354   -0.225989
     27          6           0       -2.692686    3.210083    0.645422
     28          1           0       -4.428347    1.065322    0.412103
     29          1           0       -3.024482    0.550995    1.342561
     30          1           0       -2.922841    2.182430   -1.242399
     31          1           0       -1.519216    1.668418   -0.313299
     32          1           0       -2.325941    3.010703    1.657523
     33          1           0       -3.737541    3.527637    0.723143
     34          1           0       -2.114725    4.043034    0.233096
 ---------------------------------------------------------------------

 SCF Done:  E(RHF) =  -669.535419937     A.U. after   15 cycles
 E2 =    -0.2092032181D+01 EUMP2 =    -0.67162745211760D+03

 The electronic state is 1-A.
 Alpha  occ. eigenvalues --  -20.60767 -20.60761 -15.85818 -11.31192 -11.27767
 Alpha  occ. eigenvalues --  -11.27752 -11.27515 -11.26790 -11.26780 -11.22261
 Alpha  occ. eigenvalues --  -11.22039 -11.22020 -11.21863 -11.21605 -11.21340
 Alpha  occ. eigenvalues --   -1.59841  -1.39394  -1.19370  -1.08988  -1.08763
 Alpha  occ. eigenvalues --   -1.04779  -1.04021  -0.96453  -0.95597  -0.87466
 Alpha  occ. eigenvalues --   -0.86174  -0.82431  -0.80094  -0.78791  -0.77473
 Alpha  occ. eigenvalues --   -0.72038  -0.71164  -0.70491  -0.65668  -0.65016
 Alpha  occ. eigenvalues --   -0.64784  -0.62178  -0.61369  -0.59815  -0.58056
 Alpha  occ. eigenvalues --   -0.55751  -0.55280  -0.53132  -0.53103  -0.52907
 Alpha  occ. eigenvalues --   -0.52828  -0.50403  -0.48797  -0.48794  -0.48387
 Alpha  occ. eigenvalues --   -0.47147  -0.46308  -0.46258  -0.44797  -0.44286
 Alpha  occ. eigenvalues --   -0.37352  -0.36377
 Alpha virt. eigenvalues --    0.05045   0.11267   0.16513   0.18177   0.22924
 Alpha virt. eigenvalues --    0.23809   0.24460   0.25632   0.27468   0.28395
 Alpha virt. eigenvalues --    0.29824   0.30323   0.31361   0.31521   0.32261

 Mulliken charges:
               1
     1  C   -0.170895
     2  C   -0.222967
     3  C   -0.182503
     4  C    0.161240
     5  C   -0.170274
     6  C   -0.218728
     7  H    0.225736
     8  H    0.225379
     9  H    0.286202
    10  H    0.275701
    11  H    0.223584
    12  N    0.487580
    13  O   -0.460442
    14  O   -0.459946
    15  C   -0.299593
    16  C   -0.299418
    17  C   -0.476227
    18  H    0.155009
    19  H    0.147001
    20  H    0.153381
    21  H    0.148664
    22  H    0.156615
    23  H    0.157700
    24  H    0.160856
    25  C   -0.299326
    26  C   -0.305096
    27  C   -0.475299
    28  H    0.153693
    29  H    0.142014
    30  H    0.159961
    31  H    0.146597
    32  H    0.150492
    33  H    0.158090
    34  H    0.165216
 Sum of Mulliken charges =  -0.00000

 Dipole moment (field-independent basis, Debye):
    X=             -1.4169    Y=             -0.9589    Z=              4.8512  Tot=              5.1441
 Quadrupole moment (field-independent basis, Debye-Ang):
   XX=            -95.9129   YY=            -95.3638   ZZ=            -96.6665
   XY=             -4.7833   XZ=             15.2402   YZ=             -1.3155

 Normal termination of Gaussian 16 at Thu May  6 06:11:28 2021.
