 Gaussian 16, Revision A.03,
 Gaussian 16:  EM64L-G16RevA.03 25-Dec-2016

 -------------
 #p 6-31g* mp2
 -------------

 ------------------------------------------------------
 Input file generated by CHIRIPA (05-May-2021 14:57:27)
 ------------------------------------------------------
 Symbolic Z-matrix:
 Charge =  0 Multiplicity = 1

                         Standard orientation:
 ---------------------------------------------------------------------
 Center     Atomic      Atomic             Coordinates (Angstroms)
 Number     Number       Type             X           Y           Z
 ---------------------------------------------------------------------
      1          6           0       -5.365890    1.529905    0.428694
      2          6           0       -4.435574    1.776090   -0.586405
      3          6           0       -3.405594    0.865825   -0.841570
      4          6           0       -3.335470   -0.285577   -0.058854
      5          6           0       -4.247167   -0.559092    0.959619
      6          6           0       -5.268889    0.365154    1.197111
      7          1           0       -6.162796    2.242451    0.620048
      8          1           0       -4.508453    2.679812   -1.184752
      9          1           0       -2.671963    1.031499   -1.621156
     10          1           0       -4.148672   -1.468805    1.539393
     11          1           0       -5.989979    0.171352    1.986107
     12          7           0       -2.249448   -1.256634   -0.319631
     13          8           0       -2.209488   -2.263560    0.384032
     14          8           0       -1.458747   -0.992436   -1.222753
     15          6           0        3.027819   -2.341502   -0.191086
     16          6           0        3.994531   -1.892265    0.714550
     17          6           0        4.272412   -0.527647    0.837629
     18          6           0        3.561506    0.364040    0.035883
     19          6           0        2.592531   -0.052555   -0.875615
     20          6           0        2.331133   -1.421834   -0.981884
     21          1           0        2.818356   -3.403381   -0.280167
     22          1           0        4.537138   -2.604215    1.329976
     23          1           0        5.015677   -0.152518    1.530632
     24          1           0        2.067988    0.681128   -1.475600
     25          1           0        1.579834   -1.767851   -1.686062
     26          7           0        3.846961    1.811166    0.157282
     27          8           0        3.206844    2.576503   -0.560456
     28          8           0        4.705413    2.152687    0.967876
 ---------------------------------------------------------------------

 SCF Done:  E(RHF) =  -868.340413951     A.U. after   16 cycles
 E2 =    -0.2598358757D+01 EUMP2 =    -0.87093877270818D+03

 The electronic state is 1-A.
 Alpha  occ. eigenvalues --  -20.61455 -20.61436 -20.60086 -20.60080 -15.86475
 Alpha  occ. eigenvalues --  -15.85125 -11.31556 -11.30223 -11.28094 -11.28086
 Alpha  occ. eigenvalues --  -11.27780 -11.27048 -11.27027 -11.26784 -11.26652
 Alpha  occ. eigenvalues --  -11.26367 -11.25776 -11.25485  -1.60505  -1.59166
 Alpha  occ. eigenvalues --   -1.40069  -1.38727  -1.19700  -1.18341  -1.09149
 Alpha  occ. eigenvalues --   -1.07782  -1.05061  -1.03677  -0.96034  -0.94671
 Alpha  occ. eigenvalues --   -0.86474  -0.85090  -0.82881  -0.81498  -0.77955
 Alpha  occ. eigenvalues --   -0.76586  -0.72722  -0.71797  -0.71354  -0.70809
 Alpha  occ. eigenvalues --   -0.70484  -0.69446  -0.65360  -0.65063  -0.63978
 Alpha  occ. eigenvalues --   -0.63643  -0.62414  -0.61020  -0.55574  -0.54188
 Alpha  occ. eigenvalues --   -0.53403  -0.53152  -0.52051  -0.51748  -0.49471
 Alpha  occ. eigenvalues --   -0.49437  -0.48122  -0.48079  -0.45534  -0.44192
 Alpha  occ. eigenvalues --   -0.37662  -0.36649  -0.36307  -0.35260
 Alpha virt. eigenvalues --    0.04559   0.05903   0.11009   0.12385   0.16110
 Alpha virt. eigenvalues --    0.17490   0.21158   0.22579   0.27092   0.27919
 Alpha virt. eigenvalues --    0.28625   0.29338   0.30778   0.32124   0.32284

 Mulliken charges:
               1
     1  C   -0.169704
     2  C   -0.218138
     3  C   -0.169612
     4  C    0.158111
     5  C   -0.170392
     6  C   -0.218484
     7  H    0.227531
     8  H    0.225982
     9  H    0.275062
    10  H    0.275392
    11  H    0.224646
    12  N    0.490784
    13  O   -0.459584
    14  O   -0.469662
    15  C   -0.171346
    16  C   -0.218784
    17  C   -0.173797
    18  C    0.157288
    19  C   -0.173287
    20  C   -0.214023
    21  H    0.226224
    22  H    0.219698
    23  H    0.271418
    24  H    0.273439
    25  H    0.240576
    26  N    0.488231
    27  O   -0.463943
    28  O   -0.463626
 Sum of Mulliken charges =  -0.00000

 Dipole moment (field-independent basis, Debye):
    X=             -5.2929    Y=             -1.7775    Z=              0.4170  Tot=              5.5990
 Quadrupole moment (field-independent basis, Debye-Ang):
   XX=            -85.0331   YY=           -109.5872   ZZ=           -100.5913
   XY=            -29.4574   XZ=             -3.6574   YZ=             -3.9879

 Normal termination of Gaussian 16 at Fri May  7 08:11:02 2021.
