 Gaussian 16, Revision A.03,
 Gaussian 16:  EM64L-G16RevA.03 25-Dec-2016

 -------------
 #p 6-31g* mp2
 -------------

 ------------------------------------------------------
 Input file generated by CHIRIPA (05-May-2021 14:55:23)
 ------------------------------------------------------
 Symbolic Z-matrix:
 Charge =  0 Multiplicity = 1

                         Standard orientation:
 ---------------------------------------------------------------------
 Center     Atomic      Atomic             Coordinates (Angstroms)
 Number     Number       Type             X           Y           Z
 ---------------------------------------------------------------------
      1          6           0       -0.419106   -1.801128    0.805999
      2          6           0       -1.341593   -2.376172   -0.074264
      3          6           0       -2.493113   -1.678764   -0.451322
      4          6           0       -2.691441   -0.402562    0.073334
      5          6           0       -1.790967    0.197355    0.952275
      6          6           0       -0.646337   -0.518462    1.315561
      7          1           0        0.472746   -2.350042    1.093557
      8          1           0       -1.167719   -3.372146   -0.471566
      9          1           0       -3.223704   -2.100132   -1.131105
     10          1           0       -1.991647    1.191897    1.331790
     11          1           0        0.068356   -0.069379    1.999362
     12          7           0       -3.906856    0.345496   -0.318550
     13          8           0       -4.058489    1.468392    0.157633
     14          8           0       -4.684852   -0.205235   -1.094472
     15          6           0        2.476122    0.936040   -0.095255
     16          6           0        2.377849    2.459219   -0.186080
     17          6           0        0.946159    2.970089   -0.021552
     18          1           0        1.834263    0.486980   -0.865519
     19          1           0        2.077593    0.607041    0.874451
     20          1           0        2.777721    2.785362   -1.154765
     21          1           0        3.020166    2.904706    0.584366
     22          1           0        0.540527    2.673082    0.950997
     23          1           0        0.296705    2.553060   -0.798016
     24          1           0        0.898974    4.061403   -0.089863
     25          6           0        3.901159    0.410140   -0.257824
     26          6           0        3.999432   -1.113040   -0.166999
     27          6           0        5.431122   -1.623909   -0.331528
     28          1           0        4.299689    0.739138   -1.227530
     29          1           0        4.543019    0.859199    0.512440
     30          1           0        3.357116   -1.558527   -0.937445
     31          1           0        3.599561   -1.439182    0.801686
     32          1           0        6.080576   -1.206880    0.444937
     33          1           0        5.836754   -1.326903   -1.304076
     34          1           0        5.478307   -2.715224   -0.263216
 ---------------------------------------------------------------------

 SCF Done:  E(RHF) =  -669.534460060     A.U. after   15 cycles
 E2 =    -0.2093520998D+01 EUMP2 =    -0.67162798105821D+03

 The electronic state is 1-A.
 Alpha  occ. eigenvalues --  -20.60719 -20.60713 -15.85772 -11.31129 -11.27693
 Alpha  occ. eigenvalues --  -11.27670 -11.27418 -11.26717 -11.26683 -11.22444
 Alpha  occ. eigenvalues --  -11.22144 -11.22072 -11.22013 -11.21748 -11.21562
 Alpha  occ. eigenvalues --   -1.59795  -1.39348  -1.19301  -1.09120  -1.08691
 Alpha  occ. eigenvalues --   -1.04711  -1.04173  -0.96609  -0.95529  -0.87627
 Alpha  occ. eigenvalues --   -0.86105  -0.82371  -0.80256  -0.78965  -0.77402
 Alpha  occ. eigenvalues --   -0.71990  -0.71119  -0.70395  -0.65792  -0.64953
 Alpha  occ. eigenvalues --   -0.64699  -0.62101  -0.61539  -0.59976  -0.58228
 Alpha  occ. eigenvalues --   -0.55898  -0.55195  -0.53310  -0.53127  -0.53031
 Alpha  occ. eigenvalues --   -0.52728  -0.50553  -0.48760  -0.48745  -0.48550
 Alpha  occ. eigenvalues --   -0.47294  -0.46461  -0.46375  -0.44755  -0.44427
 Alpha  occ. eigenvalues --   -0.37246  -0.36244
 Alpha virt. eigenvalues --    0.05092   0.11276   0.16489   0.19503   0.22705
 Alpha virt. eigenvalues --    0.23142   0.25203   0.25911   0.26442   0.28158
 Alpha virt. eigenvalues --    0.29681   0.30215   0.31155   0.31490   0.31571

 Mulliken charges:
               1
     1  C   -0.171498
     2  C   -0.219359
     3  C   -0.171439
     4  C    0.157264
     5  C   -0.171262
     6  C   -0.213394
     7  H    0.226988
     8  H    0.223150
     9  H    0.275207
    10  H    0.276089
    11  H    0.222941
    12  N    0.488095
    13  O   -0.460262
    14  O   -0.460821
    15  C   -0.297998
    16  C   -0.301027
    17  C   -0.474765
    18  H    0.155030
    19  H    0.138653
    20  H    0.155186
    21  H    0.152070
    22  H    0.144840
    23  H    0.161186
    24  H    0.164918
    25  C   -0.298339
    26  C   -0.299979
    27  C   -0.475714
    28  H    0.152871
    29  H    0.150667
    30  H    0.151861
    31  H    0.143714
    32  H    0.156913
    33  H    0.158142
    34  H    0.160070
 Sum of Mulliken charges =  -0.00000

 Dipole moment (field-independent basis, Debye):
    X=              4.3869    Y=             -2.5495    Z=              1.2540  Tot=              5.2266
 Quadrupole moment (field-independent basis, Debye-Ang):
   XX=           -118.8017   YY=            -90.0359   ZZ=            -92.4772
   XY=              7.2649   XZ=             -2.5363   YZ=              1.6587

 Normal termination of Gaussian 16 at Thu May  6 19:16:08 2021.
