 Gaussian 16, Revision A.03,
 Gaussian 16:  EM64L-G16RevA.03 25-Dec-2016

 -------------
 #p 6-31g* mp2
 -------------

 ------------------------------------------------------
 Input file generated by CHIRIPA (05-May-2021 14:57:22)
 ------------------------------------------------------
 Symbolic Z-matrix:
 Charge =  0 Multiplicity = 1

                         Standard orientation:
 ---------------------------------------------------------------------
 Center     Atomic      Atomic             Coordinates (Angstroms)
 Number     Number       Type             X           Y           Z
 ---------------------------------------------------------------------
      1          6           0       -3.627941   -2.018554   -0.072640
      2          6           0       -4.395981   -0.890316    0.233489
      3          6           0       -3.813782    0.380570    0.254466
      4          6           0       -2.454736    0.487160   -0.036948
      5          6           0       -1.663000   -0.617904   -0.345621
      6          6           0       -2.266302   -1.878993   -0.360710
      7          1           0       -4.088404   -3.002004   -0.086648
      8          1           0       -5.453670   -0.995699    0.457615
      9          1           0       -4.384974    1.270804    0.488223
     10          1           0       -0.610994   -0.481220   -0.564750
     11          1           0       -1.667380   -2.753438   -0.598793
     12          7           0       -1.827217    1.827405   -0.017857
     13          8           0       -0.627911    1.894604   -0.278216
     14          8           0       -2.546556    2.785312    0.257103
     15          6           0        2.554334   -0.401978    2.559517
     16          6           0        3.202043    0.658036    1.916582
     17          6           0        3.210570    0.743359    0.521162
     18          6           0        2.558528   -0.253152   -0.203474
     19          6           0        1.904458   -1.321629    0.407951
     20          6           0        1.908748   -1.386690    1.804481
     21          1           0        2.552689   -0.460389    3.643944
     22          1           0        3.704231    1.424202    2.500397
     23          1           0        3.704291    1.553080   -0.002296
     24          1           0        1.412455   -2.070357   -0.200948
     25          1           0        1.404920   -2.211054    2.301098
     26          7           0        2.560771   -0.173549   -1.681330
     27          8           0        1.979058   -1.064161   -2.297006
     28          8           0        3.144200    0.777949   -2.196015
 ---------------------------------------------------------------------

 SCF Done:  E(RHF) =  -868.337448927     A.U. after   16 cycles
 E2 =    -0.2602587184D+01 EUMP2 =    -0.87094003611128D+03

 The electronic state is 1-A.
 Alpha  occ. eigenvalues --  -20.60778 -20.60728 -20.60712 -20.60710 -15.85775
 Alpha  occ. eigenvalues --  -15.85770 -11.31127 -11.31107 -11.27809 -11.27724
 Alpha  occ. eigenvalues --  -11.27628 -11.27566 -11.27487 -11.27389 -11.26788
 Alpha  occ. eigenvalues --  -11.26735 -11.26725 -11.26614  -1.59793  -1.59789
 Alpha  occ. eigenvalues --   -1.39358  -1.39345  -1.19318  -1.19268  -1.08711
 Alpha  occ. eigenvalues --   -1.08672  -1.04780  -1.04641  -0.95569  -0.95499
 Alpha  occ. eigenvalues --   -0.86181  -0.86050  -0.82404  -0.82347  -0.77524
 Alpha  occ. eigenvalues --   -0.77342  -0.72027  -0.71995  -0.71107  -0.71087
 Alpha  occ. eigenvalues --   -0.70541  -0.70298  -0.64978  -0.64954  -0.64784
 Alpha  occ. eigenvalues --   -0.64667  -0.62286  -0.61852  -0.55273  -0.55162
 Alpha  occ. eigenvalues --   -0.53182  -0.53016  -0.52814  -0.52608  -0.48795
 Alpha  occ. eigenvalues --   -0.48755  -0.48748  -0.48724  -0.44757  -0.44748
 Alpha  occ. eigenvalues --   -0.37310  -0.37202  -0.36531  -0.36031
 Alpha virt. eigenvalues --    0.04941   0.05303   0.11144   0.11416   0.16461
 Alpha virt. eigenvalues --    0.16768   0.20292   0.22039   0.25492   0.27827
 Alpha virt. eigenvalues --    0.28252   0.28989   0.30829   0.31580   0.32477

 Mulliken charges:
               1
     1  C   -0.170337
     2  C   -0.219629
     3  C   -0.170080
     4  C    0.155985
     5  C   -0.170304
     6  C   -0.224590
     7  H    0.225067
     8  H    0.222949
     9  H    0.275227
    10  H    0.283749
    11  H    0.221249
    12  N    0.488332
    13  O   -0.461255
    14  O   -0.461223
    15  C   -0.170380
    16  C   -0.215217
    17  C   -0.162046
    18  C    0.172425
    19  C   -0.189669
    20  C   -0.214854
    21  H    0.225581
    22  H    0.225540
    23  H    0.278896
    24  H    0.265763
    25  H    0.220335
    26  N    0.490731
    27  O   -0.470257
    28  O   -0.451986
 Sum of Mulliken charges =  -0.00000

 Dipole moment (field-independent basis, Debye):
    X=             -1.9658    Y=             -4.6570    Z=              5.1664  Tot=              7.2280
 Quadrupole moment (field-independent basis, Debye-Ang):
   XX=            -88.6573   YY=           -105.9374   ZZ=           -107.9252
   XY=             11.1946   XZ=             12.7571   YZ=             -0.3632

 Normal termination of Gaussian 16 at Wed May  5 20:58:38 2021.
