 Gaussian 16, Revision A.03,
 Gaussian 16:  EM64L-G16RevA.03 25-Dec-2016

 -------------
 #p 6-31g* mp2
 -------------

 ------------------------------------------------------
 Input file generated by CHIRIPA (05-May-2021 14:51:14)
 ------------------------------------------------------
 Symbolic Z-matrix:
 Charge =  0 Multiplicity = 1

                         Standard orientation:
 ---------------------------------------------------------------------
 Center     Atomic      Atomic             Coordinates (Angstroms)
 Number     Number       Type             X           Y           Z
 ---------------------------------------------------------------------
      1          6           0        3.583456   -0.514164   -0.200465
      2          6           0        3.751518    0.601516   -1.232452
      3          6           0        5.179238    0.698505   -1.770972
      4          1           0        4.279940   -0.343117    0.631761
      5          1           0        3.870266   -1.471969   -0.656255
      6          1           0        3.463158    1.556739   -0.775272
      7          1           0        3.054419    0.427898   -2.062226
      8          1           0        5.474116   -0.239743   -2.251949
      9          1           0        5.885178    0.895512   -0.957683
     10          1           0        5.276879    1.502460   -2.507166
     11          6           0        2.161552   -0.623672    0.347189
     12          6           0        1.993490   -1.739353    1.379177
     13          6           0        0.565771   -1.836341    1.917696
     14          1           0        1.874742    0.334133    0.802980
     15          1           0        1.465069   -0.794719   -0.485036
     16          1           0        2.690590   -1.565735    2.208951
     17          1           0        2.281850   -2.694576    0.921997
     18          1           0       -0.140169   -2.033349    1.104408
     19          1           0        0.270892   -0.898094    2.398674
     20          1           0        0.468129   -2.640297    2.653891
     21          6           0       -2.288631    0.682938    0.405723
     22          6           0       -1.951411    2.160295    0.609896
     23          6           0       -0.781229    2.372211    1.570917
     24          1           0       -2.524200    0.229373    1.378210
     25          1           0       -1.400382    0.160611    0.024169
     26          1           0       -2.840436    2.679953    0.989641
     27          1           0       -1.716803    2.610440   -0.363215
     28          1           0        0.120833    1.879355    1.194118
     29          1           0       -1.009185    1.949262    2.554660
     30          1           0       -0.557174    3.435403    1.702381
     31          6           0       -3.456378    0.454898   -0.552448
     32          6           0       -3.793598   -1.022458   -0.756621
     33          6           0       -4.963779   -1.234375   -1.717642
     34          1           0       -4.344626    0.977226   -0.170894
     35          1           0       -3.220809    0.908463   -1.524935
     36          1           0       -4.028205   -1.472604    0.216489
     37          1           0       -2.904573   -1.542117   -1.136367
     38          1           0       -4.735825   -0.811425   -2.701385
     39          1           0       -5.865841   -0.741519   -1.340842
     40          1           0       -5.187834   -2.297567   -1.849106
 ---------------------------------------------------------------------

 SCF Done:  E(RHF) =  -470.732856436     A.U. after   11 cycles
 E2 =    -0.1584248726D+01 EUMP2 =    -0.47231710516205D+03

 The electronic state is 1-A.
 Alpha  occ. eigenvalues --  -11.21634 -11.21594 -11.21590 -11.21563 -11.21439
 Alpha  occ. eigenvalues --  -11.21379 -11.21350 -11.21268 -11.21093 -11.21062
 Alpha  occ. eigenvalues --  -11.21041 -11.20982  -1.08467  -1.08380  -1.03551
 Alpha  occ. eigenvalues --   -1.03488  -0.95994  -0.95941  -0.87020  -0.86951
 Alpha  occ. eigenvalues --   -0.79681  -0.79514  -0.78389  -0.78075  -0.65099
 Alpha  occ. eigenvalues --   -0.65020  -0.60958  -0.60891  -0.59412  -0.59259
 Alpha  occ. eigenvalues --   -0.57660  -0.57508  -0.55336  -0.55183  -0.52672
 Alpha  occ. eigenvalues --   -0.52664  -0.52519  -0.52270  -0.50011  -0.49828
 Alpha  occ. eigenvalues --   -0.48167  -0.47756  -0.46681  -0.46607  -0.46094
 Alpha  occ. eigenvalues --   -0.45722  -0.45644  -0.45207  -0.43795  -0.43750
 Alpha virt. eigenvalues --    0.20856   0.23012   0.23421   0.24101   0.25612
 Alpha virt. eigenvalues --    0.25711   0.26374   0.27796   0.28232   0.30014
 Alpha virt. eigenvalues --    0.30728   0.31419   0.31761   0.31861   0.32164

 Mulliken charges:
               1
     1  C   -0.297522
     2  C   -0.299832
     3  C   -0.475696
     4  H    0.149963
     5  H    0.149703
     6  H    0.151851
     7  H    0.151593
     8  H    0.155257
     9  H    0.155360
    10  H    0.160331
    11  C   -0.306769
    12  C   -0.299389
    13  C   -0.479353
    14  H    0.156880
    15  H    0.149099
    16  H    0.151824
    17  H    0.151696
    18  H    0.157132
    19  H    0.159040
    20  H    0.159346
    21  C   -0.302498
    22  C   -0.298883
    23  C   -0.483794
    24  H    0.150431
    25  H    0.155113
    26  H    0.151600
    27  H    0.151685
    28  H    0.162410
    29  H    0.154804
    30  H    0.159887
    31  C   -0.298395
    32  C   -0.299699
    33  C   -0.475625
    34  H    0.149343
    35  H    0.149263
    36  H    0.152387
    37  H    0.150941
    38  H    0.155068
    39  H    0.155298
    40  H    0.160149
 Sum of Mulliken charges =  -0.00000

 Dipole moment (field-independent basis, Debye):
    X=              0.0170    Y=             -0.0052    Z=              0.0098  Tot=              0.0203
 Quadrupole moment (field-independent basis, Debye-Ang):
   XX=            -85.9615   YY=            -84.5873   ZZ=            -84.3035
   XY=             -0.2757   XZ=             -0.4327   YZ=              0.3918

 Normal termination of Gaussian 16 at Thu May  6 02:26:11 2021.
