 Gaussian 16, Revision A.03,
 Gaussian 16:  EM64L-G16RevA.03 25-Dec-2016

 -------------
 #p 6-31g* mp2
 -------------

 ------------------------------------------------------
 Input file generated by CHIRIPA (05-May-2021 14:55:20)
 ------------------------------------------------------
 Symbolic Z-matrix:
 Charge =  0 Multiplicity = 1

                         Standard orientation:
 ---------------------------------------------------------------------
 Center     Atomic      Atomic             Coordinates (Angstroms)
 Number     Number       Type             X           Y           Z
 ---------------------------------------------------------------------
      1          6           0        4.773900   -1.638058    0.937300
      2          6           0        5.206452   -0.465469    0.309244
      3          6           0        4.291452    0.377256   -0.328829
      4          6           0        2.945325    0.015115   -0.319530
      5          6           0        2.483417   -1.146429    0.297517
      6          6           0        3.416157   -1.974203    0.929446
      7          1           0        5.491584   -2.286901    1.430584
      8          1           0        6.260280   -0.201896    0.313760
      9          1           0        4.599013    1.290980   -0.822725
     10          1           0        1.426452   -1.382632    0.276327
     11          1           0        3.077370   -2.884229    1.416397
     12          7           0        1.967266    0.899357   -0.991777
     13          8           0        0.786779    0.557904   -0.969494
     14          8           0        2.399670    1.917135   -1.528238
     15          6           0       -3.819896    0.709521    0.781801
     16          6           0       -2.533007    1.478317    0.480378
     17          6           0       -2.233522    2.559879    1.518802
     18          1           0       -4.659331    1.416651    0.829370
     19          1           0       -3.740391    0.251318    1.777353
     20          1           0       -2.614365    1.933785   -0.514884
     21          1           0       -1.696568    0.769252    0.433332
     22          1           0       -2.125662    2.118342    2.514799
     23          1           0       -3.048673    3.289492    1.561197
     24          1           0       -1.309309    3.097022    1.283920
     25          6           0       -4.132799   -0.375138   -0.247438
     26          6           0       -5.419688   -1.143933    0.053985
     27          6           0       -5.719173   -2.225496   -0.984440
     28          1           0       -4.212304    0.083066   -1.242991
     29          1           0       -3.293363   -1.082267   -0.295007
     30          1           0       -6.256126   -0.434867    0.101031
     31          1           0       -5.338329   -1.599401    1.049247
     32          1           0       -4.904022   -2.955108   -1.026835
     33          1           0       -5.827033   -1.783958   -1.980437
     34          1           0       -6.643385   -2.762638   -0.749558
 ---------------------------------------------------------------------

 SCF Done:  E(RHF) =  -669.535843220     A.U. after   15 cycles
 E2 =    -0.2090989725D+01 EUMP2 =    -0.67162683294457D+03

 The electronic state is 1-A.
 Alpha  occ. eigenvalues --  -20.60912 -20.60907 -15.85948 -11.31287 -11.27858
 Alpha  occ. eigenvalues --  -11.27848 -11.27591 -11.26865 -11.26854 -11.21070
 Alpha  occ. eigenvalues --  -11.20656 -11.20643 -11.20515 -11.20286 -11.20068
 Alpha  occ. eigenvalues --   -1.59976  -1.39532  -1.19458  -1.08858  -1.07621
 Alpha  occ. eigenvalues --   -1.04858  -1.02706  -0.95698  -0.95210  -0.86257
 Alpha  occ. eigenvalues --   -0.86233  -0.82534  -0.78779  -0.77603  -0.77346
 Alpha  occ. eigenvalues --   -0.72169  -0.71291  -0.70567  -0.65115  -0.64861
 Alpha  occ. eigenvalues --   -0.64266  -0.62206  -0.60114  -0.58579  -0.56773
 Alpha  occ. eigenvalues --   -0.55360  -0.54529  -0.53187  -0.52950  -0.51907
 Alpha  occ. eigenvalues --   -0.51624  -0.49190  -0.48931  -0.48928  -0.47086
 Alpha  occ. eigenvalues --   -0.45838  -0.45105  -0.44889  -0.44646  -0.42970
 Alpha  occ. eigenvalues --   -0.37436  -0.36460
 Alpha virt. eigenvalues --    0.04929   0.11195   0.16405   0.21243   0.23557
 Alpha virt. eigenvalues --    0.25046   0.26877   0.27448   0.27865   0.28667
 Alpha virt. eigenvalues --    0.28818   0.30786   0.31900   0.32303   0.32817

 Mulliken charges:
               1
     1  C   -0.170658
     2  C   -0.218505
     3  C   -0.170819
     4  C    0.158062
     5  C   -0.170569
     6  C   -0.218464
     7  H    0.225977
     8  H    0.223817
     9  H    0.275870
    10  H    0.274981
    11  H    0.223740
    12  N    0.491584
    13  O   -0.462726
    14  O   -0.459372
    15  C   -0.298655
    16  C   -0.301683
    17  C   -0.476438
    18  H    0.146396
    19  H    0.143792
    20  H    0.156406
    21  H    0.166917
    22  H    0.148026
    23  H    0.150896
    24  H    0.164432
    25  C   -0.296564
    26  C   -0.298944
    27  C   -0.474915
    28  H    0.151618
    29  H    0.148543
    30  H    0.151110
    31  H    0.149058
    32  H    0.153351
    33  H    0.155793
    34  H    0.157941
 Sum of Mulliken charges =  -0.00000

 Dipole moment (field-independent basis, Debye):
    X=              3.7172    Y=             -3.0855    Z=              2.2392  Tot=              5.3247
 Quadrupole moment (field-independent basis, Debye-Ang):
   XX=            -72.7195   YY=            -93.7682   ZZ=            -97.1607
   XY=             -7.4068   XZ=              5.4260   YZ=             -1.1925

 Normal termination of Gaussian 16 at Thu May  6 15:47:06 2021.
