 Gaussian 16, Revision A.03,
 Gaussian 16:  EM64L-G16RevA.03 25-Dec-2016

 -------------
 #p 6-31g* mp2
 -------------

 ------------------------------------------------------
 Input file generated by CHIRIPA (05-May-2021 14:57:23)
 ------------------------------------------------------
 Symbolic Z-matrix:
 Charge =  0 Multiplicity = 1

                         Standard orientation:
 ---------------------------------------------------------------------
 Center     Atomic      Atomic             Coordinates (Angstroms)
 Number     Number       Type             X           Y           Z
 ---------------------------------------------------------------------
      1          6           0       -6.284179    0.552785    0.094500
      2          6           0       -5.921765   -0.757771    0.422554
      3          6           0       -4.582719   -1.156937    0.375961
      4          6           0       -3.627792   -0.215373   -0.004645
      5          6           0       -3.957376    1.097638   -0.337308
      6          6           0       -5.302558    1.474682   -0.283717
      7          1           0       -7.326765    0.854274    0.133413
      8          1           0       -6.681969   -1.475861    0.716632
      9          1           0       -4.274359   -2.165110    0.624797
     10          1           0       -3.177069    1.790997   -0.626777
     11          1           0       -5.581100    2.493150   -0.539025
     12          7           0       -2.206956   -0.626242   -0.057675
     13          8           0       -1.384658    0.222247   -0.396098
     14          8           0       -1.942506   -1.788989    0.240187
     15          6           0        3.247787    2.589123    0.163096
     16          6           0        2.280143    1.647291   -0.201786
     17          6           0        2.609172    0.291890   -0.297581
     18          6           0        3.921339   -0.088375   -0.020259
     19          6           0        4.907805    0.826081    0.345726
     20          6           0        4.556222    2.176240    0.435208
     21          1           0        2.983429    3.639995    0.235059
     22          1           0        1.263205    1.965065   -0.413686
     23          1           0        1.879802   -0.458347   -0.577905
     24          1           0        5.913217    0.478999    0.550906
     25          1           0        5.309777    2.905468    0.718805
     26          7           0        4.281605   -1.520503   -0.118331
     27          8           0        5.444652   -1.829928    0.131101
     28          8           0        3.394114   -2.306463   -0.442773
 ---------------------------------------------------------------------

 SCF Done:  E(RHF) =  -868.339886508     A.U. after   16 cycles
 E2 =    -0.2598808494D+01 EUMP2 =    -0.87093869500233D+03

 The electronic state is 1-A.
 Alpha  occ. eigenvalues --  -20.61529 -20.61469 -20.59692 -20.59654 -15.86523
 Alpha  occ. eigenvalues --  -15.84721 -11.31690 -11.29978 -11.28268 -11.28198
 Alpha  occ. eigenvalues --  -11.27932 -11.27219 -11.27176 -11.26647 -11.26366
 Alpha  occ. eigenvalues --  -11.26345 -11.25686 -11.25406  -1.60545  -1.58756
 Alpha  occ. eigenvalues --   -1.40109  -1.38308  -1.19839  -1.18163  -1.09270
 Alpha  occ. eigenvalues --   -1.07607  -1.05215  -1.03515  -0.96140  -0.94442
 Alpha  occ. eigenvalues --   -0.86622  -0.84944  -0.82987  -0.81247  -0.78055
 Alpha  occ. eigenvalues --   -0.76287  -0.72758  -0.71841  -0.70948  -0.70943
 Alpha  occ. eigenvalues --   -0.70079  -0.69299  -0.65499  -0.65216  -0.63808
 Alpha  occ. eigenvalues --   -0.63514  -0.62567  -0.60821  -0.55719  -0.54112
 Alpha  occ. eigenvalues --   -0.53550  -0.53305  -0.51912  -0.51585  -0.49532
 Alpha  occ. eigenvalues --   -0.49462  -0.47712  -0.47685  -0.45552  -0.43735
 Alpha  occ. eigenvalues --   -0.37803  -0.36807  -0.36213  -0.35123
 Alpha virt. eigenvalues --    0.04478   0.06197   0.10851   0.12505   0.16009
 Alpha virt. eigenvalues --    0.17685   0.20954   0.22615   0.26898   0.27591
 Alpha virt. eigenvalues --    0.28721   0.29479   0.30628   0.31816   0.32415

 Mulliken charges:
               1
     1  C   -0.170024
     2  C   -0.218456
     3  C   -0.169970
     4  C    0.158206
     5  C   -0.170240
     6  C   -0.218345
     7  H    0.227338
     8  H    0.225723
     9  H    0.278161
    10  H    0.271610
    11  H    0.223983
    12  N    0.492809
    13  O   -0.476348
    14  O   -0.451154
    15  C   -0.172354
    16  C   -0.223168
    17  C   -0.173180
    18  C    0.157187
    19  C   -0.172787
    20  C   -0.219514
    21  H    0.219789
    22  H    0.234446
    23  H    0.291729
    24  H    0.271564
    25  H    0.218129
    26  N    0.487599
    27  O   -0.466146
    28  O   -0.456588
 Sum of Mulliken charges =  -0.00000

 Dipole moment (field-independent basis, Debye):
    X=             -6.9153    Y=              6.2511    Z=              0.5154  Tot=              9.3361
 Quadrupole moment (field-independent basis, Debye-Ang):
   XX=            -75.2077   YY=           -102.7831   ZZ=           -105.7541
   XY=             18.1114   XZ=              1.3787   YZ=             -1.5117

 Normal termination of Gaussian 16 at Thu May  6 01:47:45 2021.
