 Gaussian 16, Revision A.03,
 Gaussian 16:  EM64L-G16RevA.03 25-Dec-2016

 -------------
 #p 6-31g* mp2
 -------------

 ------------------------------------------------------
 Input file generated by CHIRIPA (05-May-2021 14:55:20)
 ------------------------------------------------------
 Symbolic Z-matrix:
 Charge =  0 Multiplicity = 1

                         Standard orientation:
 ---------------------------------------------------------------------
 Center     Atomic      Atomic             Coordinates (Angstroms)
 Number     Number       Type             X           Y           Z
 ---------------------------------------------------------------------
      1          6           0       -3.216894    2.655205   -0.299196
      2          6           0       -3.110447    2.160014    1.004635
      3          6           0       -2.976792    0.787417    1.234118
      4          6           0       -2.953136   -0.065301    0.131574
      5          6           0       -3.057021    0.397498   -1.179271
      6          6           0       -3.189889    1.773921   -1.385073
      7          1           0       -3.320415    3.722958   -0.468265
      8          1           0       -3.131119    2.842088    1.849852
      9          1           0       -2.892470    0.377080    2.233083
     10          1           0       -3.033248   -0.307111   -2.001693
     11          1           0       -3.272357    2.155666   -2.398737
     12          7           0       -2.812058   -1.520433    0.361982
     13          8           0       -2.793890   -2.250840   -0.626356
     14          8           0       -2.722320   -1.903006    1.526552
     15          6           0        4.227357    0.404115    0.003875
     16          6           0        5.722264    0.118422    0.150912
     17          6           0        6.544425    1.383665    0.397904
     18          1           0        4.075091    1.109573   -0.824430
     19          1           0        3.865964    0.905848    0.912200
     20          1           0        6.080435   -0.383865   -0.756853
     21          1           0        5.870972   -0.586586    0.978840
     22          1           0        6.214973    1.884443    1.314029
     23          1           0        6.425626    2.088316   -0.431526
     24          1           0        7.610156    1.156374    0.499971
     25          6           0        3.392194   -0.850891   -0.243492
     26          6           0        1.897288   -0.565198   -0.390528
     27          6           0        1.075127   -1.830441   -0.637521
     28          1           0        3.753587   -1.352623   -1.151816
     29          1           0        3.544461   -1.556348    0.584814
     30          1           0        1.748579    0.139811   -1.218456
     31          1           0        1.539116   -0.062910    0.517237
     32          1           0        1.193925   -2.535092    0.191910
     33          1           0        1.404579   -2.331219   -1.553645
     34          1           0        0.009396   -1.603151   -0.739586
 ---------------------------------------------------------------------

 SCF Done:  E(RHF) =  -669.535833783     A.U. after   15 cycles
 E2 =    -0.2091604668D+01 EUMP2 =    -0.67162743845138D+03

 The electronic state is 1-A.
 Alpha  occ. eigenvalues --  -20.60880 -20.60870 -15.85895 -11.31245 -11.27809
 Alpha  occ. eigenvalues --  -11.27806 -11.27547 -11.26820 -11.26811 -11.21471
 Alpha  occ. eigenvalues --  -11.21245 -11.21222 -11.21082 -11.21003 -11.20387
 Alpha  occ. eigenvalues --   -1.59936  -1.39492  -1.19414  -1.08815  -1.08191
 Alpha  occ. eigenvalues --   -1.04812  -1.03246  -0.95677  -0.95651  -0.86682
 Alpha  occ. eigenvalues --   -0.86213  -0.82486  -0.79314  -0.78006  -0.77538
 Alpha  occ. eigenvalues --   -0.72125  -0.71274  -0.70522  -0.65069  -0.64825
 Alpha  occ. eigenvalues --   -0.64815  -0.62160  -0.60643  -0.59058  -0.57296
 Alpha  occ. eigenvalues --   -0.55316  -0.54956  -0.53140  -0.52905  -0.52347
 Alpha  occ. eigenvalues --   -0.52099  -0.49609  -0.48888  -0.48882  -0.47635
 Alpha  occ. eigenvalues --   -0.46363  -0.45541  -0.45475  -0.44906  -0.43443
 Alpha  occ. eigenvalues --   -0.37391  -0.36411
 Alpha virt. eigenvalues --    0.04985   0.11209   0.16451   0.21366   0.23067
 Alpha virt. eigenvalues --    0.24496   0.26868   0.27263   0.27680   0.27975
 Alpha virt. eigenvalues --    0.28446   0.30670   0.31706   0.31892   0.32063

 Mulliken charges:
               1
     1  C   -0.170483
     2  C   -0.218449
     3  C   -0.170815
     4  C    0.157127
     5  C   -0.171996
     6  C   -0.218316
     7  H    0.225852
     8  H    0.223649
     9  H    0.275675
    10  H    0.276087
    11  H    0.223707
    12  N    0.488510
    13  O   -0.458030
    14  O   -0.458035
    15  C   -0.297578
    16  C   -0.299485
    17  C   -0.475453
    18  H    0.147657
    19  H    0.148175
    20  H    0.151988
    21  H    0.152598
    22  H    0.154420
    23  H    0.154130
    24  H    0.160085
    25  C   -0.298033
    26  C   -0.299994
    27  C   -0.477188
    28  H    0.149331
    29  H    0.151073
    30  H    0.147359
    31  H    0.149306
    32  H    0.160566
    33  H    0.154143
    34  H    0.162417
 Sum of Mulliken charges =  -0.00000

 Dipole moment (field-independent basis, Debye):
    X=             -0.6252    Y=              5.0610    Z=             -0.7813  Tot=              5.1590
 Quadrupole moment (field-independent basis, Debye-Ang):
   XX=            -93.4592   YY=            -96.3489   ZZ=            -89.0981
   XY=            -16.0275   XZ=              2.3237   YZ=              1.3100

 Normal termination of Gaussian 16 at Thu May  6 15:45:25 2021.
