 Gaussian 16, Revision A.03,
 Gaussian 16:  EM64L-G16RevA.03 25-Dec-2016

 -------------
 #p 6-31g* mp2
 -------------

 ------------------------------------------------------
 Input file generated by CHIRIPA (05-May-2021 14:55:22)
 ------------------------------------------------------
 Symbolic Z-matrix:
 Charge =  0 Multiplicity = 1

                         Standard orientation:
 ---------------------------------------------------------------------
 Center     Atomic      Atomic             Coordinates (Angstroms)
 Number     Number       Type             X           Y           Z
 ---------------------------------------------------------------------
      1          6           0        1.917342    2.232550    0.808368
      2          6           0        3.049694    1.633200    1.369686
      3          6           0        3.476822    0.375258    0.934149
      4          6           0        2.744633   -0.257840   -0.069035
      5          6           0        1.612403    0.313306   -0.647944
      6          6           0        1.203568    1.571855   -0.196884
      7          1           0        1.592644    3.209986    1.152733
      8          1           0        3.605966    2.143977    2.150528
      9          1           0        4.349886   -0.111682    1.351360
     10          1           0        1.078387   -0.220390   -1.424742
     11          1           0        0.323795    2.034914   -0.634629
     12          7           0        3.187131   -1.589888   -0.538336
     13          8           0        2.524761   -2.126939   -1.423479
     14          8           0        4.187951   -2.071673   -0.012144
     15          6           0       -3.565829   -0.470144    0.530253
     16          6           0       -4.064595   -1.803445   -0.027891
     17          6           0       -4.352425   -2.831797    1.066385
     18          1           0       -2.655610   -0.644389    1.120239
     19          1           0       -4.316199   -0.067640    1.224753
     20          1           0       -3.314123   -2.202641   -0.722191
     21          1           0       -4.973625   -1.625978   -0.616775
     22          1           0       -5.117438   -2.458078    1.754639
     23          1           0       -3.448505   -3.038016    1.648625
     24          1           0       -4.707775   -3.777419    0.645214
     25          6           0       -3.273733    0.568196   -0.551531
     26          6           0       -2.774969    1.901498    0.006613
     27          6           0       -2.487137    2.929849   -1.087664
     28          1           0       -2.523364    0.165692   -1.246032
     29          1           0       -4.183953    0.742443   -1.141517
     30          1           0       -1.865938    1.724032    0.595497
     31          1           0       -3.525440    2.300693    0.700912
     32          1           0       -3.391057    3.136069   -1.669903
     33          1           0       -1.722126    2.556131   -1.775917
     34          1           0       -2.131789    3.875472   -0.666492
 ---------------------------------------------------------------------

 SCF Done:  E(RHF) =  -669.535228039     A.U. after   15 cycles
 E2 =    -0.2092234440D+01 EUMP2 =    -0.67162746247960D+03

 The electronic state is 1-A.
 Alpha  occ. eigenvalues --  -20.60778 -20.60773 -15.85831 -11.31197 -11.27763
 Alpha  occ. eigenvalues --  -11.27758 -11.27494 -11.26775 -11.26706 -11.22456
 Alpha  occ. eigenvalues --  -11.22188 -11.22028 -11.21830 -11.21758 -11.21185
 Alpha  occ. eigenvalues --   -1.59854  -1.39407  -1.19365  -1.08999  -1.08755
 Alpha  occ. eigenvalues --   -1.04773  -1.04108  -0.96571  -0.95594  -0.87582
 Alpha  occ. eigenvalues --   -0.86164  -0.82428  -0.80189  -0.78735  -0.77483
 Alpha  occ. eigenvalues --   -0.72049  -0.71177  -0.70471  -0.65782  -0.65013
 Alpha  occ. eigenvalues --   -0.64724  -0.62273  -0.61311  -0.59976  -0.58142
 Alpha  occ. eigenvalues --   -0.55910  -0.55231  -0.53267  -0.53099  -0.53003
 Alpha  occ. eigenvalues --   -0.52767  -0.50518  -0.48809  -0.48805  -0.48475
 Alpha  occ. eigenvalues --   -0.47242  -0.46283  -0.46175  -0.44813  -0.44335
 Alpha  occ. eigenvalues --   -0.37338  -0.36357
 Alpha virt. eigenvalues --    0.05052   0.11184   0.16497   0.19384   0.22987
 Alpha virt. eigenvalues --    0.23904   0.25557   0.26597   0.26821   0.28576
 Alpha virt. eigenvalues --    0.29342   0.30146   0.30984   0.31513   0.32077

 Mulliken charges:
               1
     1  C   -0.174392
     2  C   -0.218308
     3  C   -0.171071
     4  C    0.158870
     5  C   -0.175255
     6  C   -0.225152
     7  H    0.226354
     8  H    0.223438
     9  H    0.275607
    10  H    0.275253
    11  H    0.238826
    12  N    0.488115
    13  O   -0.460595
    14  O   -0.460414
    15  C   -0.299241
    16  C   -0.300658
    17  C   -0.476201
    18  H    0.151622
    19  H    0.150090
    20  H    0.154961
    21  H    0.152071
    22  H    0.154508
    23  H    0.157101
    24  H    0.162423
    25  C   -0.297178
    26  C   -0.306646
    27  C   -0.482238
    28  H    0.146356
    29  H    0.152595
    30  H    0.150720
    31  H    0.156576
    32  H    0.164435
    33  H    0.148415
    34  H    0.159013
 Sum of Mulliken charges =  -0.00000

 Dipole moment (field-independent basis, Debye):
    X=             -1.7181    Y=              4.6441    Z=              1.6867  Tot=              5.2311
 Quadrupole moment (field-independent basis, Debye-Ang):
   XX=            -99.2037   YY=            -98.3164   ZZ=            -93.8507
   XY=             12.9913   XZ=              7.7464   YZ=             -0.0169

 Normal termination of Gaussian 16 at Wed May  5 15:58:59 2021.
