 Gaussian 16, Revision A.03,
 Gaussian 16:  EM64L-G16RevA.03 25-Dec-2016

 -------------
 #p 6-31g* mp2
 -------------

 ------------------------------------------------------
 Input file generated by CHIRIPA (05-May-2021 14:53:15)
 ------------------------------------------------------
 Symbolic Z-matrix:
 Charge =  0 Multiplicity = 1

                         Standard orientation:
 ---------------------------------------------------------------------
 Center     Atomic      Atomic             Coordinates (Angstroms)
 Number     Number       Type             X           Y           Z
 ---------------------------------------------------------------------
      1          6           0       -4.594317   -0.156746   -0.357586
      2          6           0       -5.895327   -0.681133    0.250998
      3          6           0       -6.580886   -1.726153   -0.629761
      4          1           0       -4.807042    0.276159   -1.344645
      5          1           0       -3.910783   -1.000247   -0.526947
      6          1           0       -6.575673    0.163281    0.420442
      7          1           0       -5.679511   -1.112668    1.236806
      8          1           0       -5.923409   -2.586958   -0.788943
      9          1           0       -6.824663   -1.303760   -1.609944
     10          1           0       -7.508885   -2.087430   -0.175716
     11          6           0       -3.897278    0.888711    0.511256
     12          6           0       -2.596268    1.413099   -0.097328
     13          6           0       -1.910709    2.458119    0.783432
     14          1           0       -4.580812    1.732213    0.680617
     15          1           0       -3.684553    0.455806    1.498315
     16          1           0       -2.812084    1.844634   -1.083135
     17          1           0       -1.915922    0.568685   -0.266772
     18          1           0       -1.666932    2.035726    1.763615
     19          1           0       -2.568186    3.318924    0.942613
     20          1           0       -0.982710    2.819396    0.329386
     21          6           0        5.821654    0.017073   -0.091213
     22          6           0        5.261096   -1.116732    0.506100
     23          6           0        3.874651   -1.295020    0.529213
     24          6           0        3.074892   -0.315217   -0.057013
     25          6           0        3.603345    0.825267   -0.659776
     26          6           0        4.992452    0.982751   -0.671221
     27          1           0        6.899711    0.147489   -0.104636
     28          1           0        5.902623   -1.868325    0.957315
     29          1           0        3.414176   -2.163203    0.984887
     30          1           0        2.938115    1.557268   -1.101433
     31          1           0        5.425010    1.864281   -1.135810
     32          7           0        1.605716   -0.492950   -0.038720
     33          8           0        0.922844    0.384800   -0.562053
     34          8           0        1.164867   -1.506641    0.498606
 ---------------------------------------------------------------------

 SCF Done:  E(RHF) =  -669.536438880     A.U. after   15 cycles
 E2 =    -0.2091357711D+01 EUMP2 =    -0.67162779659174D+03

 The electronic state is 1-A.
 Alpha  occ. eigenvalues --  -20.61060 -20.61034 -15.86060 -11.31349 -11.27905
 Alpha  occ. eigenvalues --  -11.27902 -11.27636 -11.26904 -11.26894 -11.20684
 Alpha  occ. eigenvalues --  -11.20296 -11.20233 -11.20044 -11.19789 -11.19587
 Alpha  occ. eigenvalues --   -1.60097  -1.39654  -1.19511  -1.08923  -1.07179
 Alpha  occ. eigenvalues --   -1.04902  -1.02263  -0.95772  -0.94771  -0.86304
 Alpha  occ. eigenvalues --   -0.85806  -0.82606  -0.78367  -0.77664  -0.76933
 Alpha  occ. eigenvalues --   -0.72282  -0.71402  -0.70620  -0.65168  -0.64906
 Alpha  occ. eigenvalues --   -0.63810  -0.62250  -0.59658  -0.58165  -0.56344
 Alpha  occ. eigenvalues --   -0.55408  -0.54085  -0.53235  -0.52993  -0.51488
 Alpha  occ. eigenvalues --   -0.51198  -0.49095  -0.49038  -0.48731  -0.46670
 Alpha  occ. eigenvalues --   -0.45378  -0.45063  -0.44514  -0.44284  -0.42532
 Alpha  occ. eigenvalues --   -0.37488  -0.36501
 Alpha virt. eigenvalues --    0.04859   0.11155   0.16357   0.21276   0.24058
 Alpha virt. eigenvalues --    0.25530   0.27204   0.27871   0.28102   0.28832
 Alpha virt. eigenvalues --    0.29131   0.30849   0.32222   0.32570   0.32963

 Mulliken charges:
               1
     1  C   -0.298187
     2  C   -0.298639
     3  C   -0.475113
     4  H    0.146638
     5  H    0.154012
     6  H    0.149172
     7  H    0.151154
     8  H    0.155475
     9  H    0.153502
    10  H    0.157066
    11  C   -0.297542
    12  C   -0.306530
    13  C   -0.472209
    14  H    0.142877
    15  H    0.148328
    16  H    0.143810
    17  H    0.181230
    18  H    0.151785
    19  H    0.144952
    20  H    0.162165
    21  C   -0.170456
    22  C   -0.218589
    23  C   -0.170572
    24  C    0.157764
    25  C   -0.170580
    26  C   -0.218532
    27  H    0.226207
    28  H    0.223989
    29  H    0.275887
    30  H    0.275826
    31  H    0.224064
    32  N    0.489819
    33  O   -0.459367
    34  O   -0.459411
 Sum of Mulliken charges =  -0.00000

 Dipole moment (field-independent basis, Debye):
    X=              5.6226    Y=              0.4767    Z=             -0.1200  Tot=              5.6440
 Quadrupole moment (field-independent basis, Debye-Ang):
   XX=            -65.0736   YY=            -92.2163   ZZ=            -94.4911
   XY=             -0.6713   XZ=             -0.1400   YZ=             -3.4712

 Normal termination of Gaussian 16 at Thu May  6 02:41:11 2021.
