 Gaussian 16, Revision A.03,
 Gaussian 16:  EM64L-G16RevA.03 25-Dec-2016

 -------------
 #p 6-31g* mp2
 -------------

 ------------------------------------------------------
 Input file generated by CHIRIPA (05-May-2021 14:51:11)
 ------------------------------------------------------
 Symbolic Z-matrix:
 Charge =  0 Multiplicity = 1

                         Standard orientation:
 ---------------------------------------------------------------------
 Center     Atomic      Atomic             Coordinates (Angstroms)
 Number     Number       Type             X           Y           Z
 ---------------------------------------------------------------------
      1          6           0        3.735308    0.565077    0.339101
      2          6           0        4.338383    1.080642   -0.967987
      3          6           0        5.210986    2.320144   -0.768009
      4          1           0        3.139354    1.364184    0.800850
      5          1           0        4.546704    0.333729    1.043025
      6          1           0        3.526141    1.309641   -1.669727
      7          1           0        4.932814    0.280153   -1.426774
      8          1           0        6.040825    2.101469   -0.088194
      9          1           0        4.626160    3.136806   -0.332528
     10          1           0        5.631941    2.671822   -1.715099
     11          6           0        2.860408   -0.673699    0.155500
     12          6           0        2.257333   -1.189264    1.462588
     13          6           0        1.384730   -2.428767    1.262609
     14          1           0        2.049011   -0.442351   -0.548424
     15          1           0        3.456362   -1.472806   -0.306249
     16          1           0        1.662901   -0.388776    1.921374
     17          1           0        3.069574   -1.418263    2.164328
     18          1           0        1.969556   -3.245428    0.827128
     19          1           0        0.554890   -2.210091    0.582794
     20          1           0        0.963775   -2.780444    2.209700
     21          6           0       -3.317125    0.653903    0.225510
     22          6           0       -4.449633    1.633654   -0.083522
     23          6           0       -4.475063    2.827888    0.870917
     24          1           0       -3.421619    0.296815    1.259200
     25          1           0       -2.357111    1.186004    0.174171
     26          1           0       -5.407126    1.099550   -0.032973
     27          1           0       -4.342541    1.988304   -1.116657
     28          1           0       -3.534792    3.385881    0.814920
     29          1           0       -4.605426    2.492077    1.904762
     30          1           0       -5.292356    3.515478    0.631936
     31          6           0       -3.278590   -0.545281   -0.720111
     32          6           0       -2.146083   -1.525032   -0.411079
     33          6           0       -2.120653   -2.719265   -1.365517
     34          1           0       -4.238605   -1.077381   -0.668772
     35          1           0       -3.174096   -0.188193   -1.753800
     36          1           0       -2.253175   -1.879682    0.622057
     37          1           0       -1.188589   -0.990927   -0.461628
     38          1           0       -1.990290   -2.383455   -2.399363
     39          1           0       -3.060924   -3.277259   -1.309521
     40          1           0       -1.303360   -3.406855   -1.126536
 ---------------------------------------------------------------------

 SCF Done:  E(RHF) =  -470.732940773     A.U. after   11 cycles
 E2 =    -0.1583115279D+01 EUMP2 =    -0.47231605605181D+03

 The electronic state is 1-A.
 Alpha  occ. eigenvalues --  -11.21647 -11.21631 -11.21608 -11.21564 -11.21442
 Alpha  occ. eigenvalues --  -11.21405 -11.21382 -11.21346 -11.21098 -11.21090
 Alpha  occ. eigenvalues --  -11.21077 -11.20945  -1.08476  -1.08416  -1.03593
 Alpha  occ. eigenvalues --   -1.03486  -0.96037  -0.95933  -0.87026  -0.86974
 Alpha  occ. eigenvalues --   -0.79700  -0.79521  -0.78318  -0.78206  -0.65138
 Alpha  occ. eigenvalues --   -0.65022  -0.61052  -0.60860  -0.59411  -0.59308
 Alpha  occ. eigenvalues --   -0.57757  -0.57462  -0.55313  -0.55197  -0.52723
 Alpha  occ. eigenvalues --   -0.52640  -0.52474  -0.52318  -0.49973  -0.49888
 Alpha  occ. eigenvalues --   -0.48019  -0.47827  -0.46750  -0.46540  -0.45899
 Alpha  occ. eigenvalues --   -0.45773  -0.45746  -0.45533  -0.43818  -0.43766
 Alpha virt. eigenvalues --    0.21149   0.23162   0.23454   0.24827   0.25972
 Alpha virt. eigenvalues --    0.26557   0.26963   0.27517   0.28099   0.29021
 Alpha virt. eigenvalues --    0.30761   0.30968   0.31550   0.31895   0.32111

 Mulliken charges:
               1
     1  C   -0.298270
     2  C   -0.299603
     3  C   -0.475697
     4  H    0.149540
     5  H    0.149720
     6  H    0.151633
     7  H    0.152018
     8  H    0.155260
     9  H    0.155125
    10  H    0.160236
    11  C   -0.298989
    12  C   -0.299123
    13  C   -0.485865
    14  H    0.148902
    15  H    0.149832
    16  H    0.151816
    17  H    0.151726
    18  H    0.154073
    19  H    0.168298
    20  H    0.159459
    21  C   -0.298318
    22  C   -0.299690
    23  C   -0.475709
    24  H    0.149862
    25  H    0.148994
    26  H    0.152095
    27  H    0.151972
    28  H    0.155056
    29  H    0.155265
    30  H    0.160391
    31  C   -0.297341
    32  C   -0.303279
    33  C   -0.478421
    34  H    0.149800
    35  H    0.149632
    36  H    0.153767
    37  H    0.151886
    38  H    0.155218
    39  H    0.155742
    40  H    0.162986
 Sum of Mulliken charges =  -0.00000

 Dipole moment (field-independent basis, Debye):
    X=             -0.0392    Y=             -0.0095    Z=             -0.0063  Tot=              0.0408
 Quadrupole moment (field-independent basis, Debye-Ang):
   XX=            -84.1613   YY=            -85.8168   ZZ=            -84.7783
   XY=             -0.5436   XZ=             -0.2178   YZ=             -0.9185

 Normal termination of Gaussian 16 at Thu May  6 05:25:12 2021.
