 Gaussian 16, Revision A.03,
 Gaussian 16:  EM64L-G16RevA.03 25-Dec-2016

 -------------
 #p 6-31g* mp2
 -------------

 ------------------------------------------------------
 Input file generated by CHIRIPA (05-May-2021 14:55:23)
 ------------------------------------------------------
 Symbolic Z-matrix:
 Charge =  0 Multiplicity = 1

                         Standard orientation:
 ---------------------------------------------------------------------
 Center     Atomic      Atomic             Coordinates (Angstroms)
 Number     Number       Type             X           Y           Z
 ---------------------------------------------------------------------
      1          6           0        1.477052    1.145562    0.771230
      2          6           0        2.442425    0.845806    1.738040
      3          6           0        3.616725    0.174514    1.384579
      4          6           0        3.793853   -0.183815    0.049096
      5          6           0        2.850678    0.100685   -0.937195
      6          6           0        1.683894    0.772702   -0.560953
      7          1           0        0.567747    1.667320    1.054655
      8          1           0        2.284466    1.134157    2.773389
      9          1           0        4.380540   -0.070037    2.112727
     10          1           0        3.036357   -0.199583   -1.961295
     11          1           0        0.935898    1.004188   -1.313921
     12          7           0        5.033053   -0.894866   -0.337156
     13          8           0        5.165280   -1.199724   -1.520463
     14          8           0        5.848646   -1.133865    0.550720
     15          6           0       -3.908676    0.266663   -0.426970
     16          6           0       -3.545332    1.739882   -0.238303
     17          6           0       -2.170016    2.087312   -0.808909
     18          1           0       -3.142634   -0.357707    0.052909
     19          1           0       -3.883313    0.024268   -1.498416
     20          1           0       -3.572723    1.979772    0.832359
     21          1           0       -4.312430    2.360821   -0.718524
     22          1           0       -2.133742    1.875873   -1.882491
     23          1           0       -1.389832    1.492660   -0.322797
     24          1           0       -1.930503    3.145265   -0.663210
     25          6           0       -5.280746   -0.096104    0.138318
     26          6           0       -5.644090   -1.569322   -0.050349
     27          6           0       -7.019406   -1.916752    0.520257
     28          1           0       -5.306110    0.146293    1.209764
     29          1           0       -6.046789    0.528268   -0.341562
     30          1           0       -4.876992   -2.190261    0.429871
     31          1           0       -5.616699   -1.809212   -1.121011
     32          1           0       -7.799589   -1.322100    0.034146
     33          1           0       -7.055680   -1.705314    1.593840
     34          1           0       -7.258919   -2.974705    0.374557
 ---------------------------------------------------------------------

 SCF Done:  E(RHF) =  -669.535246221     A.U. after   15 cycles
 E2 =    -0.2091448703D+01 EUMP2 =    -0.67162669492406D+03

 The electronic state is 1-A.
 Alpha  occ. eigenvalues --  -20.60719 -20.60714 -15.85772 -11.31128 -11.27695
 Alpha  occ. eigenvalues --  -11.27682 -11.27398 -11.26709 -11.26658 -11.22603
 Alpha  occ. eigenvalues --  -11.22421 -11.22179 -11.22103 -11.21992 -11.21483
 Alpha  occ. eigenvalues --   -1.59795  -1.39348  -1.19295  -1.09186  -1.08692
 Alpha  occ. eigenvalues --   -1.04696  -1.04325  -0.96805  -0.95530  -0.87834
 Alpha  occ. eigenvalues --   -0.86090  -0.82362  -0.80409  -0.78947  -0.77409
 Alpha  occ. eigenvalues --   -0.71990  -0.71118  -0.70431  -0.65822  -0.64948
 Alpha  occ. eigenvalues --   -0.64713  -0.62071  -0.61702  -0.60183  -0.58371
 Alpha  occ. eigenvalues --   -0.56164  -0.55145  -0.53500  -0.53261  -0.53017
 Alpha  occ. eigenvalues --   -0.52739  -0.50736  -0.48770  -0.48746  -0.48681
 Alpha  occ. eigenvalues --   -0.47417  -0.46500  -0.46391  -0.44756  -0.44552
 Alpha  occ. eigenvalues --   -0.37272  -0.36298
 Alpha virt. eigenvalues --    0.05112   0.11314   0.16596   0.20222   0.22350
 Alpha virt. eigenvalues --    0.23774   0.25671   0.25869   0.26963   0.27655
 Alpha virt. eigenvalues --    0.29196   0.30046   0.30830   0.31374   0.31921

 Mulliken charges:
               1
     1  C   -0.174922
     2  C   -0.218564
     3  C   -0.171140
     4  C    0.158432
     5  C   -0.171305
     6  C   -0.221534
     7  H    0.228917
     8  H    0.223075
     9  H    0.275295
    10  H    0.275467
    11  H    0.228208
    12  N    0.488067
    13  O   -0.460528
    14  O   -0.460617
    15  C   -0.299377
    16  C   -0.299504
    17  C   -0.485065
    18  H    0.149640
    19  H    0.151127
    20  H    0.152258
    21  H    0.156550
    22  H    0.158780
    23  H    0.148846
    24  H    0.163041
    25  C   -0.298842
    26  C   -0.300284
    27  C   -0.476119
    28  H    0.149886
    29  H    0.151089
    30  H    0.152703
    31  H    0.152964
    32  H    0.155864
    33  H    0.155522
    34  H    0.162069
 Sum of Mulliken charges =  -0.00000

 Dipole moment (field-independent basis, Debye):
    X=             -4.6160    Y=              2.4992    Z=              1.3314  Tot=              5.4154
 Quadrupole moment (field-independent basis, Debye-Ang):
   XX=           -127.9782   YY=            -96.5367   ZZ=            -89.4308
   XY=              9.9170   XZ=              7.5151   YZ=             -0.0424

 Normal termination of Gaussian 16 at Thu May  6 06:18:14 2021.
