 Gaussian 16, Revision A.03,
 Gaussian 16:  EM64L-G16RevA.03 25-Dec-2016

 -------------
 #p 6-31g* mp2
 -------------

 ------------------------------------------------------
 Input file generated by CHIRIPA (05-May-2021 14:57:26)
 ------------------------------------------------------
 Symbolic Z-matrix:
 Charge =  0 Multiplicity = 1

                         Standard orientation:
 ---------------------------------------------------------------------
 Center     Atomic      Atomic             Coordinates (Angstroms)
 Number     Number       Type             X           Y           Z
 ---------------------------------------------------------------------
      1          6           0       -3.060266    0.316551   -2.230397
      2          6           0       -3.482025    1.217122   -1.246724
      3          6           0       -3.194747    0.982170    0.101169
      4          6           0       -2.480521   -0.168550    0.431344
      5          6           0       -2.046634   -1.084696   -0.525583
      6          6           0       -2.345177   -0.829463   -1.867327
      7          1           0       -3.287806    0.506945   -3.275084
      8          1           0       -4.037536    2.107957   -1.525770
      9          1           0       -3.509190    1.662698    0.883105
     10          1           0       -1.494594   -1.964034   -0.216658
     11          1           0       -2.016368   -1.530605   -2.629121
     12          7           0       -2.170430   -0.428019    1.855043
     13          8           0       -1.539743   -1.449141    2.119958
     14          8           0       -2.563939    0.394645    2.679065
     15          6           0        2.523682    2.631267    0.100666
     16          6           0        3.591256    1.871622    0.590306
     17          6           0        3.606216    0.482733    0.431209
     18          6           0        2.532396   -0.116434   -0.225449
     19          6           0        1.454362    0.613066   -0.724413
     20          6           0        1.460517    2.000676   -0.553976
     21          1           0        2.520261    3.709693    0.228660
     22          1           0        4.418271    2.358656    1.099119
     23          1           0        4.420004   -0.129492    0.800458
     24          1           0        0.644145    0.099201   -1.227313
     25          1           0        0.630095    2.588096   -0.935267
     26          7           0        2.537057   -1.586112   -0.399880
     27          8           0        1.579040   -2.090031   -0.982034
     28          8           0        3.498640   -2.206297    0.048859
 ---------------------------------------------------------------------

 SCF Done:  E(RHF) =  -868.339112509     A.U. after   16 cycles
 E2 =    -0.2601468198D+01 EUMP2 =    -0.87094058070727D+03

 The electronic state is 1-A.
 Alpha  occ. eigenvalues --  -20.60879 -20.60814 -20.60796 -20.60761 -15.85892
 Alpha  occ. eigenvalues --  -15.85839 -11.31316 -11.31103 -11.27983 -11.27748
 Alpha  occ. eigenvalues --  -11.27714 -11.27658 -11.27636 -11.27413 -11.27010
 Alpha  occ. eigenvalues --  -11.26856 -11.26682 -11.26655  -1.59900  -1.59860
 Alpha  occ. eigenvalues --   -1.39469  -1.39405  -1.19541  -1.19271  -1.08906
 Alpha  occ. eigenvalues --   -1.08699  -1.04929  -1.04659  -0.95709  -0.95555
 Alpha  occ. eigenvalues --   -0.86301  -0.86074  -0.82514  -0.82405  -0.77570
 Alpha  occ. eigenvalues --   -0.77429  -0.72144  -0.72041  -0.71223  -0.71173
 Alpha  occ. eigenvalues --   -0.70580  -0.70404  -0.65154  -0.64950  -0.64863
 Alpha  occ. eigenvalues --   -0.64687  -0.62211  -0.62028  -0.55418  -0.55207
 Alpha  occ. eigenvalues --   -0.53392  -0.52975  -0.52948  -0.52668  -0.48888
 Alpha  occ. eigenvalues --   -0.48850  -0.48827  -0.48787  -0.44910  -0.44779
 Alpha  occ. eigenvalues --   -0.37595  -0.37247  -0.36565  -0.36205
 Alpha virt. eigenvalues --    0.04917   0.05078   0.10861   0.11608   0.16316
 Alpha virt. eigenvalues --    0.16576   0.21272   0.21652   0.27133   0.27438
 Alpha virt. eigenvalues --    0.28178   0.28660   0.30931   0.31180   0.32628

 Mulliken charges:
               1
     1  C   -0.173415
     2  C   -0.222271
     3  C   -0.173588
     4  C    0.157795
     5  C   -0.177743
     6  C   -0.227501
     7  H    0.226390
     8  H    0.222535
     9  H    0.275034
    10  H    0.293785
    11  H    0.232754
    12  N    0.487926
    13  O   -0.454384
    14  O   -0.462953
    15  C   -0.169219
    16  C   -0.218263
    17  C   -0.168745
    18  C    0.159877
    19  C   -0.174631
    20  C   -0.220842
    21  H    0.225224
    22  H    0.223888
    23  H    0.276122
    24  H    0.276508
    25  H    0.221682
    26  N    0.490940
    27  O   -0.470775
    28  O   -0.456129
 Sum of Mulliken charges =  -0.00000

 Dipole moment (field-independent basis, Debye):
    X=             -1.0275    Y=              5.8836    Z=             -4.2957  Tot=              7.3570
 Quadrupole moment (field-independent basis, Debye-Ang):
   XX=            -95.0198   YY=           -103.3546   ZZ=           -109.3082
   XY=              8.9841   XZ=             15.6970   YZ=              1.1783

 Normal termination of Gaussian 16 at Thu May  6 03:38:16 2021.
