 Gaussian 16, Revision A.03,
 Gaussian 16:  EM64L-G16RevA.03 25-Dec-2016

 -------------
 #p 6-31g* mp2
 -------------

 ------------------------------------------------------
 Input file generated by CHIRIPA (05-May-2021 14:51:08)
 ------------------------------------------------------
 Symbolic Z-matrix:
 Charge =  0 Multiplicity = 1

                         Standard orientation:
 ---------------------------------------------------------------------
 Center     Atomic      Atomic             Coordinates (Angstroms)
 Number     Number       Type             X           Y           Z
 ---------------------------------------------------------------------
      1          6           0       -2.718392   -0.880020    0.366407
      2          6           0       -1.859383   -1.778023   -0.524480
      3          6           0       -1.346493   -3.019155    0.206499
      4          1           0       -2.131074   -0.574427    1.243115
      5          1           0       -3.570070   -1.460335    0.747554
      6          1           0       -1.010334   -1.195805   -0.904945
      7          1           0       -2.448752   -2.081358   -1.399265
      8          1           0       -2.182650   -3.623952    0.572098
      9          1           0       -0.736060   -2.733367    1.069226
     10          1           0       -0.734771   -3.646941   -0.448894
     11          6           0       -3.238533    0.364850   -0.350168
     12          6           0       -4.097542    1.262854    0.540718
     13          6           0       -4.610432    2.503985   -0.190260
     14          1           0       -2.386855    0.945165   -0.731316
     15          1           0       -3.825851    0.059257   -1.226876
     16          1           0       -3.508173    1.566189    1.415504
     17          1           0       -4.946591    0.680636    0.921184
     18          1           0       -5.220865    2.218198   -1.052987
     19          1           0       -3.774275    3.108782   -0.555859
     20          1           0       -5.222154    3.131772    0.465133
     21          6           0        3.084507   -0.433935    0.298454
     22          6           0        2.403244   -1.555877   -0.485837
     23          6           0        2.624506   -2.933302    0.139891
     24          1           0        4.161607   -0.640904    0.361413
     25          1           0        2.705326   -0.434380    1.329772
     26          1           0        2.782578   -1.552434   -1.515745
     27          1           0        1.327668   -1.346114   -0.547102
     28          1           0        2.229635   -2.960656    1.160641
     29          1           0        3.692811   -3.168148    0.186495
     30          1           0        2.128933   -3.720517   -0.436788
     31          6           0        2.872418    0.949104   -0.314692
     32          6           0        3.553682    2.071046    0.469599
     33          6           0        3.332419    3.448471   -0.156130
     34          1           0        3.251598    0.949550   -1.346011
     35          1           0        1.795318    1.156074   -0.377653
     36          1           0        4.629257    1.861283    0.530864
     37          1           0        3.174347    2.067604    1.499506
     38          1           0        2.264114    3.683318   -0.202734
     39          1           0        3.727290    3.475824   -1.176880
     40          1           0        3.827992    4.235687    0.420549
 ---------------------------------------------------------------------

 SCF Done:  E(RHF) =  -470.732905715     A.U. after   11 cycles
 E2 =    -0.1583683860D+01 EUMP2 =    -0.47231658957537D+03

 The electronic state is 1-A.
 Alpha  occ. eigenvalues --  -11.21632 -11.21629 -11.21625 -11.21559 -11.21443
 Alpha  occ. eigenvalues --  -11.21428 -11.21384 -11.21364 -11.21097 -11.21094
 Alpha  occ. eigenvalues --  -11.21073 -11.21031  -1.08483  -1.08428  -1.03608
 Alpha  occ. eigenvalues --   -1.03486  -0.96056  -0.95932  -0.87062  -0.86957
 Alpha  occ. eigenvalues --   -0.79689  -0.79538  -0.78324  -0.78215  -0.65266
 Alpha  occ. eigenvalues --   -0.64945  -0.61260  -0.60667  -0.59521  -0.59210
 Alpha  occ. eigenvalues --   -0.57723  -0.57469  -0.55466  -0.55078  -0.52804
 Alpha  occ. eigenvalues --   -0.52577  -0.52473  -0.52336  -0.50066  -0.49815
 Alpha  occ. eigenvalues --   -0.48080  -0.47808  -0.46898  -0.46453  -0.45972
 Alpha  occ. eigenvalues --   -0.45799  -0.45755  -0.45435  -0.43867  -0.43726
 Alpha virt. eigenvalues --    0.20332   0.23165   0.23464   0.24889   0.25774
 Alpha virt. eigenvalues --    0.26498   0.26874   0.27342   0.28662   0.29161
 Alpha virt. eigenvalues --    0.29422   0.30860   0.31328   0.32109   0.32838

 Mulliken charges:
               1
     1  C   -0.297999
     2  C   -0.306137
     3  C   -0.476891
     4  H    0.149028
     5  H    0.149872
     6  H    0.156124
     7  H    0.152524
     8  H    0.155144
     9  H    0.156112
    10  H    0.162153
    11  C   -0.298312
    12  C   -0.299669
    13  C   -0.475722
    14  H    0.149192
    15  H    0.149957
    16  H    0.151778
    17  H    0.152078
    18  H    0.155307
    19  H    0.155175
    20  H    0.160363
    21  C   -0.297608
    22  C   -0.309881
    23  C   -0.474333
    24  H    0.149829
    25  H    0.148837
    26  H    0.151590
    27  H    0.161944
    28  H    0.155215
    29  H    0.154330
    30  H    0.160746
    31  C   -0.298138
    32  C   -0.299647
    33  C   -0.475670
    34  H    0.149791
    35  H    0.148296
    36  H    0.152203
    37  H    0.151820
    38  H    0.154899
    39  H    0.155314
    40  H    0.160384
 Sum of Mulliken charges =  -0.00000

 Dipole moment (field-independent basis, Debye):
    X=             -0.0167    Y=             -0.0186    Z=             -0.0069  Tot=              0.0260
 Quadrupole moment (field-independent basis, Debye-Ang):
   XX=            -83.5603   YY=            -86.4766   ZZ=            -84.6598
   XY=              0.8621   XZ=             -0.4274   YZ=              0.9478

 Normal termination of Gaussian 16 at Wed May  5 18:05:51 2021.
