 Gaussian 16, Revision A.03,
 Gaussian 16:  EM64L-G16RevA.03 25-Dec-2016

 -------------
 #p 6-31g* mp2
 -------------

 ------------------------------------------------------
 Input file generated by CHIRIPA (05-May-2021 14:53:12)
 ------------------------------------------------------
 Symbolic Z-matrix:
 Charge =  0 Multiplicity = 1

                         Standard orientation:
 ---------------------------------------------------------------------
 Center     Atomic      Atomic             Coordinates (Angstroms)
 Number     Number       Type             X           Y           Z
 ---------------------------------------------------------------------
      1          6           0        5.089679   -0.203175    0.276193
      2          6           0        5.994376   -0.929332   -0.719901
      3          6           0        7.311691   -1.389917   -0.095132
      4          1           0        5.626422    0.664032    0.684609
      5          1           0        4.880970   -0.869535    1.124603
      6          1           0        6.200189   -0.262292   -1.566845
      7          1           0        5.455348   -1.794802   -1.126136
      8          1           0        7.124194   -2.075752    0.737380
      9          1           0        7.873268   -0.534535    0.294168
     10          1           0        7.943046   -1.906584   -0.824725
     11          6           0        3.768963    0.263392   -0.333522
     12          6           0        2.864266    0.989549    0.662572
     13          6           0        1.546950    1.450134    0.037803
     14          1           0        3.977672    0.929752   -1.181932
     15          1           0        3.232220   -0.603815   -0.741937
     16          1           0        3.403294    1.855019    1.068808
     17          1           0        2.658452    0.322509    1.509516
     18          1           0        0.985374    0.594752   -0.351496
     19          1           0        1.734448    2.135969   -0.794709
     20          1           0        0.915596    1.966801    0.767397
     21          6           0       -2.031375    2.052865    0.133764
     22          6           0       -2.859927    1.831782   -0.971289
     23          6           0       -3.656015    0.684804   -1.043642
     24          6           0       -3.598560   -0.224260    0.011627
     25          6           0       -2.783283   -0.032206    1.125956
     26          6           0       -1.995759    1.121807    1.177020
     27          1           0       -1.416280    2.946598    0.181701
     28          1           0       -2.889618    2.553136   -1.782961
     29          1           0       -4.306481    0.488752   -1.887369
     30          1           0       -2.775097   -0.769387    1.919627
     31          1           0       -1.353240    1.290894    2.036453
     32          7           0       -4.436810   -1.442238   -0.053701
     33          8           0       -4.368115   -2.227843    0.889030
     34          8           0       -5.146652   -1.588221   -1.046400
 ---------------------------------------------------------------------

 SCF Done:  E(RHF) =  -669.534535689     A.U. after   15 cycles
 E2 =    -0.2091973067D+01 EUMP2 =    -0.67162650875629D+03

 The electronic state is 1-A.
 Alpha  occ. eigenvalues --  -20.60731 -20.60726 -15.85786 -11.31133 -11.27710
 Alpha  occ. eigenvalues --  -11.27703 -11.27424 -11.26711 -11.26699 -11.22238
 Alpha  occ. eigenvalues --  -11.21897 -11.21886 -11.21864 -11.21744 -11.21311
 Alpha  occ. eigenvalues --   -1.59808  -1.39362  -1.19313  -1.08893  -1.08706
 Alpha  occ. eigenvalues --   -1.04718  -1.04019  -0.96493  -0.95539  -0.87518
 Alpha  occ. eigenvalues --   -0.86109  -0.82378  -0.80093  -0.78674  -0.77428
 Alpha  occ. eigenvalues --   -0.72005  -0.71132  -0.70428  -0.65514  -0.64970
 Alpha  occ. eigenvalues --   -0.64743  -0.62084  -0.61407  -0.59883  -0.58080
 Alpha  occ. eigenvalues --   -0.55769  -0.55224  -0.53443  -0.52948  -0.52798
 Alpha  occ. eigenvalues --   -0.52754  -0.50393  -0.48762  -0.48759  -0.48403
 Alpha  occ. eigenvalues --   -0.47103  -0.46223  -0.46128  -0.44772  -0.44286
 Alpha  occ. eigenvalues --   -0.37219  -0.36308
 Alpha virt. eigenvalues --    0.05097   0.11295   0.16559   0.20438   0.22574
 Alpha virt. eigenvalues --    0.23986   0.26204   0.26304   0.27016   0.27691
 Alpha virt. eigenvalues --    0.28539   0.30558   0.30966   0.31333   0.31815

 Mulliken charges:
               1
     1  C   -0.298645
     2  C   -0.300085
     3  C   -0.475972
     4  H    0.149636
     5  H    0.150312
     6  H    0.152046
     7  H    0.153213
     8  H    0.155828
     9  H    0.155137
    10  H    0.161387
    11  C   -0.299203
    12  C   -0.300360
    13  C   -0.475115
    14  H    0.149826
    15  H    0.151929
    16  H    0.151900
    17  H    0.151938
    18  H    0.163530
    19  H    0.154167
    20  H    0.146916
    21  C   -0.166254
    22  C   -0.220218
    23  C   -0.171118
    24  C    0.158001
    25  C   -0.172706
    26  C   -0.215970
    27  H    0.226364
    28  H    0.223260
    29  H    0.275364
    30  H    0.275210
    31  H    0.222955
    32  N    0.488124
    33  O   -0.460752
    34  O   -0.460645
 Sum of Mulliken charges =  -0.00000

 Dipole moment (field-independent basis, Debye):
    X=              3.0741    Y=              4.2522    Z=              0.1794  Tot=              5.2501
 Quadrupole moment (field-independent basis, Debye-Ang):
   XX=           -116.6802   YY=            -96.3773   ZZ=            -91.0796
   XY=            -16.2521   XZ=              0.5634   YZ=             -1.7028

 Normal termination of Gaussian 16 at Thu May  6 13:37:38 2021.
