 Gaussian 16, Revision A.03,
 Gaussian 16:  EM64L-G16RevA.03 25-Dec-2016

 -------------
 #p 6-31g* mp2
 -------------

 ------------------------------------------------------
 Input file generated by CHIRIPA (05-May-2021 14:57:26)
 ------------------------------------------------------
 Symbolic Z-matrix:
 Charge =  0 Multiplicity = 1

                         Standard orientation:
 ---------------------------------------------------------------------
 Center     Atomic      Atomic             Coordinates (Angstroms)
 Number     Number       Type             X           Y           Z
 ---------------------------------------------------------------------
      1          6           0        2.143560    2.036090   -0.101236
      2          6           0        1.830715    0.932951    0.699846
      3          6           0        2.666131   -0.187815    0.722475
      4          6           0        3.811473   -0.171510   -0.072015
      5          6           0        4.150286    0.912293   -0.880635
      6          6           0        3.300308    2.022265   -0.887534
      7          1           0        1.488933    2.902536   -0.112705
      8          1           0        0.933031    0.940906    1.311521
      9          1           0        2.447864   -1.055312    1.333397
     10          1           0        5.052114    0.875049   -1.479582
     11          1           0        3.545776    2.877564   -1.510634
     12          7           0        4.703599   -1.352302   -0.056386
     13          8           0        5.706761   -1.313189   -0.765451
     14          8           0        4.382792   -2.294560    0.664633
     15          6           0       -2.184077    1.818514    0.959415
     16          6           0       -3.102508    2.087846   -0.060616
     17          6           0       -3.927787    1.075169   -0.558559
     18          6           0       -3.807556   -0.201138   -0.010950
     19          6           0       -2.902282   -0.500830    1.005884
     20          6           0       -2.087066    0.527310    1.488477
     21          1           0       -1.546889    2.611192    1.340268
     22          1           0       -3.180029    3.089672   -0.473388
     23          1           0       -4.647438    1.256016   -1.347745
     24          1           0       -2.847983   -1.509392    1.397386
     25          1           0       -1.374704    0.315244    2.280698
     26          7           0       -4.675916   -1.281400   -0.529975
     27          8           0       -4.550593   -2.397477   -0.030671
     28          8           0       -5.465414   -0.991578   -1.426262
 ---------------------------------------------------------------------

 SCF Done:  E(RHF) =  -868.335935874     A.U. after   16 cycles
 E2 =    -0.2600817155D+01 EUMP2 =    -0.87093675302906D+03

 The electronic state is 1-A.
 Alpha  occ. eigenvalues --  -20.61314 -20.61308 -20.61132 -20.61127 -15.86376
 Alpha  occ. eigenvalues --  -15.86191 -11.31959 -11.31680 -11.28570 -11.28539
 Alpha  occ. eigenvalues --  -11.28465 -11.28294 -11.28240 -11.28103 -11.27729
 Alpha  occ. eigenvalues --  -11.27627 -11.27386 -11.27299  -1.60384  -1.60204
 Alpha  occ. eigenvalues --   -1.39931  -1.39755  -1.20175  -1.19875  -1.09561
 Alpha  occ. eigenvalues --   -1.09258  -1.05612  -1.05302  -0.96346  -0.96070
 Alpha  occ. eigenvalues --   -0.87045  -0.86690  -0.83168  -0.82904  -0.78167
 Alpha  occ. eigenvalues --   -0.77912  -0.72593  -0.72409  -0.71709  -0.71528
 Alpha  occ. eigenvalues --   -0.71354  -0.71006  -0.65890  -0.65768  -0.65539
 Alpha  occ. eigenvalues --   -0.65212  -0.62994  -0.62596  -0.56200  -0.55839
 Alpha  occ. eigenvalues --   -0.53986  -0.53753  -0.53603  -0.53320  -0.49370
 Alpha  occ. eigenvalues --   -0.49330  -0.49177  -0.49154  -0.45288  -0.45133
 Alpha  occ. eigenvalues --   -0.38239  -0.37841  -0.37213  -0.36859
 Alpha virt. eigenvalues --    0.04362   0.04637   0.10194   0.10833   0.15728
 Alpha virt. eigenvalues --    0.16110   0.18231   0.22163   0.24701   0.25654
 Alpha virt. eigenvalues --    0.27900   0.29130   0.30034   0.30981   0.32248

 Mulliken charges:
               1
     1  C   -0.171138
     2  C   -0.215612
     3  C   -0.171575
     4  C    0.159540
     5  C   -0.170116
     6  C   -0.217873
     7  H    0.219874
     8  H    0.215963
     9  H    0.275350
    10  H    0.277503
    11  H    0.224582
    12  N    0.488077
    13  O   -0.458736
    14  O   -0.459330
    15  C   -0.173018
    16  C   -0.217865
    17  C   -0.169064
    18  C    0.159658
    19  C   -0.169096
    20  C   -0.220932
    21  H    0.220034
    22  H    0.224530
    23  H    0.278543
    24  H    0.279225
    25  H    0.219154
    26  N    0.487957
    27  O   -0.457432
    28  O   -0.458203
 Sum of Mulliken charges =  -0.00000

 Dipole moment (field-independent basis, Debye):
    X=             -0.2168    Y=              7.8146    Z=              1.6006  Tot=              7.9798
 Quadrupole moment (field-independent basis, Debye-Ang):
   XX=           -148.8060   YY=           -105.6250   ZZ=           -101.7104
   XY=              1.4107   XZ=             -7.7624   YZ=             -5.0858

 Normal termination of Gaussian 16 at Fri May  7 05:03:32 2021.
