 Gaussian 16, Revision A.03,
 Gaussian 16:  EM64L-G16RevA.03 25-Dec-2016

 -------------
 #p 6-31g* mp2
 -------------

 ------------------------------------------------------
 Input file generated by CHIRIPA (05-May-2021 14:53:14)
 ------------------------------------------------------
 Symbolic Z-matrix:
 Charge =  0 Multiplicity = 1

                         Standard orientation:
 ---------------------------------------------------------------------
 Center     Atomic      Atomic             Coordinates (Angstroms)
 Number     Number       Type             X           Y           Z
 ---------------------------------------------------------------------
      1          6           0        3.021413    1.373584   -0.261589
      2          6           0        1.644478    1.767872   -0.796914
      3          6           0        1.518665    3.269521   -1.055787
      4          1           0        3.218079    1.925102    0.667978
      5          1           0        3.790505    1.688372   -0.980479
      6          1           0        0.878111    1.451199   -0.077876
      7          1           0        1.450987    1.215208   -1.725213
      8          1           0        2.261731    3.597473   -1.789886
      9          1           0        1.685600    3.834805   -0.133188
     10          1           0        0.526552    3.529279   -1.438014
     11          6           0        3.162644   -0.124492    0.002133
     12          6           0        4.539579   -0.518780    0.537458
     13          6           0        4.665392   -2.020429    0.796331
     14          1           0        2.393552   -0.439280    0.721022
     15          1           0        2.965978   -0.676010   -0.927434
     16          1           0        4.733070    0.033884    1.465757
     17          1           0        5.305946   -0.202107   -0.181581
     18          1           0        4.498457   -2.585713   -0.126268
     19          1           0        3.922326   -2.348381    1.530430
     20          1           0        5.657505   -2.280187    1.178558
     21          6           0       -3.773621    1.469164    0.932991
     22          6           0       -4.350213    0.534987    0.066174
     23          6           0       -3.607228   -0.553285   -0.400929
     24          6           0       -2.284364   -0.677131    0.020950
     25          6           0       -1.681639    0.236878    0.883852
     26          6           0       -2.443518    1.317396    1.338350
     27          1           0       -4.358128    2.311549    1.290952
     28          1           0       -5.382971    0.650321   -0.250299
     29          1           0       -4.028679   -1.291262   -1.072634
     30          1           0       -0.649845    0.095238    1.181775
     31          1           0       -1.993115    2.041343    2.011464
     32          7           0       -1.487796   -1.825131   -0.466878
     33          8           0       -0.324285   -1.911724   -0.080383
     34          8           0       -2.042042   -2.616604   -1.226497
 ---------------------------------------------------------------------

 SCF Done:  E(RHF) =  -669.535170877     A.U. after   15 cycles
 E2 =    -0.2092725251D+01 EUMP2 =    -0.67162789612783D+03

 The electronic state is 1-A.
 Alpha  occ. eigenvalues --  -20.60821 -20.60806 -15.85859 -11.31226 -11.27800
 Alpha  occ. eigenvalues --  -11.27793 -11.27541 -11.26818 -11.26808 -11.21505
 Alpha  occ. eigenvalues --  -11.21117 -11.21104 -11.21067 -11.20715 -11.20410
 Alpha  occ. eigenvalues --   -1.59883  -1.39437  -1.19405  -1.08796  -1.08054
 Alpha  occ. eigenvalues --   -1.04814  -1.03198  -0.95636  -0.95626  -0.86648
 Alpha  occ. eigenvalues --   -0.86207  -0.82465  -0.79295  -0.77859  -0.77442
 Alpha  occ. eigenvalues --   -0.72077  -0.71201  -0.70524  -0.65058  -0.64899
 Alpha  occ. eigenvalues --   -0.64640  -0.62179  -0.60602  -0.59025  -0.57223
 Alpha  occ. eigenvalues --   -0.55313  -0.54922  -0.53139  -0.52921  -0.52358
 Alpha  occ. eigenvalues --   -0.52024  -0.49575  -0.48841  -0.48835  -0.47581
 Alpha  occ. eigenvalues --   -0.46343  -0.45383  -0.45247  -0.44767  -0.43422
 Alpha  occ. eigenvalues --   -0.37379  -0.36382
 Alpha virt. eigenvalues --    0.04985   0.11190   0.16472   0.20441   0.23131
 Alpha virt. eigenvalues --    0.24629   0.25176   0.27427   0.27624   0.28258
 Alpha virt. eigenvalues --    0.29456   0.31311   0.31706   0.31947   0.32274

 Mulliken charges:
               1
     1  C   -0.299179
     2  C   -0.299165
     3  C   -0.475590
     4  H    0.144652
     5  H    0.149258
     6  H    0.143302
     7  H    0.157689
     8  H    0.157014
     9  H    0.151180
    10  H    0.158222
    11  C   -0.299543
    12  C   -0.300138
    13  C   -0.474859
    14  H    0.155521
    15  H    0.158208
    16  H    0.147445
    17  H    0.149727
    18  H    0.159076
    19  H    0.157920
    20  H    0.156588
    21  C   -0.170528
    22  C   -0.218438
    23  C   -0.170942
    24  C    0.157430
    25  C   -0.168904
    26  C   -0.219902
    27  H    0.225852
    28  H    0.223619
    29  H    0.275700
    30  H    0.277534
    31  H    0.223927
    32  N    0.489265
    33  O   -0.461635
    34  O   -0.460307
 Sum of Mulliken charges =  -0.00000

 Dipole moment (field-independent basis, Debye):
    X=             -2.8822    Y=              3.8763    Z=              1.6333  Tot=              5.0991
 Quadrupole moment (field-independent basis, Debye-Ang):
   XX=            -79.2962   YY=           -101.7616   ZZ=            -93.0154
   XY=             -6.1956   XZ=             -2.3408   YZ=              0.3624

 Normal termination of Gaussian 16 at Thu May  6 02:37:48 2021.
