 Gaussian 16, Revision A.03,
 Gaussian 16:  EM64L-G16RevA.03 25-Dec-2016

 -------------
 #p 6-31g* mp2
 -------------

 ------------------------------------------------------
 Input file generated by CHIRIPA (05-May-2021 14:57:23)
 ------------------------------------------------------
 Symbolic Z-matrix:
 Charge =  0 Multiplicity = 1

                         Standard orientation:
 ---------------------------------------------------------------------
 Center     Atomic      Atomic             Coordinates (Angstroms)
 Number     Number       Type             X           Y           Z
 ---------------------------------------------------------------------
      1          6           0       -1.557249   -2.146096    0.946875
      2          6           0       -2.517325   -1.570442    1.785563
      3          6           0       -3.315710   -0.516150    1.332133
      4          6           0       -3.126413   -0.060324    0.028416
      5          6           0       -2.178336   -0.613085   -0.831174
      6          6           0       -1.391111   -1.666426   -0.356519
      7          1           0       -0.941379   -2.964726    1.307355
      8          1           0       -2.648548   -1.940918    2.798269
      9          1           0       -4.066444   -0.052165    1.960253
     10          1           0       -2.070693   -0.222258   -1.835707
     11          1           0       -0.646287   -2.111565   -1.010073
     12          7           0       -3.965719    1.055304   -0.462845
     13          8           0       -3.779390    1.438720   -1.615629
     14          8           0       -4.794005    1.525193    0.314190
     15          6           0        3.122387    2.568803    0.862253
     16          6           0        2.500364    2.361410   -0.373303
     17          6           0        2.420155    1.077714   -0.921243
     18          6           0        2.975101    0.019457   -0.203316
     19          6           0        3.601268    0.193953    1.029874
     20          6           0        3.669887    1.486321    1.558670
     21          1           0        3.180194    3.569377    1.280471
     22          1           0        2.074292    3.200207   -0.916375
     23          1           0        1.944280    0.888802   -1.875849
     24          1           0        4.016780   -0.661933    1.547778
     25          1           0        4.153553    1.644412    2.518419
     26          7           0        2.896321   -1.344124   -0.773263
     27          8           0        3.393010   -2.259789   -0.120963
     28          8           0        2.339377   -1.471414   -1.861494
 ---------------------------------------------------------------------

 SCF Done:  E(RHF) =  -868.340166012     A.U. after   16 cycles
 E2 =    -0.2598881503D+01 EUMP2 =    -0.87093904751512D+03

 The electronic state is 1-A.
 Alpha  occ. eigenvalues --  -20.61621 -20.61594 -20.60664 -20.60657 -15.86629
 Alpha  occ. eigenvalues --  -15.85708 -11.31693 -11.30928 -11.28234 -11.28214
 Alpha  occ. eigenvalues --  -11.27889 -11.27489 -11.27419 -11.27177 -11.27130
 Alpha  occ. eigenvalues --  -11.27102 -11.26476 -11.26264  -1.60679  -1.59743
 Alpha  occ. eigenvalues --   -1.40240  -1.39300  -1.19833  -1.19064  -1.09281
 Alpha  occ. eigenvalues --   -1.08475  -1.05188  -1.04427  -0.96167  -0.95342
 Alpha  occ. eigenvalues --   -0.86600  -0.85823  -0.83009  -0.82167  -0.78097
 Alpha  occ. eigenvalues --   -0.77246  -0.72852  -0.71996  -0.71924  -0.71066
 Alpha  occ. eigenvalues --   -0.70934  -0.70146  -0.65486  -0.65181  -0.64699
 Alpha  occ. eigenvalues --   -0.64378  -0.62542  -0.61759  -0.55690  -0.54897
 Alpha  occ. eigenvalues --   -0.53534  -0.53273  -0.52789  -0.52479  -0.49628
 Alpha  occ. eigenvalues --   -0.49584  -0.48694  -0.48670  -0.45700  -0.44738
 Alpha  occ. eigenvalues --   -0.37791  -0.37032  -0.36781  -0.36034
 Alpha virt. eigenvalues --    0.04378   0.05254   0.10876   0.11603   0.15935
 Alpha virt. eigenvalues --    0.16798   0.21007   0.21944   0.26889   0.27480
 Alpha virt. eigenvalues --    0.28289   0.28733   0.30704   0.31537   0.32240

 Mulliken charges:
               1
     1  C   -0.172989
     2  C   -0.218769
     3  C   -0.172781
     4  C    0.158131
     5  C   -0.174425
     6  C   -0.227860
     7  H    0.230076
     8  H    0.221902
     9  H    0.273505
    10  H    0.274366
    11  H    0.242483
    12  N    0.487913
    13  O   -0.462417
    14  O   -0.461836
    15  C   -0.169619
    16  C   -0.217881
    17  C   -0.170291
    18  C    0.157991
    19  C   -0.171477
    20  C   -0.218475
    21  H    0.228521
    22  H    0.228101
    23  H    0.274697
    24  H    0.274620
    25  H    0.224642
    26  N    0.487243
    27  O   -0.459677
    28  O   -0.465694
 Sum of Mulliken charges =  -0.00000

 Dipole moment (field-independent basis, Debye):
    X=              3.4790    Y=              0.9207    Z=              3.7610  Tot=              5.2054
 Quadrupole moment (field-independent basis, Debye-Ang):
   XX=           -121.1098   YY=           -104.1495   ZZ=            -98.9131
   XY=             25.9989   XZ=              0.7349   YZ=             -2.5577

 Normal termination of Gaussian 16 at Thu May  6 16:16:21 2021.
