 Gaussian 16, Revision A.03,
 Gaussian 16:  EM64L-G16RevA.03 25-Dec-2016

 -------------
 #p 6-31g* mp2
 -------------

 ------------------------------------------------------
 Input file generated by CHIRIPA (05-May-2021 14:55:25)
 ------------------------------------------------------
 Symbolic Z-matrix:
 Charge =  0 Multiplicity = 1

                         Standard orientation:
 ---------------------------------------------------------------------
 Center     Atomic      Atomic             Coordinates (Angstroms)
 Number     Number       Type             X           Y           Z
 ---------------------------------------------------------------------
      1          6           0       -5.508986    0.367264    0.080638
      2          6           0       -4.615406    0.865870    1.034278
      3          6           0       -3.278258    0.457730    1.036148
      4          6           0       -2.866843   -0.454406    0.065563
      5          6           0       -3.733054   -0.969219   -0.897732
      6          6           0       -5.065740   -0.547077   -0.880628
      7          1           0       -6.545982    0.689756    0.086555
      8          1           0       -4.956844    1.576067    1.781998
      9          1           0       -2.565225    0.827817    1.762811
     10          1           0       -3.363256   -1.676051   -1.630573
     11          1           0       -5.757478   -0.935969   -1.622454
     12          7           0       -1.453626   -0.893898    0.057500
     13          8           0       -1.116021   -1.698442   -0.808161
     14          8           0       -0.710312   -0.425506    0.916993
     15          6           0        3.736684    1.109040   -0.467100
     16          6           0        2.419435    1.685318    0.053230
     17          6           0        1.970379    2.925568   -0.720026
     18          1           0        4.515863    1.881322   -0.408745
     19          1           0        3.624264    0.858207   -1.530980
     20          1           0        2.533883    1.933704    1.116161
     21          1           0        1.643346    0.911516   -0.006191
     22          1           0        1.828474    2.688610   -1.779420
     23          1           0        2.724070    3.716606   -0.650691
     24          1           0        1.026728    3.321070   -0.331488
     25          6           0        4.198698   -0.131189    0.295856
     26          6           0        5.515947   -0.707468   -0.224473
     27          6           0        5.965003   -1.947717    0.548783
     28          1           0        4.311118    0.119644    1.359736
     29          1           0        3.419519   -0.903471    0.237502
     30          1           0        6.292037    0.066335   -0.165052
     31          1           0        5.401499   -0.955853   -1.287405
     32          1           0        5.211311   -2.738755    0.479447
     33          1           0        6.106908   -1.710759    1.608176
     34          1           0        6.908653   -2.343219    0.160244
 ---------------------------------------------------------------------

 SCF Done:  E(RHF) =  -669.536373187     A.U. after   15 cycles
 E2 =    -0.2091011829D+01 EUMP2 =    -0.67162738501590D+03

 The electronic state is 1-A.
 Alpha  occ. eigenvalues --  -20.61023 -20.61001 -15.86031 -11.31327 -11.27886
 Alpha  occ. eigenvalues --  -11.27882 -11.27619 -11.26887 -11.26877 -11.20664
 Alpha  occ. eigenvalues --  -11.20265 -11.20233 -11.20194 -11.20172 -11.20121
 Alpha  occ. eigenvalues --   -1.60070  -1.39625  -1.19492  -1.08902  -1.07301
 Alpha  occ. eigenvalues --   -1.04883  -1.02475  -0.95748  -0.94974  -0.86285
 Alpha  occ. eigenvalues --   -0.85993  -0.82582  -0.78521  -0.77639  -0.77079
 Alpha  occ. eigenvalues --   -0.72250  -0.71379  -0.70600  -0.65147  -0.64887
 Alpha  occ. eigenvalues --   -0.63927  -0.62230  -0.59873  -0.58339  -0.56570
 Alpha  occ. eigenvalues --   -0.55390  -0.54273  -0.53217  -0.52975  -0.51702
 Alpha  occ. eigenvalues --   -0.51395  -0.49090  -0.49014  -0.48875  -0.46848
 Alpha  occ. eigenvalues --   -0.45582  -0.45062  -0.44640  -0.44383  -0.42721
 Alpha  occ. eigenvalues --   -0.37468  -0.36483
 Alpha virt. eigenvalues --    0.04858   0.11173   0.16351   0.21308   0.23978
 Alpha virt. eigenvalues --    0.25280   0.27230   0.27792   0.28155   0.28756
 Alpha virt. eigenvalues --    0.28997   0.30876   0.32326   0.32417   0.32813

 Mulliken charges:
               1
     1  C   -0.170457
     2  C   -0.218559
     3  C   -0.170692
     4  C    0.158227
     5  C   -0.170661
     6  C   -0.218583
     7  H    0.226146
     8  H    0.224003
     9  H    0.276107
    10  H    0.275828
    11  H    0.223923
    12  N    0.488199
    13  O   -0.459506
    14  O   -0.458916
    15  C   -0.297254
    16  C   -0.309222
    17  C   -0.474749
    18  H    0.143572
    19  H    0.147701
    20  H    0.147448
    21  H    0.178790
    22  H    0.152592
    23  H    0.150339
    24  H    0.154904
    25  C   -0.299855
    26  C   -0.298867
    27  C   -0.475330
    28  H    0.146938
    29  H    0.161213
    30  H    0.148309
    31  H    0.150884
    32  H    0.157302
    33  H    0.153522
    34  H    0.156704
 Sum of Mulliken charges =  -0.00000

 Dipole moment (field-independent basis, Debye):
    X=             -5.3203    Y=              1.3650    Z=              0.0714  Tot=              5.4930
 Quadrupole moment (field-independent basis, Debye-Ang):
   XX=            -67.7017   YY=            -96.1703   ZZ=            -91.8368
   XY=             -1.3521   XZ=              0.6717   YZ=              3.7961

 Normal termination of Gaussian 16 at Wed May  5 20:50:32 2021.
