 Gaussian 16, Revision A.03,
 Gaussian 16:  EM64L-G16RevA.03 25-Dec-2016

 -------------
 #p 6-31g* mp2
 -------------

 ------------------------------------------------------
 Input file generated by CHIRIPA (05-May-2021 14:55:21)
 ------------------------------------------------------
 Symbolic Z-matrix:
 Charge =  0 Multiplicity = 1

                         Standard orientation:
 ---------------------------------------------------------------------
 Center     Atomic      Atomic             Coordinates (Angstroms)
 Number     Number       Type             X           Y           Z
 ---------------------------------------------------------------------
      1          6           0        1.587896   -1.766091    1.941865
      2          6           0        1.148382   -0.440178    1.869042
      3          6           0        1.589714    0.398690    0.841387
      4          6           0        2.474424   -0.123611   -0.100834
      5          6           0        2.930448   -1.440144   -0.055294
      6          6           0        2.475961   -2.260970    0.981158
      7          1           0        1.239949   -2.410736    2.743589
      8          1           0        0.458708   -0.053144    2.613756
      9          1           0        1.265450    1.429144    0.761171
     10          1           0        3.618038   -1.797461   -0.812238
     11          1           0        2.818969   -3.290274    1.035215
     12          7           0        2.948606    0.754910   -1.193423
     13          8           0        3.727962    0.270702   -2.011215
     14          8           0        2.531935    1.911069   -1.211314
     15          6           0       -3.128933    1.065857    0.139210
     16          6           0       -1.791985    1.685122    0.547949
     17          6           0       -1.931791    3.130359    1.027049
     18          1           0       -3.580212    1.675168   -0.655794
     19          1           0       -3.819465    1.104899    0.993046
     20          1           0       -1.103728    1.643668   -0.305984
     21          1           0       -1.343746    1.074157    1.341939
     22          1           0       -2.597384    3.185964    1.894513
     23          1           0       -2.356003    3.758710    0.237227
     24          1           0       -0.964139    3.553495    1.314220
     25          6           0       -3.005526   -0.378746   -0.342060
     26          6           0       -4.342473   -0.998011   -0.750798
     27          6           0       -4.202668   -2.443248   -1.229900
     28          1           0       -2.314993   -0.417789   -1.195896
     29          1           0       -2.554247   -0.988058    0.452944
     30          1           0       -4.790712   -0.387048   -1.544789
     31          1           0       -5.030731   -0.956557    0.103134
     32          1           0       -3.778455   -3.071601   -0.440077
     33          1           0       -3.537075   -2.498854   -2.097363
     34          1           0       -5.170319   -2.866386   -1.517070
 ---------------------------------------------------------------------

 SCF Done:  E(RHF) =  -669.534436595     A.U. after   15 cycles
 E2 =    -0.2093174600D+01 EUMP2 =    -0.67162761119470D+03

 The electronic state is 1-A.
 Alpha  occ. eigenvalues --  -20.60766 -20.60760 -15.85815 -11.31138 -11.27726
 Alpha  occ. eigenvalues --  -11.27685 -11.27475 -11.26729 -11.26709 -11.22050
 Alpha  occ. eigenvalues --  -11.21841 -11.21726 -11.21641 -11.21454 -11.21300
 Alpha  occ. eigenvalues --   -1.59839  -1.39394  -1.19326  -1.08768  -1.08726
 Alpha  occ. eigenvalues --   -1.04739  -1.03865  -0.96300  -0.95566  -0.87311
 Alpha  occ. eigenvalues --   -0.86130  -0.82421  -0.79976  -0.78609  -0.77410
 Alpha  occ. eigenvalues --   -0.72034  -0.71162  -0.70440  -0.65435  -0.64976
 Alpha  occ. eigenvalues --   -0.64723  -0.62142  -0.61247  -0.59650  -0.57913
 Alpha  occ. eigenvalues --   -0.55570  -0.55232  -0.53135  -0.52950  -0.52842
 Alpha  occ. eigenvalues --   -0.52698  -0.50224  -0.48793  -0.48790  -0.48247
 Alpha  occ. eigenvalues --   -0.46972  -0.46115  -0.46018  -0.44802  -0.44112
 Alpha  occ. eigenvalues --   -0.37313  -0.36254
 Alpha virt. eigenvalues --    0.05072   0.11231   0.16474   0.20238   0.22787
 Alpha virt. eigenvalues --    0.23785   0.25627   0.26128   0.27020   0.28311
 Alpha virt. eigenvalues --    0.29282   0.29592   0.31378   0.31507   0.32167

 Mulliken charges:
               1
     1  C   -0.171312
     2  C   -0.220224
     3  C   -0.167428
     4  C    0.156208
     5  C   -0.170714
     6  C   -0.218869
     7  H    0.225261
     8  H    0.223229
     9  H    0.280409
    10  H    0.275345
    11  H    0.223197
    12  N    0.488362
    13  O   -0.460380
    14  O   -0.461492
    15  C   -0.298021
    16  C   -0.308320
    17  C   -0.476857
    18  H    0.153422
    19  H    0.148396
    20  H    0.161149
    21  H    0.142548
    22  H    0.154431
    23  H    0.161496
    24  H    0.159172
    25  C   -0.298187
    26  C   -0.300024
    27  C   -0.475632
    28  H    0.153239
    29  H    0.145683
    30  H    0.153939
    31  H    0.151067
    32  H    0.152885
    33  H    0.156968
    34  H    0.161054
 Sum of Mulliken charges =  -0.00000

 Dipole moment (field-independent basis, Debye):
    X=             -1.7424    Y=             -3.0510    Z=              3.7344  Tot=              5.1274
 Quadrupole moment (field-independent basis, Debye-Ang):
   XX=           -102.0317   YY=            -92.2813   ZZ=            -94.7909
   XY=            -10.0943   XZ=              8.7028   YZ=              0.5329

 Normal termination of Gaussian 16 at Wed May  5 15:57:02 2021.
