 Gaussian 16, Revision A.03,
 Gaussian 16:  EM64L-G16RevA.03 25-Dec-2016

 -------------
 #p 6-31g* mp2
 -------------

 ------------------------------------------------------
 Input file generated by CHIRIPA (05-May-2021 14:53:13)
 ------------------------------------------------------
 Symbolic Z-matrix:
 Charge =  0 Multiplicity = 1

                         Standard orientation:
 ---------------------------------------------------------------------
 Center     Atomic      Atomic             Coordinates (Angstroms)
 Number     Number       Type             X           Y           Z
 ---------------------------------------------------------------------
      1          6           0       -3.757092   -0.267179   -0.168193
      2          6           0       -4.706806   -1.163230    0.627496
      3          6           0       -4.839207   -2.563692    0.028355
      4          1           0       -4.115613   -0.192046   -1.203936
      5          1           0       -2.767495   -0.742598   -0.213687
      6          1           0       -5.693949   -0.685605    0.672653
      7          1           0       -4.346088   -1.236084    1.661513
      8          1           0       -3.865579   -3.063432   -0.001793
      9          1           0       -5.221098   -2.509825   -0.996271
     10          1           0       -5.522740   -3.187423    0.612823
     11          6           0       -3.614305    1.136130    0.418376
     12          6           0       -2.664591    2.032181   -0.377313
     13          6           0       -2.532189    3.432643    0.221828
     14          1           0       -4.603901    1.611549    0.463870
     15          1           0       -3.255784    1.060997    1.454119
     16          1           0       -3.025309    2.105035   -1.411330
     17          1           0       -1.677448    1.554556   -0.422470
     18          1           0       -2.150298    3.378776    1.246454
     19          1           0       -3.505817    3.932383    0.251975
     20          1           0       -1.848656    4.056374   -0.362640
     21          6           0        5.133271    0.653054    0.451081
     22          6           0        4.901844   -0.711781    0.651552
     23          6           0        3.656939   -1.272500    0.350961
     24          6           0        2.661561   -0.435384   -0.150784
     25          6           0        2.861393    0.928052   -0.361495
     26          6           0        4.114103    1.467179   -0.053913
     27          1           0        6.103375    1.080247    0.687302
     28          1           0        5.691490   -1.346445    1.043608
     29          1           0        3.450649   -2.325917    0.496475
     30          1           0        2.054701    1.535395   -0.753672
     31          1           0        4.290989    2.527462   -0.210617
     32          7           0        1.339504   -1.017562   -0.472707
     33          8           0        0.479066   -0.258685   -0.913600
     34          8           0        1.188748   -2.221728   -0.278041
 ---------------------------------------------------------------------

 SCF Done:  E(RHF) =  -669.536493412     A.U. after   15 cycles
 E2 =    -0.2091268698D+01 EUMP2 =    -0.67162776210955D+03

 The electronic state is 1-A.
 Alpha  occ. eigenvalues --  -20.61054 -20.61048 -15.86075 -11.31352 -11.27910
 Alpha  occ. eigenvalues --  -11.27906 -11.27640 -11.26908 -11.26898 -11.20549
 Alpha  occ. eigenvalues --  -11.20431 -11.20359 -11.20305 -11.20048 -11.20034
 Alpha  occ. eigenvalues --   -1.60106  -1.39664  -1.19516  -1.08929  -1.07298
 Alpha  occ. eigenvalues --   -1.04906  -1.02510  -0.95778  -0.94985  -0.86308
 Alpha  occ. eigenvalues --   -0.86003  -0.82615  -0.78555  -0.77674  -0.77072
 Alpha  occ. eigenvalues --   -0.72297  -0.71415  -0.70625  -0.65175  -0.64908
 Alpha  occ. eigenvalues --   -0.63919  -0.62253  -0.59907  -0.58361  -0.56589
 Alpha  occ. eigenvalues --   -0.55412  -0.54278  -0.53240  -0.52997  -0.51723
 Alpha  occ. eigenvalues --   -0.51407  -0.49084  -0.49059  -0.48890  -0.46880
 Alpha  occ. eigenvalues --   -0.45595  -0.45108  -0.44665  -0.44385  -0.42735
 Alpha  occ. eigenvalues --   -0.37493  -0.36505
 Alpha virt. eigenvalues --    0.04827   0.11150   0.16308   0.21196   0.23950
 Alpha virt. eigenvalues --    0.25148   0.27089   0.27537   0.28018   0.28888
 Alpha virt. eigenvalues --    0.29068   0.30821   0.31970   0.32428   0.32629

 Mulliken charges:
               1
     1  C   -0.304306
     2  C   -0.298509
     3  C   -0.476089
     4  H    0.146574
     5  H    0.170341
     6  H    0.147074
     7  H    0.149424
     8  H    0.161275
     9  H    0.153297
    10  H    0.155525
    11  C   -0.296293
    12  C   -0.309814
    13  C   -0.474747
    14  H    0.143881
    15  H    0.145917
    16  H    0.149001
    17  H    0.175022
    18  H    0.151397
    19  H    0.152488
    20  H    0.153858
    21  C   -0.170454
    22  C   -0.218584
    23  C   -0.170697
    24  C    0.157531
    25  C   -0.170581
    26  C   -0.218554
    27  H    0.226257
    28  H    0.224017
    29  H    0.275909
    30  H    0.276088
    31  H    0.224228
    32  N    0.493182
    33  O   -0.464982
    34  O   -0.458677
 Sum of Mulliken charges =  -0.00000

 Dipole moment (field-independent basis, Debye):
    X=              5.0301    Y=              1.8709    Z=              1.0586  Tot=              5.4702
 Quadrupole moment (field-independent basis, Debye-Ang):
   XX=            -70.6265   YY=            -94.3233   ZZ=            -95.4102
   XY=              1.7645   XZ=              3.6725   YZ=             -2.8881

 Normal termination of Gaussian 16 at Thu May  6 07:19:58 2021.
