 Gaussian 16, Revision A.03,
 Gaussian 16:  EM64L-G16RevA.03 25-Dec-2016

 -------------
 #p 6-31g* mp2
 -------------

 ------------------------------------------------------
 Input file generated by CHIRIPA (05-May-2021 14:57:26)
 ------------------------------------------------------
 Symbolic Z-matrix:
 Charge =  0 Multiplicity = 1

                         Standard orientation:
 ---------------------------------------------------------------------
 Center     Atomic      Atomic             Coordinates (Angstroms)
 Number     Number       Type             X           Y           Z
 ---------------------------------------------------------------------
      1          6           0        5.479244    0.459218    1.306640
      2          6           0        4.347085   -0.065386    1.938722
      3          6           0        3.217021   -0.416603    1.194310
      4          6           0        3.253720   -0.229056   -0.186548
      5          6           0        4.366585    0.291310   -0.845366
      6          6           0        5.485369    0.635581   -0.080941
      7          1           0        6.352724    0.729354    1.892690
      8          1           0        4.339498   -0.203445    3.016185
      9          1           0        2.327189   -0.824772    1.658007
     10          1           0        4.344330    0.417403   -1.921016
     11          1           0        6.363219    1.042781   -0.574512
     12          7           0        2.063342   -0.597197   -0.985218
     13          8           0        2.120848   -0.422233   -2.200420
     14          8           0        1.095358   -1.053740   -0.380889
     15          6           0       -3.050295    2.647245   -0.193017
     16          6           0       -2.252332    1.736132   -0.892766
     17          6           0       -2.464746    0.360418   -0.763004
     18          6           0       -3.488541   -0.071265    0.078888
     19          6           0       -4.300420    0.811605    0.789299
     20          6           0       -4.069995    2.182892    0.644306
     21          1           0       -2.878291    3.714214   -0.299733
     22          1           0       -1.459694    2.093891   -1.543749
     23          1           0       -1.861856   -0.366901   -1.293051
     24          1           0       -5.082917    0.424796    1.430779
     25          1           0       -4.691262    2.888172    1.188965
     26          7           0       -3.722950   -1.525329    0.224322
     27          8           0       -4.631368   -1.880165    0.972321
     28          8           0       -2.993820   -2.282655   -0.412440
 ---------------------------------------------------------------------

 SCF Done:  E(RHF) =  -868.338896470     A.U. after   16 cycles
 E2 =    -0.2598970032D+01 EUMP2 =    -0.87093786650266D+03

 The electronic state is 1-A.
 Alpha  occ. eigenvalues --  -20.61234 -20.61188 -20.59794 -20.59736 -15.86232
 Alpha  occ. eigenvalues --  -15.84819 -11.31479 -11.30163 -11.28046 -11.28010
 Alpha  occ. eigenvalues --  -11.27758 -11.27029 -11.27003 -11.26866 -11.26622
 Alpha  occ. eigenvalues --  -11.26584 -11.25892 -11.25730  -1.60283  -1.58848
 Alpha  occ. eigenvalues --   -1.39833  -1.38395  -1.19642  -1.18379  -1.09063
 Alpha  occ. eigenvalues --   -1.07802  -1.05023  -1.03766  -0.95914  -0.94618
 Alpha  occ. eigenvalues --   -0.86426  -0.85177  -0.82742  -0.81439  -0.77807
 Alpha  occ. eigenvalues --   -0.76458  -0.72447  -0.71599  -0.71041  -0.70745
 Alpha  occ. eigenvalues --   -0.70174  -0.69500  -0.65293  -0.65023  -0.64034
 Alpha  occ. eigenvalues --   -0.63783  -0.62366  -0.61078  -0.55532  -0.54339
 Alpha  occ. eigenvalues --   -0.53365  -0.53110  -0.52133  -0.51856  -0.49221
 Alpha  occ. eigenvalues --   -0.49203  -0.47820  -0.47774  -0.45259  -0.43803
 Alpha  occ. eigenvalues --   -0.37621  -0.36622  -0.36425  -0.35366
 Alpha virt. eigenvalues --    0.04698   0.06057   0.11034   0.12270   0.16222
 Alpha virt. eigenvalues --    0.17506   0.21196   0.22366   0.27121   0.28053
 Alpha virt. eigenvalues --    0.28319   0.29336   0.30782   0.31853   0.32322

 Mulliken charges:
               1
     1  C   -0.170395
     2  C   -0.218778
     3  C   -0.170808
     4  C    0.157244
     5  C   -0.171320
     6  C   -0.218744
     7  H    0.226570
     8  H    0.225014
     9  H    0.278345
    10  H    0.275221
    11  H    0.223990
    12  N    0.487388
    13  O   -0.462955
    14  O   -0.458390
    15  C   -0.171745
    16  C   -0.223024
    17  C   -0.167536
    18  C    0.154599
    19  C   -0.172182
    20  C   -0.220312
    21  H    0.221001
    22  H    0.224755
    23  H    0.294401
    24  H    0.272132
    25  H    0.218748
    26  N    0.487359
    27  O   -0.467122
    28  O   -0.453455
 Sum of Mulliken charges =  -0.00000

 Dipole moment (field-independent basis, Debye):
    X=              5.4006    Y=              6.2295    Z=              2.2257  Tot=              8.5397
 Quadrupole moment (field-independent basis, Debye-Ang):
   XX=            -81.2577   YY=           -107.3736   ZZ=           -101.1090
   XY=            -14.2618   XZ=              6.0587   YZ=             -1.1486

 Normal termination of Gaussian 16 at Fri May  7 03:34:36 2021.
