 Gaussian 16, Revision A.03,
 Gaussian 16:  EM64L-G16RevA.03 25-Dec-2016

 -------------
 #p 6-31g* mp2
 -------------

 ------------------------------------------------------
 Input file generated by CHIRIPA (05-May-2021 14:55:23)
 ------------------------------------------------------
 Symbolic Z-matrix:
 Charge =  0 Multiplicity = 1

                         Standard orientation:
 ---------------------------------------------------------------------
 Center     Atomic      Atomic             Coordinates (Angstroms)
 Number     Number       Type             X           Y           Z
 ---------------------------------------------------------------------
      1          6           0       -4.641345   -0.916045   -1.229972
      2          6           0       -3.761021   -1.886407   -0.740127
      3          6           0       -2.702526   -1.525969    0.099052
      4          6           0       -2.553217   -0.179964    0.429605
      5          6           0       -3.413636    0.810106   -0.042341
      6          6           0       -4.465153    0.426747   -0.880133
      7          1           0       -5.460899   -1.204944   -1.881328
      8          1           0       -3.895427   -2.929990   -1.010152
      9          1           0       -2.006299   -2.256655    0.492479
     10          1           0       -3.254084    1.842460    0.244377
     11          1           0       -5.147283    1.182496   -1.259064
     12          7           0       -1.436329    0.213748    1.317272
     13          8           0       -1.326374    1.406286    1.593678
     14          8           0       -0.692015   -0.677654    1.719810
     15          6           0        3.663237   -0.430473   -0.294596
     16          6           0        5.159290   -0.720956   -0.170383
     17          6           0        5.462447   -2.213460   -0.035025
     18          1           0        3.143671   -0.833266    0.585605
     19          1           0        3.263723   -0.967243   -1.166182
     20          1           0        5.556143   -0.182693    0.699902
     21          1           0        5.675379   -0.317255   -1.050891
     22          1           0        5.093564   -2.762178   -0.907628
     23          1           0        4.973651   -2.626849    0.853113
     24          1           0        6.537623   -2.398419    0.052414
     25          6           0        3.344235    1.057294   -0.430668
     26          6           0        1.848182    1.347777   -0.554882
     27          6           0        1.545025    2.840281   -0.690240
     28          1           0        3.743748    1.594063    0.440918
     29          1           0        3.863801    1.460087   -1.310871
     30          1           0        1.332093    0.944077    0.325626
     31          1           0        1.451329    0.809513   -1.425168
     32          1           0        2.033821    3.253670   -1.578377
     33          1           0        1.913908    3.388998    0.182363
     34          1           0        0.469849    3.025240   -0.777679
 ---------------------------------------------------------------------

 SCF Done:  E(RHF) =  -669.536573654     A.U. after   15 cycles
 E2 =    -0.2091959805D+01 EUMP2 =    -0.67162853345910D+03

 The electronic state is 1-A.
 Alpha  occ. eigenvalues --  -20.60999 -20.60990 -15.85997 -11.31303 -11.27863
 Alpha  occ. eigenvalues --  -11.27858 -11.27599 -11.26864 -11.26855 -11.20906
 Alpha  occ. eigenvalues --  -11.20506 -11.20493 -11.20450 -11.20396 -11.20033
 Alpha  occ. eigenvalues --   -1.60042  -1.39596  -1.19468  -1.08877  -1.07525
 Alpha  occ. eigenvalues --   -1.04860  -1.02647  -0.95722  -0.95115  -0.86262
 Alpha  occ. eigenvalues --   -0.86139  -0.82559  -0.78731  -0.77616  -0.77335
 Alpha  occ. eigenvalues --   -0.72219  -0.71357  -0.70578  -0.65123  -0.64865
 Alpha  occ. eigenvalues --   -0.64143  -0.62208  -0.60030  -0.58498  -0.56722
 Alpha  occ. eigenvalues --   -0.55368  -0.54402  -0.53191  -0.52952  -0.51827
 Alpha  occ. eigenvalues --   -0.51552  -0.49113  -0.48990  -0.48969  -0.47042
 Alpha  occ. eigenvalues --   -0.45724  -0.45046  -0.44862  -0.44701  -0.42900
 Alpha  occ. eigenvalues --   -0.37441  -0.36459
 Alpha virt. eigenvalues --    0.04855   0.11193   0.16345   0.21307   0.23789
 Alpha virt. eigenvalues --    0.25135   0.27222   0.27558   0.28004   0.28569
 Alpha virt. eigenvalues --    0.28804   0.30824   0.32038   0.32250   0.32648

 Mulliken charges:
               1
     1  C   -0.170438
     2  C   -0.218681
     3  C   -0.170552
     4  C    0.160216
     5  C   -0.170938
     6  C   -0.218619
     7  H    0.226065
     8  H    0.223904
     9  H    0.276005
    10  H    0.275838
    11  H    0.223907
    12  N    0.488090
    13  O   -0.459261
    14  O   -0.460201
    15  C   -0.299876
    16  C   -0.298985
    17  C   -0.475301
    18  H    0.159109
    19  H    0.144723
    20  H    0.152093
    21  H    0.149152
    22  H    0.152642
    23  H    0.156487
    24  H    0.157825
    25  C   -0.296826
    26  C   -0.311549
    27  C   -0.471153
    28  H    0.150491
    29  H    0.144497
    30  H    0.176085
    31  H    0.141947
    32  H    0.147193
    33  H    0.157670
    34  H    0.158439
 Sum of Mulliken charges =  -0.00000

 Dipole moment (field-independent basis, Debye):
    X=             -4.1902    Y=             -1.4280    Z=             -2.9227  Tot=              5.3046
 Quadrupole moment (field-independent basis, Debye-Ang):
   XX=            -75.6376   YY=            -91.0646   ZZ=            -97.4214
   XY=              3.1519   XZ=              7.0825   YZ=              0.1370

 Normal termination of Gaussian 16 at Thu May  6 04:41:25 2021.
