 Gaussian 16, Revision A.03,
 Gaussian 16:  EM64L-G16RevA.03 25-Dec-2016

 -------------
 #p 6-31g* mp2
 -------------

 ------------------------------------------------------
 Input file generated by CHIRIPA (05-May-2021 14:51:13)
 ------------------------------------------------------
 Symbolic Z-matrix:
 Charge =  0 Multiplicity = 1

                         Standard orientation:
 ---------------------------------------------------------------------
 Center     Atomic      Atomic             Coordinates (Angstroms)
 Number     Number       Type             X           Y           Z
 ---------------------------------------------------------------------
      1          6           0        4.430398   -0.351817    0.063625
      2          6           0        5.920403   -0.398801   -0.276464
      3          6           0        6.526311   -1.789831   -0.087507
      4          1           0        4.287623   -0.677396    1.103124
      5          1           0        3.894559   -1.074900   -0.566790
      6          1           0        6.453081    0.325144    0.353435
      7          1           0        6.059667   -0.072889   -1.315215
      8          1           0        6.021033   -2.520310   -0.727582
      9          1           0        6.416683   -2.120015    0.950550
     10          1           0        7.592094   -1.800659   -0.336202
     11          6           0        3.810366    1.032181   -0.120325
     12          6           0        2.320361    1.079165    0.219764
     13          6           0        1.714453    2.470195    0.030806
     14          1           0        4.346205    1.755264    0.510089
     15          1           0        3.953141    1.357760   -1.159825
     16          1           0        2.181097    0.753253    1.258514
     17          1           0        1.787683    0.355220   -0.410136
     18          1           0        1.824081    2.800379   -1.007250
     19          1           0        2.219731    3.200674    0.670881
     20          1           0        0.648670    2.481023    0.279501
     21          6           0       -4.817014   -0.313404    0.340472
     22          6           0       -5.935036   -0.131310   -0.686588
     23          6           0       -7.322786   -0.079602   -0.046846
     24          1           0       -4.995589   -1.237269    0.907508
     25          1           0       -4.856969    0.511126    1.065695
     26          1           0       -5.892119   -0.955189   -1.410464
     27          1           0       -5.753675    0.792130   -1.251375
     28          1           0       -7.389770    0.752654    0.661295
     29          1           0       -7.529002   -1.004593    0.501302
     30          1           0       -8.107000    0.051020   -0.799047
     31          6           0       -3.423751   -0.366959   -0.283771
     32          6           0       -2.305728   -0.549054    0.743288
     33          6           0       -0.917978   -0.600762    0.103547
     34          1           0       -3.383794   -1.191490   -1.008994
     35          1           0       -3.245176    0.556905   -0.850808
     36          1           0       -2.487089   -1.472494    1.308076
     37          1           0       -2.348645    0.274825    1.467164
     38          1           0       -0.711762    0.324229   -0.444602
     39          1           0       -0.850994   -1.433018   -0.604595
     40          1           0       -0.133763   -0.731384    0.855747
 ---------------------------------------------------------------------

 SCF Done:  E(RHF) =  -470.732123646     A.U. after   11 cycles
 E2 =    -0.1583348653D+01 EUMP2 =    -0.47231547229958D+03

 The electronic state is 1-A.
 Alpha  occ. eigenvalues --  -11.21595 -11.21569 -11.21568 -11.21458 -11.21393
 Alpha  occ. eigenvalues --  -11.21348 -11.21334 -11.21279 -11.21066 -11.21047
 Alpha  occ. eigenvalues --  -11.21032 -11.20982  -1.08426  -1.08366  -1.03568
 Alpha  occ. eigenvalues --   -1.03430  -0.96032  -0.95874  -0.87003  -0.86946
 Alpha  occ. eigenvalues --   -0.79730  -0.79420  -0.78265  -0.78140  -0.65070
 Alpha  occ. eigenvalues --   -0.64992  -0.61021  -0.60820  -0.59500  -0.59161
 Alpha  occ. eigenvalues --   -0.57583  -0.57565  -0.55308  -0.55137  -0.52724
 Alpha  occ. eigenvalues --   -0.52595  -0.52425  -0.52309  -0.49908  -0.49853
 Alpha  occ. eigenvalues --   -0.47932  -0.47824  -0.46682  -0.46494  -0.45824
 Alpha  occ. eigenvalues --   -0.45729  -0.45698  -0.45564  -0.43804  -0.43620
 Alpha virt. eigenvalues --    0.21836   0.23024   0.23538   0.25018   0.26428
 Alpha virt. eigenvalues --    0.26570   0.26753   0.27403   0.27742   0.29241
 Alpha virt. eigenvalues --    0.30434   0.31050   0.31235   0.31837   0.32509

 Mulliken charges:
               1
     1  C   -0.298269
     2  C   -0.299529
     3  C   -0.475667
     4  H    0.149182
     5  H    0.149602
     6  H    0.151843
     7  H    0.151869
     8  H    0.155132
     9  H    0.155064
    10  H    0.160127
    11  C   -0.297761
    12  C   -0.302973
    13  C   -0.478097
    14  H    0.148743
    15  H    0.149158
    16  H    0.150419
    17  H    0.160573
    18  H    0.154655
    19  H    0.155098
    20  H    0.161026
    21  C   -0.298234
    22  C   -0.299613
    23  C   -0.475692
    24  H    0.149629
    25  H    0.149461
    26  H    0.151872
    27  H    0.151921
    28  H    0.155179
    29  H    0.155159
    30  H    0.160225
    31  C   -0.298478
    32  C   -0.300555
    33  C   -0.480165
    34  H    0.149392
    35  H    0.149501
    36  H    0.151688
    37  H    0.151487
    38  H    0.158258
    39  H    0.153900
    40  H    0.164869
 Sum of Mulliken charges =  -0.00000

 Dipole moment (field-independent basis, Debye):
    X=             -0.0059    Y=             -0.0142    Z=             -0.0072  Tot=              0.0170
 Quadrupole moment (field-independent basis, Debye-Ang):
   XX=            -86.5146   YY=            -84.6638   ZZ=            -83.9472
   XY=              0.6860   XZ=              0.5005   YZ=              0.3826

 Normal termination of Gaussian 16 at Wed May  5 16:51:14 2021.
