 Gaussian 16, Revision A.03,
 Gaussian 16:  EM64L-G16RevA.03 25-Dec-2016

 -------------
 #p 6-31g* mp2
 -------------

 ------------------------------------------------------
 Input file generated by CHIRIPA (05-May-2021 14:57:24)
 ------------------------------------------------------
 Symbolic Z-matrix:
 Charge =  0 Multiplicity = 1

                         Standard orientation:
 ---------------------------------------------------------------------
 Center     Atomic      Atomic             Coordinates (Angstroms)
 Number     Number       Type             X           Y           Z
 ---------------------------------------------------------------------
      1          6           0        1.083736   -1.296123    1.302318
      2          6           0        1.765707   -0.225508    1.889872
      3          6           0        2.889248    0.327546    1.268315
      4          6           0        3.305159   -0.217132    0.054381
      5          6           0        2.646887   -1.283563   -0.556104
      6          6           0        1.525723   -1.820809    0.083355
      7          1           0        0.211866   -1.719609    1.792112
      8          1           0        1.424715    0.183998    2.836485
      9          1           0        3.435907    1.156601    1.701039
     10          1           0        3.010635   -1.670415   -1.500271
     11          1           0        0.998056   -2.652240   -0.375268
     12          7           0        4.493344    0.359993   -0.613109
     13          8           0        4.839642   -0.137905   -1.682133
     14          8           0        5.055845    1.299315   -0.054626
     15          6           0       -1.996037    2.573838   -0.056164
     16          6           0       -1.218942    1.410850   -0.066221
     17          6           0       -1.825041    0.152430   -0.125990
     18          6           0       -3.216961    0.093608   -0.174855
     19          6           0       -4.018496    1.234116   -0.166326
     20          6           0       -3.390875    2.481922   -0.106160
     21          1           0       -1.516845    3.547286   -0.009580
     22          1           0       -0.135489    1.479203   -0.027481
     23          1           0       -1.247525   -0.763982   -0.135091
     24          1           0       -5.096384    1.134055   -0.205868
     25          1           0       -3.996901    3.383430   -0.098488
     26          7           0       -3.870003   -1.233007   -0.238340
     27          8           0       -5.098105   -1.257878   -0.280609
     28          8           0       -3.141392   -2.222816   -0.244628
 ---------------------------------------------------------------------

 SCF Done:  E(RHF) =  -868.337843095     A.U. after   16 cycles
 E2 =    -0.2602687060D+01 EUMP2 =    -0.87094053015583D+03

 The electronic state is 1-A.
 Alpha  occ. eigenvalues --  -20.61393 -20.61386 -20.61381 -20.61342 -15.86447
 Alpha  occ. eigenvalues --  -15.86408 -11.31958 -11.31618 -11.28554 -11.28482
 Alpha  occ. eigenvalues --  -11.28194 -11.28146 -11.28100 -11.27836 -11.27551
 Alpha  occ. eigenvalues --  -11.27450 -11.27142 -11.27052  -1.60465  -1.60436
 Alpha  occ. eigenvalues --   -1.40012  -1.39999  -1.20157  -1.19764  -1.09512
 Alpha  occ. eigenvalues --   -1.09186  -1.05540  -1.05136  -0.96325  -0.96038
 Alpha  occ. eigenvalues --   -0.86925  -0.86533  -0.83118  -0.82876  -0.78151
 Alpha  occ. eigenvalues --   -0.77966  -0.72659  -0.72631  -0.71798  -0.71757
 Alpha  occ. eigenvalues --   -0.71286  -0.70788  -0.65770  -0.65488  -0.65411
 Alpha  occ. eigenvalues --   -0.65095  -0.62845  -0.62533  -0.55988  -0.55657
 Alpha  occ. eigenvalues --   -0.53844  -0.53564  -0.53458  -0.53209  -0.49426
 Alpha  occ. eigenvalues --   -0.49406  -0.49403  -0.49359  -0.45436  -0.45386
 Alpha  occ. eigenvalues --   -0.38184  -0.37749  -0.37231  -0.36596
 Alpha virt. eigenvalues --    0.04187   0.04677   0.10301   0.10880   0.15752
 Alpha virt. eigenvalues --    0.16175   0.20382   0.21602   0.26170   0.27164
 Alpha virt. eigenvalues --    0.27492   0.28684   0.30509   0.30728   0.31540

 Mulliken charges:
               1
     1  C   -0.183704
     2  C   -0.221636
     3  C   -0.176674
     4  C    0.157590
     5  C   -0.170387
     6  C   -0.226710
     7  H    0.238334
     8  H    0.227513
     9  H    0.277240
    10  H    0.279815
    11  H    0.236315
    12  N    0.487977
    13  O   -0.457191
    14  O   -0.459702
    15  C   -0.171620
    16  C   -0.224041
    17  C   -0.178643
    18  C    0.159835
    19  C   -0.170929
    20  C   -0.218374
    21  H    0.227731
    22  H    0.230515
    23  H    0.271912
    24  H    0.276107
    25  H    0.224926
    26  N    0.488581
    27  O   -0.457048
    28  O   -0.467731
 Sum of Mulliken charges =  -0.00000

 Dipole moment (field-independent basis, Debye):
    X=             -1.7150    Y=              2.6190    Z=              2.5819  Tot=              4.0579
 Quadrupole moment (field-independent basis, Debye-Ang):
   XX=           -143.5418   YY=           -100.3980   ZZ=           -102.7775
   XY=            -23.1208   XZ=              6.9323   YZ=              1.2999

 Normal termination of Gaussian 16 at Thu May  6 06:39:18 2021.
