 Gaussian 16, Revision A.03,
 Gaussian 16:  EM64L-G16RevA.03 25-Dec-2016

 -------------
 #p 6-31g* mp2
 -------------

 ------------------------------------------------------
 Input file generated by CHIRIPA (05-May-2021 14:55:25)
 ------------------------------------------------------
 Symbolic Z-matrix:
 Charge =  0 Multiplicity = 1

                         Standard orientation:
 ---------------------------------------------------------------------
 Center     Atomic      Atomic             Coordinates (Angstroms)
 Number     Number       Type             X           Y           Z
 ---------------------------------------------------------------------
      1          6           0       -3.362951   -0.988595   -1.667891
      2          6           0       -2.408888   -1.795328   -1.039030
      3          6           0       -1.686764   -1.316953    0.058350
      4          6           0       -1.945360   -0.021147    0.502539
      5          6           0       -2.889442    0.806843   -0.102796
      6          6           0       -3.599766    0.307630   -1.198595
      7          1           0       -3.919331   -1.368302   -2.519748
      8          1           0       -2.222879   -2.802395   -1.401329
      9          1           0       -0.942446   -1.920125    0.563913
     10          1           0       -3.052788    1.806504    0.281149
     11          1           0       -4.340105    0.936390   -1.685015
     12          7           0       -1.187126    0.496317    1.663449
     13          8           0       -1.433589    1.641498    2.035542
     14          8           0       -0.360717   -0.253074    2.179296
     15          6           0        2.782202   -0.580464   -0.627050
     16          6           0        2.903472   -1.573376    0.529412
     17          6           0        3.167861   -3.002947    0.055897
     18          1           0        1.971827   -0.902722   -1.295173
     19          1           0        3.706062   -0.605896   -1.221381
     20          1           0        1.980201   -1.545074    1.122190
     21          1           0        3.713526   -1.248613    1.194963
     22          1           0        4.099083   -3.052779   -0.517639
     23          1           0        2.355910   -3.350925   -0.590825
     24          1           0        3.251033   -3.696133    0.898771
     25          6           0        2.517835    0.852929   -0.169641
     26          6           0        2.396564    1.845841   -1.326103
     27          6           0        2.132175    3.275413   -0.852588
     28          1           0        1.593974    0.878360    0.424691
     29          1           0        3.328209    1.175187    0.498483
     30          1           0        1.586510    1.521076   -1.991653
     31          1           0        3.319835    1.817539   -1.918881
     32          1           0        2.944125    3.623390   -0.205866
     33          1           0        1.200953    3.325244   -0.279052
     34          1           0        2.049002    3.968597   -1.695461
 ---------------------------------------------------------------------

 SCF Done:  E(RHF) =  -669.536156566     A.U. after   15 cycles
 E2 =    -0.2093405480D+01 EUMP2 =    -0.67162956204653D+03

 The electronic state is 1-A.
 Alpha  occ. eigenvalues --  -20.61088 -20.61083 -15.86086 -11.31369 -11.27927
 Alpha  occ. eigenvalues --  -11.27920 -11.27648 -11.26920 -11.26910 -11.21113
 Alpha  occ. eigenvalues --  -11.20936 -11.20878 -11.20783 -11.20660 -11.20529
 Alpha  occ. eigenvalues --   -1.60139  -1.39696  -1.19532  -1.08945  -1.07872
 Alpha  occ. eigenvalues --   -1.04919  -1.03027  -0.95795  -0.95498  -0.86511
 Alpha  occ. eigenvalues --   -0.86322  -0.82633  -0.79065  -0.77761  -0.77592
 Alpha  occ. eigenvalues --   -0.72320  -0.71467  -0.70638  -0.65193  -0.64928
 Alpha  occ. eigenvalues --   -0.64494  -0.62268  -0.60436  -0.58858  -0.57089
 Alpha  occ. eigenvalues --   -0.55423  -0.54811  -0.53252  -0.53008  -0.52204
 Alpha  occ. eigenvalues --   -0.51908  -0.49466  -0.49092  -0.49065  -0.47379
 Alpha  occ. eigenvalues --   -0.46091  -0.45605  -0.45222  -0.44535  -0.43260
 Alpha  occ. eigenvalues --   -0.37505  -0.36514
 Alpha virt. eigenvalues --    0.04782   0.11097   0.16253   0.20681   0.23029
 Alpha virt. eigenvalues --    0.24337   0.26607   0.27422   0.27752   0.28430
 Alpha virt. eigenvalues --    0.28835   0.30794   0.31352   0.32114   0.32225

 Mulliken charges:
               1
     1  C   -0.170268
     2  C   -0.219089
     3  C   -0.171689
     4  C    0.156729
     5  C   -0.170669
     6  C   -0.218502
     7  H    0.226452
     8  H    0.224538
     9  H    0.277793
    10  H    0.276018
    11  H    0.224243
    12  N    0.488656
    13  O   -0.457398
    14  O   -0.459328
    15  C   -0.296843
    16  C   -0.310993
    17  C   -0.474721
    18  H    0.141384
    19  H    0.146705
    20  H    0.172189
    21  H    0.153423
    22  H    0.154111
    23  H    0.145609
    24  H    0.160268
    25  C   -0.302655
    26  C   -0.299540
    27  C   -0.476348
    28  H    0.159754
    29  H    0.151432
    30  H    0.146702
    31  H    0.149384
    32  H    0.156510
    33  H    0.160101
    34  H    0.156037
 Sum of Mulliken charges =  -0.00000

 Dipole moment (field-independent basis, Debye):
    X=             -2.8599    Y=             -1.7418    Z=             -3.8696  Tot=              5.1173
 Quadrupole moment (field-independent basis, Debye-Ang):
   XX=            -82.7585   YY=            -92.6177   ZZ=            -99.6809
   XY=              1.7749   XZ=              7.6537   YZ=             -1.1948

 Normal termination of Gaussian 16 at Wed May  5 19:14:14 2021.
