 Gaussian 16, Revision A.03,
 Gaussian 16:  EM64L-G16RevA.03 25-Dec-2016

 -------------
 #p 6-31g* mp2
 -------------

 ------------------------------------------------------
 Input file generated by CHIRIPA (05-May-2021 14:53:17)
 ------------------------------------------------------
 Symbolic Z-matrix:
 Charge =  0 Multiplicity = 1

                         Standard orientation:
 ---------------------------------------------------------------------
 Center     Atomic      Atomic             Coordinates (Angstroms)
 Number     Number       Type             X           Y           Z
 ---------------------------------------------------------------------
      1          6           0        3.392855   -0.657706    0.726601
      2          6           0        1.956059   -0.853770    0.241666
      3          6           0        1.083624   -1.588714    1.259756
      4          1           0        3.834711   -1.638398    0.950098
      5          1           0        3.380193   -0.097809    1.671985
      6          1           0        1.971505   -1.411930   -0.703234
      7          1           0        1.517635    0.127490    0.019115
      8          1           0        1.038443   -1.032084    2.201416
      9          1           0        1.494892   -2.580251    1.474963
     10          1           0        0.060686   -1.718077    0.892709
     11          6           0        4.277339    0.075525   -0.280269
     12          6           0        5.714134    0.271589    0.204666
     13          6           0        6.586569    1.006533   -0.813425
     14          1           0        4.290001   -0.484372   -1.225653
     15          1           0        3.835483    1.056218   -0.503766
     16          1           0        6.152558   -0.709671    0.427217
     17          1           0        5.698689    0.829750    1.149565
     18          1           0        6.175302    1.998070   -1.028631
     19          1           0        6.631750    0.449903   -1.755084
     20          1           0        7.609507    1.135896   -0.446377
     21          6           0       -2.807128    2.708891    0.240933
     22          6           0       -1.715472    1.999609   -0.270661
     23          6           0       -1.808880    0.624454   -0.504690
     24          6           0       -3.014445   -0.012485   -0.214496
     25          6           0       -4.119761    0.666514    0.295923
     26          6           0       -4.003679    2.041257    0.522096
     27          1           0       -2.725760    3.776985    0.419681
     28          1           0       -0.784976    2.515491   -0.489946
     29          1           0       -0.979350    0.050931   -0.900125
     30          1           0       -5.034255    0.124735    0.504710
     31          1           0       -4.853107    2.589535    0.919471
     32          7           0       -3.125334   -1.468083   -0.458094
     33          8           0       -4.198473   -2.005991   -0.194153
     34          8           0       -2.137010   -2.043511   -0.908354
 ---------------------------------------------------------------------

 SCF Done:  E(RHF) =  -669.536030893     A.U. after   15 cycles
 E2 =    -0.2092395495D+01 EUMP2 =    -0.67162842638828D+03

 The electronic state is 1-A.
 Alpha  occ. eigenvalues --  -20.60924 -20.60917 -15.85937 -11.31224 -11.27801
 Alpha  occ. eigenvalues --  -11.27761 -11.27537 -11.26802 -11.26789 -11.21725
 Alpha  occ. eigenvalues --  -11.21711 -11.21534 -11.21447 -11.21202 -11.20722
 Alpha  occ. eigenvalues --   -1.59975  -1.39534  -1.19400  -1.08813  -1.08525
 Alpha  occ. eigenvalues --   -1.04794  -1.03570  -0.95989  -0.95650  -0.86993
 Alpha  occ. eigenvalues --   -0.86195  -0.82494  -0.79652  -0.78367  -0.77548
 Alpha  occ. eigenvalues --   -0.72165  -0.71286  -0.70516  -0.65172  -0.65052
 Alpha  occ. eigenvalues --   -0.64803  -0.62185  -0.60957  -0.59334  -0.57595
 Alpha  occ. eigenvalues --   -0.55324  -0.55243  -0.53125  -0.52905  -0.52628
 Alpha  occ. eigenvalues --   -0.52379  -0.49926  -0.48935  -0.48916  -0.47948
 Alpha  occ. eigenvalues --   -0.46701  -0.45902  -0.45815  -0.44951  -0.43760
 Alpha  occ. eigenvalues --   -0.37381  -0.36381
 Alpha virt. eigenvalues --    0.04940   0.11205   0.16395   0.20483   0.22869
 Alpha virt. eigenvalues --    0.24089   0.25786   0.26654   0.27416   0.28024
 Alpha virt. eigenvalues --    0.29029   0.30334   0.31575   0.31709   0.32199

 Mulliken charges:
               1
     1  C   -0.297763
     2  C   -0.301258
     3  C   -0.485089
     4  H    0.152725
     5  H    0.148573
     6  H    0.157780
     7  H    0.136412
     8  H    0.150590
     9  H    0.158380
    10  H    0.176039
    11  C   -0.297778
    12  C   -0.299679
    13  C   -0.475639
    14  H    0.151033
    15  H    0.144843
    16  H    0.153473
    17  H    0.151370
    18  H    0.153575
    19  H    0.155987
    20  H    0.160752
    21  C   -0.170395
    22  C   -0.220774
    23  C   -0.173334
    24  C    0.158071
    25  C   -0.170443
    26  C   -0.218784
    27  H    0.225738
    28  H    0.223789
    29  H    0.282801
    30  H    0.275587
    31  H    0.223589
    32  N    0.488092
    33  O   -0.458420
    34  O   -0.459844
 Sum of Mulliken charges =  -0.00000

 Dipole moment (field-independent basis, Debye):
    X=              0.3076    Y=              5.0039    Z=              0.8462  Tot=              5.0842
 Quadrupole moment (field-independent basis, Debye-Ang):
   XX=            -92.9325   YY=            -94.6877   ZZ=            -95.6931
   XY=            -16.5744   XZ=             -4.1669   YZ=             -0.3377

 Normal termination of Gaussian 16 at Thu May  6 10:42:05 2021.
