 Gaussian 16, Revision A.03,
 Gaussian 16:  EM64L-G16RevA.03 25-Dec-2016

 -------------
 #p 6-31g* mp2
 -------------

 ------------------------------------------------------
 Input file generated by CHIRIPA (05-May-2021 14:55:22)
 ------------------------------------------------------
 Symbolic Z-matrix:
 Charge =  0 Multiplicity = 1

                         Standard orientation:
 ---------------------------------------------------------------------
 Center     Atomic      Atomic             Coordinates (Angstroms)
 Number     Number       Type             X           Y           Z
 ---------------------------------------------------------------------
      1          6           0       -2.632419    2.699735    0.618890
      2          6           0       -1.491683    2.123526    0.050361
      3          6           0       -1.512685    0.798818   -0.396022
      4          6           0       -2.696679    0.076084   -0.257816
      5          6           0       -3.849600    0.622031    0.304327
      6          6           0       -3.805668    1.948473    0.743838
      7          1           0       -2.607197    3.729473    0.962982
      8          1           0       -0.579129    2.704582   -0.047944
      9          1           0       -0.644016    0.327904   -0.839949
     10          1           0       -4.744605    0.017695    0.388954
     11          1           0       -4.693094    2.393362    1.184968
     12          7           0       -2.731051   -1.327243   -0.726744
     13          8           0       -3.786540   -1.942773   -0.593698
     14          8           0       -1.701851   -1.785067   -1.218457
     15          6           0        3.211179   -0.951826    0.697116
     16          6           0        1.764974   -1.382749    0.450581
     17          6           0        1.312785   -2.500590    1.390661
     18          1           0        3.871533   -1.821830    0.578915
     19          1           0        3.314939   -0.619987    1.739475
     20          1           0        1.663651   -1.712371   -0.591389
     21          1           0        1.108007   -0.511577    0.569194
     22          1           0        1.385296   -2.178899    2.434623
     23          1           0        1.944097   -3.386516    1.267447
     24          1           0        0.276075   -2.793174    1.197043
     25          6           0        3.677818    0.164962   -0.234958
     26          6           0        5.124023    0.595885    0.011579
     27          6           0        5.576213    1.713727   -0.928502
     28          1           0        3.574058   -0.166876   -1.277316
     29          1           0        3.017465    1.034966   -0.116755
     30          1           0        5.780991   -0.275286   -0.107036
     31          1           0        5.225346    0.925508    1.053547
     32          1           0        4.944900    2.599653   -0.805288
     33          1           0        5.503702    1.392035   -1.972465
     34          1           0        6.612923    2.006309   -0.734884
 ---------------------------------------------------------------------

 SCF Done:  E(RHF) =  -669.535785477     A.U. after   15 cycles
 E2 =    -0.2092291940D+01 EUMP2 =    -0.67162807741700D+03

 The electronic state is 1-A.
 Alpha  occ. eigenvalues --  -20.60857 -20.60848 -15.85887 -11.31207 -11.27789
 Alpha  occ. eigenvalues --  -11.27729 -11.27528 -11.26797 -11.26784 -11.21749
 Alpha  occ. eigenvalues --  -11.21555 -11.21402 -11.21314 -11.21260 -11.20593
 Alpha  occ. eigenvalues --   -1.59915  -1.39469  -1.19387  -1.08790  -1.08452
 Alpha  occ. eigenvalues --   -1.04786  -1.03465  -0.95911  -0.95627  -0.86928
 Alpha  occ. eigenvalues --   -0.86184  -0.82462  -0.79572  -0.78307  -0.77481
 Alpha  occ. eigenvalues --   -0.72106  -0.71230  -0.70499  -0.65113  -0.65032
 Alpha  occ. eigenvalues --   -0.64782  -0.62156  -0.60856  -0.59279  -0.57498
 Alpha  occ. eigenvalues --   -0.55302  -0.55205  -0.53118  -0.52892  -0.52557
 Alpha  occ. eigenvalues --   -0.52326  -0.49869  -0.48869  -0.48864  -0.47846
 Alpha  occ. eigenvalues --   -0.46607  -0.45818  -0.45705  -0.44863  -0.43725
 Alpha  occ. eigenvalues --   -0.37368  -0.36368
 Alpha virt. eigenvalues --    0.04971   0.11212   0.16445   0.20806   0.22923
 Alpha virt. eigenvalues --    0.24354   0.25576   0.26673   0.27746   0.28174
 Alpha virt. eigenvalues --    0.29619   0.30440   0.31388   0.31651   0.32211

 Mulliken charges:
               1
     1  C   -0.170328
     2  C   -0.220938
     3  C   -0.171683
     4  C    0.156433
     5  C   -0.170712
     6  C   -0.218606
     7  H    0.225688
     8  H    0.223736
     9  H    0.282327
    10  H    0.275576
    11  H    0.223528
    12  N    0.488137
    13  O   -0.459616
    14  O   -0.460705
    15  C   -0.298058
    16  C   -0.301708
    17  C   -0.478402
    18  H    0.151792
    19  H    0.147931
    20  H    0.162187
    21  H    0.140729
    22  H    0.150127
    23  H    0.155545
    24  H    0.172833
    25  C   -0.297139
    26  C   -0.299404
    27  C   -0.475471
    28  H    0.151400
    29  H    0.140017
    30  H    0.154064
    31  H    0.151559
    32  H    0.151994
    33  H    0.156165
    34  H    0.161000
 Sum of Mulliken charges =  -0.00000

 Dipole moment (field-independent basis, Debye):
    X=              0.0597    Y=              4.7955    Z=              1.5978  Tot=              5.0550
 Quadrupole moment (field-independent basis, Debye-Ang):
   XX=            -90.9194   YY=            -94.4684   ZZ=            -96.0246
   XY=            -13.9407   XZ=             -6.2287   YZ=             -0.1786

 Normal termination of Gaussian 16 at Thu May  6 01:27:45 2021.
