 Gaussian 16, Revision A.03,
 Gaussian 16:  EM64L-G16RevA.03 25-Dec-2016

 -------------
 #p 6-31g* mp2
 -------------

 ------------------------------------------------------
 Input file generated by CHIRIPA (05-May-2021 14:57:25)
 ------------------------------------------------------
 Symbolic Z-matrix:
 Charge =  0 Multiplicity = 1

                         Standard orientation:
 ---------------------------------------------------------------------
 Center     Atomic      Atomic             Coordinates (Angstroms)
 Number     Number       Type             X           Y           Z
 ---------------------------------------------------------------------
      1          6           0        0.773162   -1.234465    0.015794
      2          6           0        1.848980   -1.981428    0.506899
      3          6           0        3.141618   -1.448853    0.507516
      4          6           0        3.323175   -0.160384    0.007342
      5          6           0        2.271658    0.608707   -0.488745
      6          6           0        0.987557    0.055943   -0.479587
      7          1           0       -0.227674   -1.656024    0.019112
      8          1           0        1.685443   -2.983835    0.892230
      9          1           0        3.992434   -2.005179    0.881724
     10          1           0        2.465915    1.605224   -0.866417
     11          1           0        0.153945    0.638345   -0.861613
     12          7           0        4.687114    0.414116    0.002821
     13          8           0        4.820697    1.551566   -0.443275
     14          8           0        5.596761   -0.283919    0.445458
     15          6           0       -2.518663    2.679119    0.384125
     16          6           0       -3.039976    1.906447    1.427069
     17          6           0       -3.364761    0.562324    1.221163
     18          6           0       -3.154427    0.020720   -0.046005
     19          6           0       -2.636665    0.764600   -1.105181
     20          6           0       -2.319025    2.106739   -0.876450
     21          1           0       -2.269138    3.722494    0.552942
     22          1           0       -3.196075    2.348313    2.407085
     23          1           0       -3.769785   -0.058751    2.010871
     24          1           0       -2.492196    0.296184   -2.071169
     25          1           0       -1.914318    2.704405   -1.688270
     26          7           0       -3.494481   -1.401192   -0.276069
     27          8           0       -3.299773   -1.854755   -1.401683
     28          8           0       -3.949284   -2.035200    0.673575
 ---------------------------------------------------------------------

 SCF Done:  E(RHF) =  -868.337347982     A.U. after   16 cycles
 E2 =    -0.2602426550D+01 EUMP2 =    -0.87093977453196D+03

 The electronic state is 1-A.
 Alpha  occ. eigenvalues --  -20.62010 -20.62005 -20.60749 -20.60737 -15.87054
 Alpha  occ. eigenvalues --  -15.85795 -11.32432 -11.31083 -11.29008 -11.28939
 Alpha  occ. eigenvalues --  -11.28647 -11.27975 -11.27885 -11.27659 -11.27613
 Alpha  occ. eigenvalues --  -11.27289 -11.26581 -11.26519  -1.61101  -1.59823
 Alpha  occ. eigenvalues --   -1.40642  -1.39379  -1.20610  -1.19230  -1.09972
 Alpha  occ. eigenvalues --   -1.08628  -1.06001  -1.04623  -0.96804  -0.95484
 Alpha  occ. eigenvalues --   -0.87362  -0.86024  -0.83624  -0.82324  -0.78689
 Alpha  occ. eigenvalues --   -0.77402  -0.73246  -0.72491  -0.72015  -0.71629
 Alpha  occ. eigenvalues --   -0.71146  -0.70297  -0.66226  -0.65931  -0.64875
 Alpha  occ. eigenvalues --   -0.64671  -0.63300  -0.62020  -0.56408  -0.55099
 Alpha  occ. eigenvalues --   -0.54397  -0.54027  -0.52952  -0.52592  -0.50022
 Alpha  occ. eigenvalues --   -0.50010  -0.48778  -0.48762  -0.46026  -0.44803
 Alpha  occ. eigenvalues --   -0.38555  -0.37557  -0.37180  -0.36233
 Alpha virt. eigenvalues --    0.03788   0.05137   0.09968   0.11429   0.15210
 Alpha virt. eigenvalues --    0.16664   0.20242   0.21738   0.26012   0.27151
 Alpha virt. eigenvalues --    0.27740   0.28152   0.30057   0.31467   0.31708

 Mulliken charges:
               1
     1  C   -0.174645
     2  C   -0.219056
     3  C   -0.171826
     4  C    0.158726
     5  C   -0.175007
     6  C   -0.221995
     7  H    0.229380
     8  H    0.226493
     9  H    0.275310
    10  H    0.271195
    11  H    0.226553
    12  N    0.488106
    13  O   -0.462786
    14  O   -0.460175
    15  C   -0.167707
    16  C   -0.216865
    17  C   -0.169806
    18  C    0.156197
    19  C   -0.185023
    20  C   -0.225825
    21  H    0.231895
    22  H    0.229261
    23  H    0.279242
    24  H    0.279428
    25  H    0.228319
    26  N    0.485793
    27  O   -0.459019
    28  O   -0.456160
 Sum of Mulliken charges =  -0.00000

 Dipole moment (field-independent basis, Debye):
    X=             -4.0022    Y=              3.0539    Z=              1.0019  Tot=              5.1330
 Quadrupole moment (field-independent basis, Debye-Ang):
   XX=           -144.1327   YY=           -100.4886   ZZ=           -100.0829
   XY=            -24.0712   XZ=             -3.7202   YZ=             -2.4943

 Normal termination of Gaussian 16 at Thu May  6 19:42:04 2021.
