 Gaussian 16, Revision A.03,
 Gaussian 16:  EM64L-G16RevA.03 25-Dec-2016

 -------------
 #p 6-31g* mp2
 -------------

 ------------------------------------------------------
 Input file generated by CHIRIPA (05-May-2021 14:57:21)
 ------------------------------------------------------
 Symbolic Z-matrix:
 Charge =  0 Multiplicity = 1

                         Standard orientation:
 ---------------------------------------------------------------------
 Center     Atomic      Atomic             Coordinates (Angstroms)
 Number     Number       Type             X           Y           Z
 ---------------------------------------------------------------------
      1          6           0        1.871331    2.761091    0.075155
      2          6           0        3.124426    2.481352    0.630150
      3          6           0        3.651038    1.187311    0.578338
      4          6           0        2.894129    0.192594   -0.038846
      5          6           0        1.642639    0.439889   -0.600904
      6          6           0        1.135733    1.741264   -0.537520
      7          1           0        1.469900    3.769182    0.119899
      8          1           0        3.697922    3.271388    1.106587
      9          1           0        4.618496    0.943028    0.999964
     10          1           0        1.094355   -0.368475   -1.069252
     11          1           0        0.162285    1.955607   -0.969378
     12          7           0        3.441198   -1.181232   -0.099823
     13          8           0        2.754600   -2.040004   -0.649124
     14          8           0        4.546230   -1.373252    0.402840
     15          6           0       -1.295050   -2.439572    0.109141
     16          6           0       -1.373296   -1.670258   -1.056430
     17          6           0       -2.205990   -0.548629   -1.112277
     18          6           0       -2.949841   -0.223677    0.021029
     19          6           0       -2.893508   -0.970234    1.196941
     20          6           0       -2.054067   -2.087725    1.230130
     21          1           0       -0.645572   -3.309273    0.143722
     22          1           0       -0.784977   -1.941139   -1.928525
     23          1           0       -2.285647    0.064534   -2.001717
     24          1           0       -3.492035   -0.675256    2.050271
     25          1           0       -1.995301   -2.683341    2.136680
     26          7           0       -3.834949    0.961551   -0.026100
     27          8           0       -4.480099    1.226771    0.985867
     28          8           0       -3.866785    1.602870   -1.074113
 ---------------------------------------------------------------------

 SCF Done:  E(RHF) =  -868.339018471     A.U. after   16 cycles
 E2 =    -0.2601553125D+01 EUMP2 =    -0.87094057159640D+03

 The electronic state is 1-A.
 Alpha  occ. eigenvalues --  -20.61305 -20.61293 -20.61267 -20.61252 -15.86333
 Alpha  occ. eigenvalues --  -15.86321 -11.31629 -11.31411 -11.28251 -11.28151
 Alpha  occ. eigenvalues --  -11.27963 -11.27907 -11.27733 -11.27623 -11.27114
 Alpha  occ. eigenvalues --  -11.27055 -11.26909 -11.26864  -1.60363  -1.60350
 Alpha  occ. eigenvalues --   -1.39918  -1.39916  -1.19786  -1.19561  -1.09142
 Alpha  occ. eigenvalues --   -1.09001  -1.05212  -1.04906  -0.95993  -0.95883
 Alpha  occ. eigenvalues --   -0.86584  -0.86307  -0.82861  -0.82716  -0.77993
 Alpha  occ. eigenvalues --   -0.77775  -0.72562  -0.72537  -0.71695  -0.71663
 Alpha  occ. eigenvalues --   -0.70760  -0.70676  -0.65407  -0.65239  -0.65205
 Alpha  occ. eigenvalues --   -0.64839  -0.62629  -0.62211  -0.55530  -0.55420
 Alpha  occ. eigenvalues --   -0.53586  -0.53302  -0.53196  -0.52883  -0.49325
 Alpha  occ. eigenvalues --   -0.49312  -0.49292  -0.49265  -0.45382  -0.45340
 Alpha  occ. eigenvalues --   -0.37702  -0.37488  -0.36913  -0.36397
 Alpha virt. eigenvalues --    0.04577   0.04699   0.10580   0.11241   0.16023
 Alpha virt. eigenvalues --    0.16270   0.20346   0.22023   0.25938   0.27045
 Alpha virt. eigenvalues --    0.28402   0.29360   0.29808   0.31307   0.31966

 Mulliken charges:
               1
     1  C   -0.169944
     2  C   -0.219197
     3  C   -0.170518
     4  C    0.156026
     5  C   -0.170243
     6  C   -0.224094
     7  H    0.229707
     8  H    0.224514
     9  H    0.275233
    10  H    0.274223
    11  H    0.227510
    12  N    0.488588
    13  O   -0.470481
    14  O   -0.457780
    15  C   -0.166037
    16  C   -0.233354
    17  C   -0.178645
    18  C    0.158614
    19  C   -0.169564
    20  C   -0.218798
    21  H    0.240534
    22  H    0.230952
    23  H    0.273103
    24  H    0.276713
    25  H    0.227296
    26  N    0.487741
    27  O   -0.458170
    28  O   -0.463927
 Sum of Mulliken charges =  -0.00000

 Dipole moment (field-independent basis, Debye):
    X=              1.1323    Y=              0.5475    Z=              0.5763  Tot=              1.3835
 Quadrupole moment (field-independent basis, Debye-Ang):
   XX=           -131.7199   YY=           -100.7034   ZZ=            -99.9476
   XY=             27.7060   XZ=              0.8767   YZ=             -0.4635

 Normal termination of Gaussian 16 at Thu May  6 21:04:16 2021.
