 Gaussian 16, Revision A.03,
 Gaussian 16:  EM64L-G16RevA.03 25-Dec-2016

 -------------
 #p 6-31g* mp2
 -------------

 ------------------------------------------------------
 Input file generated by CHIRIPA (05-May-2021 14:51:11)
 ------------------------------------------------------
 Symbolic Z-matrix:
 Charge =  0 Multiplicity = 1

                         Standard orientation:
 ---------------------------------------------------------------------
 Center     Atomic      Atomic             Coordinates (Angstroms)
 Number     Number       Type             X           Y           Z
 ---------------------------------------------------------------------
      1          6           0       -3.537571   -0.216987    0.414273
      2          6           0       -2.729229    1.074858    0.539586
      3          6           0       -1.301065    0.833408    1.029322
      4          1           0       -3.563326   -0.721973    1.389604
      5          1           0       -3.022188   -0.898204   -0.276899
      6          1           0       -3.246697    1.753984    1.229246
      7          1           0       -2.705557    1.576923   -0.436112
      8          1           0       -0.762979    0.175987    0.338770
      9          1           0       -1.307193    0.354054    2.013590
     10          1           0       -0.741123    1.770181    1.111672
     11          6           0       -4.967406    0.008039   -0.074260
     12          6           0       -5.775748   -1.283807   -0.199573
     13          6           0       -7.203912   -1.042356   -0.689310
     14          1           0       -5.482789    0.689255    0.616912
     15          1           0       -4.941651    0.513024   -1.049592
     16          1           0       -5.799419   -1.785872    0.776125
     17          1           0       -5.258280   -1.962933   -0.889233
     18          1           0       -7.197784   -0.563002   -1.673578
     19          1           0       -7.741997   -0.384935    0.001243
     20          1           0       -7.763854   -1.979129   -0.771659
     21          6           0        4.956942   -0.144460   -0.328780
     22          6           0        5.289577   -1.483733    0.329770
     23          6           0        6.702294   -1.968582    0.002740
     24          1           0        5.070511   -0.240119   -1.417309
     25          1           0        5.688434    0.608046   -0.003126
     26          1           0        4.556855   -2.233161    0.004053
     27          1           0        5.175017   -1.384929    1.416843
     28          1           0        7.447333   -1.242181    0.343121
     29          1           0        6.825658   -2.095232   -1.077697
     30          1           0        6.919013   -2.927540    0.483668
     31          6           0        3.548035    0.353409   -0.011233
     32          6           0        3.215399    1.692682   -0.669782
     33          6           0        1.802682    2.177530   -0.342752
     34          1           0        2.816544   -0.399097   -0.336886
     35          1           0        3.434465    0.449067    1.077296
     36          1           0        3.329960    1.593878   -1.756856
     37          1           0        3.948122    2.442110   -0.344066
     38          1           0        1.679319    2.304181    0.737684
     39          1           0        1.057644    1.451129   -0.683134
     40          1           0        1.585963    3.136489   -0.823680
 ---------------------------------------------------------------------

 SCF Done:  E(RHF) =  -470.731845039     A.U. after   11 cycles
 E2 =    -0.1582967647D+01 EUMP2 =    -0.47231481268587D+03

 The electronic state is 1-A.
 Alpha  occ. eigenvalues --  -11.21582 -11.21579 -11.21535 -11.21530 -11.21371
 Alpha  occ. eigenvalues --  -11.21370 -11.21310 -11.21309 -11.21056 -11.21054
 Alpha  occ. eigenvalues --  -11.20937 -11.20909  -1.08403  -1.08379  -1.03534
 Alpha  occ. eigenvalues --   -1.03438  -0.96043  -0.95834  -0.87124  -0.86795
 Alpha  occ. eigenvalues --   -0.79696  -0.79416  -0.78231  -0.78175  -0.65056
 Alpha  occ. eigenvalues --   -0.64996  -0.61000  -0.60793  -0.59368  -0.59286
 Alpha  occ. eigenvalues --   -0.57653  -0.57446  -0.55411  -0.55062  -0.52966
 Alpha  occ. eigenvalues --   -0.52623  -0.52350  -0.52029  -0.50067  -0.49695
 Alpha  occ. eigenvalues --   -0.47889  -0.47804  -0.46687  -0.46457  -0.45781
 Alpha  occ. eigenvalues --   -0.45727  -0.45692  -0.45596  -0.43759  -0.43658
 Alpha virt. eigenvalues --    0.22297   0.23004   0.23666   0.24755   0.26040
 Alpha virt. eigenvalues --    0.26722   0.27003   0.27472   0.27769   0.29068
 Alpha virt. eigenvalues --    0.29488   0.31404   0.31870   0.31944   0.32434

 Mulliken charges:
               1
     1  C   -0.298409
     2  C   -0.300278
     3  C   -0.478380
     4  H    0.149568
     5  H    0.149095
     6  H    0.151599
     7  H    0.151737
     8  H    0.154102
     9  H    0.153782
    10  H    0.167717
    11  C   -0.298173
    12  C   -0.299578
    13  C   -0.475671
    14  H    0.149481
    15  H    0.149512
    16  H    0.151896
    17  H    0.151769
    18  H    0.155121
    19  H    0.155165
    20  H    0.160156
    21  C   -0.298207
    22  C   -0.299589
    23  C   -0.475681
    24  H    0.149452
    25  H    0.149496
    26  H    0.151837
    27  H    0.151985
    28  H    0.155149
    29  H    0.155094
    30  H    0.160179
    31  C   -0.297927
    32  C   -0.300376
    33  C   -0.478008
    34  H    0.148912
    35  H    0.149909
    36  H    0.151263
    37  H    0.151315
    38  H    0.154954
    39  H    0.161245
    40  H    0.158787
 Sum of Mulliken charges =  -0.00000

 Dipole moment (field-independent basis, Debye):
    X=              0.0017    Y=              0.0161    Z=              0.0120  Tot=              0.0202
 Quadrupole moment (field-independent basis, Debye-Ang):
   XX=            -86.9702   YY=            -84.8180   ZZ=            -83.3062
   XY=              0.5769   XZ=             -0.1808   YZ=              0.4994

 Normal termination of Gaussian 16 at Thu May  6 03:50:36 2021.
