 Gaussian 16, Revision A.03,
 Gaussian 16:  EM64L-G16RevA.03 25-Dec-2016

 -------------
 #p 6-31g* mp2
 -------------

 ------------------------------------------------------
 Input file generated by CHIRIPA (05-May-2021 14:55:19)
 ------------------------------------------------------
 Symbolic Z-matrix:
 Charge =  0 Multiplicity = 1

                         Standard orientation:
 ---------------------------------------------------------------------
 Center     Atomic      Atomic             Coordinates (Angstroms)
 Number     Number       Type             X           Y           Z
 ---------------------------------------------------------------------
      1          6           0        1.189403   -1.791661    1.128765
      2          6           0        0.786732   -0.678866    0.383069
      3          6           0        1.734288    0.140582   -0.237569
      4          6           0        3.082147   -0.183610   -0.091063
      5          6           0        3.514758   -1.285386    0.645299
      6          6           0        2.549733   -2.090842    1.257274
      7          1           0        0.446533   -2.422793    1.607527
      8          1           0       -0.269027   -0.444103    0.281559
      9          1           0        1.450278    1.008186   -0.820681
     10          1           0        4.574472   -1.493962    0.728489
     11          1           0        2.865358   -2.954412    1.835782
     12          7           0        4.094529    0.676496   -0.743519
     13          8           0        5.275848    0.369399   -0.599249
     14          8           0        3.687546    1.641460   -1.386828
     15          6           0       -3.133877    0.792549    0.270036
     16          6           0       -3.405422    2.280103    0.496822
     17          6           0       -2.200277    3.018893    1.079581
     18          1           0       -2.844129    0.329725    1.223338
     19          1           0       -2.273785    0.682701   -0.404925
     20          1           0       -4.265609    2.387123    1.170055
     21          1           0       -3.694743    2.739400   -0.457094
     22          1           0       -1.339348    2.941785    0.407676
     23          1           0       -1.913456    2.587506    2.044070
     24          1           0       -2.416355    4.080699    1.233653
     25          6           0       -4.329277    0.040388   -0.312199
     26          6           0       -4.057731   -1.447166   -0.538985
     27          6           0       -5.262876   -2.185956   -1.121744
     28          1           0       -5.189369    0.150237    0.362762
     29          1           0       -4.619025    0.503212   -1.265501
     30          1           0       -3.768411   -1.906462    0.414931
     31          1           0       -3.197545   -1.554185   -1.212218
     32          1           0       -5.549697   -1.754569   -2.086233
     33          1           0       -6.123806   -2.108848   -0.449839
     34          1           0       -5.046798   -3.247762   -1.275816
 ---------------------------------------------------------------------

 SCF Done:  E(RHF) =  -669.535620322     A.U. after   15 cycles
 E2 =    -0.2091620959D+01 EUMP2 =    -0.67162724128074D+03

 The electronic state is 1-A.
 Alpha  occ. eigenvalues --  -20.60697 -20.60692 -15.85749 -11.31094 -11.27658
 Alpha  occ. eigenvalues --  -11.27643 -11.27380 -11.26677 -11.26578 -11.22491
 Alpha  occ. eigenvalues --  -11.22479 -11.22354 -11.22222 -11.21750 -11.21733
 Alpha  occ. eigenvalues --   -1.59773  -1.39327  -1.19256  -1.09327  -1.08654
 Alpha  occ. eigenvalues --   -1.04653  -1.04312  -0.96761  -0.95496  -0.87772
 Alpha  occ. eigenvalues --   -0.86053  -0.82332  -0.80386  -0.79210  -0.77370
 Alpha  occ. eigenvalues --   -0.71968  -0.71095  -0.70370  -0.65955  -0.64905
 Alpha  occ. eigenvalues --   -0.64654  -0.62022  -0.61689  -0.60127  -0.58383
 Alpha  occ. eigenvalues --   -0.56044  -0.55159  -0.53412  -0.53247  -0.52987
 Alpha  occ. eigenvalues --   -0.52690  -0.50693  -0.48747  -0.48725  -0.48673
 Alpha  occ. eigenvalues --   -0.47418  -0.46659  -0.46630  -0.44737  -0.44604
 Alpha  occ. eigenvalues --   -0.37238  -0.36254
 Alpha virt. eigenvalues --    0.05145   0.11382   0.16635   0.19778   0.22610
 Alpha virt. eigenvalues --    0.23441   0.24875   0.25520   0.26887   0.28478
 Alpha virt. eigenvalues --    0.29208   0.30676   0.30958   0.31230   0.31660

 Mulliken charges:
               1
     1  C   -0.173281
     2  C   -0.226694
     3  C   -0.174142
     4  C    0.158905
     5  C   -0.171572
     6  C   -0.218319
     7  H    0.225659
     8  H    0.237129
     9  H    0.274466
    10  H    0.275163
    11  H    0.222846
    12  N    0.488126
    13  O   -0.460777
    14  O   -0.460767
    15  C   -0.305029
    16  C   -0.299611
    17  C   -0.476773
    18  H    0.147372
    19  H    0.144863
    20  H    0.155125
    21  H    0.155653
    22  H    0.153080
    23  H    0.155668
    24  H    0.165634
    25  C   -0.297413
    26  C   -0.301519
    27  C   -0.475913
    28  H    0.152954
    29  H    0.153597
    30  H    0.148210
    31  H    0.150725
    32  H    0.157964
    33  H    0.157043
    34  H    0.161628
 Sum of Mulliken charges =  -0.00000

 Dipole moment (field-independent basis, Debye):
    X=             -3.8527    Y=             -2.9416    Z=              2.2953  Tot=              5.3633
 Quadrupole moment (field-independent basis, Debye-Ang):
   XX=           -113.9298   YY=            -92.4142   ZZ=            -94.4723
   XY=            -11.8736   XZ=              8.4586   YZ=             -1.7683

 Normal termination of Gaussian 16 at Wed May  5 17:19:35 2021.
