 Gaussian 16, Revision A.03,
 Gaussian 16:  EM64L-G16RevA.03 25-Dec-2016

 -------------
 #p 6-31g* mp2
 -------------

 ------------------------------------------------------
 Input file generated by CHIRIPA (05-May-2021 14:55:22)
 ------------------------------------------------------
 Symbolic Z-matrix:
 Charge =  0 Multiplicity = 1

                         Standard orientation:
 ---------------------------------------------------------------------
 Center     Atomic      Atomic             Coordinates (Angstroms)
 Number     Number       Type             X           Y           Z
 ---------------------------------------------------------------------
      1          6           0       -1.457853   -1.935139    1.678287
      2          6           0       -2.602611   -2.095208    0.890615
      3          6           0       -3.042510   -1.061107    0.058947
      4          6           0       -2.310303    0.124973    0.039520
      5          6           0       -1.165889    0.314873    0.812530
      6          6           0       -0.744403   -0.732729    1.636804
      7          1           0       -1.123280   -2.743697    2.321475
      8          1           0       -3.158662   -3.027914    0.920806
      9          1           0       -3.925334   -1.158187   -0.561226
     10          1           0       -0.632425    1.256249    0.761087
     11          1           0        0.144988   -0.605603    2.247432
     12          7           0       -2.766258    1.226876   -0.837016
     13          8           0       -2.103593    2.262014   -0.836107
     14          8           0       -3.777668    1.034544   -1.508355
     15          6           0        2.620378    0.796559   -0.270970
     16          6           0        3.213986    1.686990    0.821159
     17          6           0        2.723124    3.132591    0.736986
     18          1           0        2.874387    1.214859   -1.254561
     19          1           0        1.524325    0.817548   -0.195976
     20          1           0        4.308633    1.663234    0.744997
     21          1           0        2.958697    1.266417    1.802262
     22          1           0        1.633600    3.175819    0.835321
     23          1           0        2.991206    3.574892   -0.227951
     24          1           0        3.159883    3.751514    1.526945
     25          6           0        3.101623   -0.651576   -0.200029
     26          6           0        2.508014   -1.542006   -1.292159
     27          6           0        2.998877   -2.987608   -1.207986
     28          1           0        4.197675   -0.672565   -0.275024
     29          1           0        2.847614   -1.069876    0.783561
     30          1           0        2.763303   -1.121434   -2.273260
     31          1           0        1.413367   -1.518251   -1.215996
     32          1           0        2.730795   -3.429908   -0.243048
     33          1           0        4.088401   -3.030836   -1.306321
     34          1           0        2.562117   -3.606531   -1.997944
 ---------------------------------------------------------------------

 SCF Done:  E(RHF) =  -669.535061381     A.U. after   15 cycles
 E2 =    -0.2093484945D+01 EUMP2 =    -0.67162854632627D+03

 The electronic state is 1-A.
 Alpha  occ. eigenvalues --  -20.60822 -20.60816 -15.85877 -11.31276 -11.27854
 Alpha  occ. eigenvalues --  -11.27844 -11.27597 -11.26886 -11.26860 -11.22025
 Alpha  occ. eigenvalues --  -11.21869 -11.21797 -11.21704 -11.21406 -11.21322
 Alpha  occ. eigenvalues --   -1.59896  -1.39449  -1.19461  -1.08847  -1.08803
 Alpha  occ. eigenvalues --   -1.04871  -1.03868  -0.96311  -0.95673  -0.87322
 Alpha  occ. eigenvalues --   -0.86261  -0.82506  -0.79920  -0.78627  -0.77544
 Alpha  occ. eigenvalues --   -0.72095  -0.71220  -0.70574  -0.65519  -0.65090
 Alpha  occ. eigenvalues --   -0.64870  -0.62221  -0.61247  -0.59672  -0.57913
 Alpha  occ. eigenvalues --   -0.55631  -0.55350  -0.53205  -0.52999  -0.52951
 Alpha  occ. eigenvalues --   -0.52709  -0.50262  -0.48856  -0.48848  -0.48227
 Alpha  occ. eigenvalues --   -0.46965  -0.46144  -0.46079  -0.44842  -0.44126
 Alpha  occ. eigenvalues --   -0.37431  -0.36421
 Alpha virt. eigenvalues --    0.04946   0.11104   0.16354   0.18948   0.22961
 Alpha virt. eigenvalues --    0.23307   0.25190   0.25719   0.27594   0.28479
 Alpha virt. eigenvalues --    0.29221   0.30819   0.31314   0.31584   0.31940

 Mulliken charges:
               1
     1  C   -0.171067
     2  C   -0.218333
     3  C   -0.170597
     4  C    0.157384
     5  C   -0.173697
     6  C   -0.219339
     7  H    0.226215
     8  H    0.224011
     9  H    0.276065
    10  H    0.279732
    11  H    0.225565
    12  N    0.487875
    13  O   -0.460236
    14  O   -0.460052
    15  C   -0.304272
    16  C   -0.300926
    17  C   -0.477075
    18  H    0.155778
    19  H    0.149452
    20  H    0.154710
    21  H    0.143459
    22  H    0.155833
    23  H    0.160793
    24  H    0.161301
    25  C   -0.296395
    26  C   -0.301966
    27  C   -0.475115
    28  H    0.151363
    29  H    0.140964
    30  H    0.154989
    31  H    0.155285
    32  H    0.150673
    33  H    0.156055
    34  H    0.161569
 Sum of Mulliken charges =  -0.00000

 Dipole moment (field-independent basis, Debye):
    X=              1.5902    Y=             -3.8255    Z=              2.9715  Tot=              5.0984
 Quadrupole moment (field-independent basis, Debye-Ang):
   XX=            -98.8036   YY=            -95.4635   ZZ=            -94.3346
   XY=             12.5825   XZ=             -6.5836   YZ=              0.8584

 Normal termination of Gaussian 16 at Thu May  6 15:55:43 2021.
