 Gaussian 16, Revision A.03,
 Gaussian 16:  EM64L-G16RevA.03 25-Dec-2016

 -------------
 #p 6-31g* mp2
 -------------

 ------------------------------------------------------
 Input file generated by CHIRIPA (05-May-2021 14:51:14)
 ------------------------------------------------------
 Symbolic Z-matrix:
 Charge =  0 Multiplicity = 1

                         Standard orientation:
 ---------------------------------------------------------------------
 Center     Atomic      Atomic             Coordinates (Angstroms)
 Number     Number       Type             X           Y           Z
 ---------------------------------------------------------------------
      1          6           0        2.330861   -1.142633    0.708291
      2          6           0        0.885755   -1.525798    1.028974
      3          6           0        0.787251   -2.649061    2.061627
      4          1           0        2.865444   -2.028997    0.340153
      5          1           0        2.835645   -0.835556    1.634732
      6          1           0        0.383449   -1.830740    0.101982
      7          1           0        0.354499   -0.638374    1.396210
      8          1           0        1.263422   -2.351241    3.001395
      9          1           0        1.292536   -3.550381    1.699813
     10          1           0       -0.254538   -2.907071    2.276026
     11          6           0        2.445730   -0.021010   -0.322484
     12          6           0        3.890836    0.362155   -0.643167
     13          6           0        3.989340    1.485418   -1.675820
     14          1           0        1.940946   -0.328087   -1.248925
     15          1           0        1.911147    0.865354    0.045654
     16          1           0        4.422092   -0.525269   -1.010403
     17          1           0        4.393142    0.667097    0.283825
     18          1           0        3.484055    2.386739   -1.314006
     19          1           0        3.513169    1.187598   -2.615588
     20          1           0        5.031129    1.743428   -1.890219
     21          6           0       -2.343191    0.987358    0.452804
     22          6           0       -1.720663    2.370296    0.258051
     23          6           0       -1.637280    3.169552    1.558831
     24          1           0       -3.349014    1.101836    0.879605
     25          1           0       -1.752278    0.427582    1.190954
     26          1           0       -2.311773    2.926791   -0.480541
     27          1           0       -0.716279    2.252522   -0.168516
     28          1           0       -1.030279    2.638387    2.299113
     29          1           0       -2.634838    3.316487    1.985313
     30          1           0       -1.189174    4.154817    1.396614
     31          6           0       -2.433400    0.176284   -0.838610
     32          6           0       -3.055928   -1.206653   -0.643857
     33          6           0       -3.139311   -2.005909   -1.944639
     34          1           0       -3.024313    0.736061   -1.576761
     35          1           0       -1.427577    0.061808   -1.265412
     36          1           0       -4.060311   -1.088879   -0.217291
     37          1           0       -2.464818   -1.763148    0.094734
     38          1           0       -2.141752   -2.152845   -2.371121
     39          1           0       -3.746311   -1.474745   -2.684919
     40          1           0       -3.587416   -2.991174   -1.782421
 ---------------------------------------------------------------------

 SCF Done:  E(RHF) =  -470.733099214     A.U. after   11 cycles
 E2 =    -0.1584621499D+01 EUMP2 =    -0.47231772071338D+03

 The electronic state is 1-A.
 Alpha  occ. eigenvalues --  -11.21691 -11.21669 -11.21575 -11.21553 -11.21501
 Alpha  occ. eigenvalues --  -11.21440 -11.21333 -11.21273 -11.21161 -11.21118
 Alpha  occ. eigenvalues --  -11.21083 -11.21061  -1.08539  -1.08369  -1.03614
 Alpha  occ. eigenvalues --   -1.03505  -0.96059  -0.95954  -0.87073  -0.86972
 Alpha  occ. eigenvalues --   -0.79697  -0.79560  -0.78355  -0.78188  -0.65201
 Alpha  occ. eigenvalues --   -0.64993  -0.61104  -0.60825  -0.59422  -0.59321
 Alpha  occ. eigenvalues --   -0.57677  -0.57559  -0.55377  -0.55218  -0.52748
 Alpha  occ. eigenvalues --   -0.52654  -0.52489  -0.52375  -0.50040  -0.49881
 Alpha  occ. eigenvalues --   -0.48026  -0.47905  -0.46850  -0.46486  -0.46127
 Alpha  occ. eigenvalues --   -0.45852  -0.45550  -0.45378  -0.43866  -0.43746
 Alpha virt. eigenvalues --    0.19533   0.22050   0.23320   0.23966   0.25539
 Alpha virt. eigenvalues --    0.25993   0.27005   0.27804   0.28513   0.29983
 Alpha virt. eigenvalues --    0.30523   0.31122   0.31545   0.31806   0.32345

 Mulliken charges:
               1
     1  C   -0.297932
     2  C   -0.307437
     3  C   -0.476776
     4  H    0.150090
     5  H    0.149817
     6  H    0.154271
     7  H    0.157188
     8  H    0.155573
     9  H    0.155806
    10  H    0.160846
    11  C   -0.301534
    12  C   -0.299662
    13  C   -0.475856
    14  H    0.149551
    15  H    0.151769
    16  H    0.152291
    17  H    0.152257
    18  H    0.155307
    19  H    0.155348
    20  H    0.160572
    21  C   -0.302795
    22  C   -0.302813
    23  C   -0.475489
    24  H    0.149364
    25  H    0.154562
    26  H    0.152105
    27  H    0.154257
    28  H    0.153926
    29  H    0.155479
    30  H    0.160118
    31  C   -0.299119
    32  C   -0.302725
    33  C   -0.475785
    34  H    0.149139
    35  H    0.151757
    36  H    0.151726
    37  H    0.155030
    38  H    0.154355
    39  H    0.155296
    40  H    0.160123
 Sum of Mulliken charges =  -0.00000

 Dipole moment (field-independent basis, Debye):
    X=              0.0438    Y=             -0.0169    Z=              0.0082  Tot=              0.0477
 Quadrupole moment (field-independent basis, Debye-Ang):
   XX=            -83.9763   YY=            -85.3065   ZZ=            -85.4662
   XY=             -0.6637   XZ=              0.2034   YZ=              0.3919

 Normal termination of Gaussian 16 at Thu May  6 05:35:43 2021.
