 Gaussian 16, Revision A.03,
 Gaussian 16:  EM64L-G16RevA.03 25-Dec-2016

 -------------
 #p 6-31g* mp2
 -------------

 ------------------------------------------------------
 Input file generated by CHIRIPA (05-May-2021 14:51:08)
 ------------------------------------------------------
 Symbolic Z-matrix:
 Charge =  0 Multiplicity = 1

                         Standard orientation:
 ---------------------------------------------------------------------
 Center     Atomic      Atomic             Coordinates (Angstroms)
 Number     Number       Type             X           Y           Z
 ---------------------------------------------------------------------
      1          6           0       -3.634180    0.944683    0.316547
      2          6           0       -3.264354    2.147221   -0.552427
      3          6           0       -3.798570    3.466590    0.005848
      4          1           0       -4.727510    0.889486    0.408889
      5          1           0       -3.242241    1.100006    1.331265
      6          1           0       -3.655682    1.989044   -1.565570
      7          1           0       -2.171784    2.199449   -0.642868
      8          1           0       -3.398196    3.651107    1.007973
      9          1           0       -4.890525    3.439507    0.080029
     10          1           0       -3.522671    4.312964   -0.630856
     11          6           0       -3.107200   -0.381560   -0.228522
     12          6           0       -3.477026   -1.584098    0.640452
     13          6           0       -2.942809   -2.903468    0.082177
     14          1           0       -3.499139   -0.536883   -1.243241
     15          1           0       -2.013870   -0.326364   -0.320864
     16          1           0       -4.569596   -1.636326    0.730893
     17          1           0       -3.085698   -1.425922    1.653595
     18          1           0       -1.850855   -2.876384    0.007996
     19          1           0       -3.343184   -3.087984   -0.919948
     20          1           0       -3.218709   -3.749841    0.718881
     21          6           0        4.062270   -0.016705    0.143071
     22          6           0        4.207201    1.492666   -0.053847
     23          6           0        5.596237    2.007532    0.324686
     24          1           0        4.273656   -0.265165    1.192132
     25          1           0        4.822422   -0.532740   -0.459649
     26          1           0        3.446110    2.005646    0.547991
     27          1           0        3.995259    1.737586   -1.102518
     28          1           0        6.366029    1.522355   -0.284104
     29          1           0        5.813760    1.791939    1.375783
     30          1           0        5.677819    3.088810    0.176219
     31          6           0        2.679110   -0.546417   -0.231095
     32          6           0        2.534178   -2.055790   -0.034179
     33          6           0        1.145143   -2.570654   -0.412711
     34          1           0        1.918958   -0.030382    0.371625
     35          1           0        2.467724   -0.297958   -1.280156
     36          1           0        2.746121   -2.300708    1.014493
     37          1           0        3.295270   -2.568768   -0.636016
     38          1           0        0.927620   -2.355062   -1.463808
     39          1           0        0.375351   -2.085478    0.196080
     40          1           0        1.063560   -3.651933   -0.264243
 ---------------------------------------------------------------------

 SCF Done:  E(RHF) =  -470.733097892     A.U. after   11 cycles
 E2 =    -0.1582776825D+01 EUMP2 =    -0.47231587471708D+03

 The electronic state is 1-A.
 Alpha  occ. eigenvalues --  -11.21658 -11.21636 -11.21576 -11.21537 -11.21457
 Alpha  occ. eigenvalues --  -11.21395 -11.21367 -11.21304 -11.21146 -11.21097
 Alpha  occ. eigenvalues --  -11.21054 -11.20906  -1.08481  -1.08386  -1.03588
 Alpha  occ. eigenvalues --   -1.03470  -0.96051  -0.95908  -0.87085  -0.86912
 Alpha  occ. eigenvalues --   -0.79690  -0.79502  -0.78302  -0.78187  -0.65131
 Alpha  occ. eigenvalues --   -0.65006  -0.61060  -0.60815  -0.59401  -0.59293
 Alpha  occ. eigenvalues --   -0.57664  -0.57517  -0.55434  -0.55123  -0.52768
 Alpha  occ. eigenvalues --   -0.52613  -0.52509  -0.52266  -0.50085  -0.49757
 Alpha  occ. eigenvalues --   -0.48064  -0.47769  -0.46756  -0.46484  -0.45908
 Alpha  occ. eigenvalues --   -0.45773  -0.45707  -0.45526  -0.43828  -0.43733
 Alpha virt. eigenvalues --    0.21291   0.23048   0.23676   0.24732   0.25973
 Alpha virt. eigenvalues --    0.26701   0.27186   0.27328   0.28107   0.29090
 Alpha virt. eigenvalues --    0.30664   0.31362   0.31696   0.31824   0.32104

 Mulliken charges:
               1
     1  C   -0.298135
     2  C   -0.299679
     3  C   -0.475654
     4  H    0.149659
     5  H    0.149062
     6  H    0.151918
     7  H    0.152069
     8  H    0.155003
     9  H    0.155148
    10  H    0.160188
    11  C   -0.300150
    12  C   -0.299148
    13  C   -0.484355
    14  H    0.149594
    15  H    0.150944
    16  H    0.151669
    17  H    0.150789
    18  H    0.166368
    19  H    0.154525
    20  H    0.159289
    21  C   -0.298314
    22  C   -0.299680
    23  C   -0.475741
    24  H    0.149739
    25  H    0.149763
    26  H    0.151812
    27  H    0.152071
    28  H    0.155278
    29  H    0.155221
    30  H    0.160385
    31  C   -0.298490
    32  C   -0.300294
    33  C   -0.479247
    34  H    0.148914
    35  H    0.149952
    36  H    0.152167
    37  H    0.152336
    38  H    0.156470
    39  H    0.157101
    40  H    0.161454
 Sum of Mulliken charges =  -0.00000

 Dipole moment (field-independent basis, Debye):
    X=              0.0586    Y=             -0.0155    Z=             -0.0205  Tot=              0.0640
 Quadrupole moment (field-independent basis, Debye-Ang):
   XX=            -85.0644   YY=            -86.0860   ZZ=            -83.6950
   XY=             -0.2061   XZ=              0.0542   YZ=             -0.1596

 Normal termination of Gaussian 16 at Thu May  6 02:05:05 2021.
