 Gaussian 16, Revision A.03,
 Gaussian 16:  EM64L-G16RevA.03 25-Dec-2016

 -------------
 #p 6-31g* mp2
 -------------

 ------------------------------------------------------
 Input file generated by CHIRIPA (05-May-2021 14:53:14)
 ------------------------------------------------------
 Symbolic Z-matrix:
 Charge =  0 Multiplicity = 1

                         Standard orientation:
 ---------------------------------------------------------------------
 Center     Atomic      Atomic             Coordinates (Angstroms)
 Number     Number       Type             X           Y           Z
 ---------------------------------------------------------------------
      1          6           0       -3.366277   -0.678328    0.165866
      2          6           0       -4.481722   -1.707895   -0.017873
      3          6           0       -3.973971   -3.148415    0.052039
      4          1           0       -2.599630   -0.836210   -0.605024
      5          1           0       -2.875570   -0.848535    1.134179
      6          1           0       -4.971084   -1.534924   -0.984942
      7          1           0       -5.245896   -1.547422    0.753426
      8          1           0       -3.503583   -3.344482    1.021004
      9          1           0       -3.227210   -3.331912   -0.727241
     10          1           0       -4.787798   -3.867885   -0.081789
     11          6           0       -3.858215    0.766381    0.098484
     12          6           0       -2.742770    1.795949    0.282223
     13          6           0       -3.250521    3.236468    0.212311
     14          1           0       -4.348922    0.936589   -0.869829
     15          1           0       -4.624862    0.924263    0.869374
     16          1           0       -1.978596    1.635475   -0.489076
     17          1           0       -2.253408    1.622977    1.249292
     18          1           0       -3.997282    3.419966    0.991591
     19          1           0       -3.720909    3.432535   -0.756654
     20          1           0       -2.436694    3.955938    0.346139
     21          6           0        5.232540   -0.589609    0.394014
     22          6           0        4.292381   -1.615765    0.253922
     23          6           0        2.954084   -1.319825   -0.021631
     24          6           0        2.589032    0.019280   -0.151336
     25          6           0        3.502263    1.063953   -0.017334
     26          6           0        4.835181    0.744623    0.258178
     27          1           0        6.270071   -0.828588    0.608054
     28          1           0        4.598122   -2.652852    0.358893
     29          1           0        2.205534   -2.094575   -0.135003
     30          1           0        3.167424    2.088244   -0.127463
     31          1           0        5.563149    1.543611    0.366459
     32          7           0        1.175084    0.344960   -0.443031
     33          8           0        0.878852    1.532757   -0.552668
     34          8           0        0.389839   -0.593737   -0.556501
 ---------------------------------------------------------------------

 SCF Done:  E(RHF) =  -669.536565903     A.U. after   15 cycles
 E2 =    -0.2092323076D+01 EUMP2 =    -0.67162888897928D+03

 The electronic state is 1-A.
 Alpha  occ. eigenvalues --  -20.61118 -20.61113 -15.86110 -11.31387 -11.27937
 Alpha  occ. eigenvalues --  -11.27933 -11.27665 -11.26931 -11.26921 -11.20381
 Alpha  occ. eigenvalues --  -11.20078 -11.19799 -11.19655 -11.19610 -11.19550
 Alpha  occ. eigenvalues --   -1.60149  -1.39708  -1.19544  -1.08959  -1.06858
 Alpha  occ. eigenvalues --   -1.04931  -1.02064  -0.95808  -0.94565  -0.86334
 Alpha  occ. eigenvalues --   -0.85597  -0.82646  -0.78115  -0.77703  -0.76587
 Alpha  occ. eigenvalues --   -0.72321  -0.71448  -0.70652  -0.65200  -0.64935
 Alpha  occ. eigenvalues --   -0.63506  -0.62278  -0.59481  -0.57945  -0.56137
 Alpha  occ. eigenvalues --   -0.55438  -0.53880  -0.53266  -0.53021  -0.51319
 Alpha  occ. eigenvalues --   -0.50986  -0.49203  -0.49099  -0.48526  -0.46414
 Alpha  occ. eigenvalues --   -0.45133  -0.45089  -0.44180  -0.43879  -0.42284
 Alpha  occ. eigenvalues --   -0.37520  -0.36529
 Alpha virt. eigenvalues --    0.04824   0.11127   0.16336   0.21263   0.24336
 Alpha virt. eigenvalues --    0.25657   0.27192   0.28053   0.28241   0.29109
 Alpha virt. eigenvalues --    0.29477   0.30880   0.32364   0.32711   0.33159

 Mulliken charges:
               1
     1  C   -0.301346
     2  C   -0.298600
     3  C   -0.474036
     4  H    0.170816
     5  H    0.145097
     6  H    0.148591
     7  H    0.146856
     8  H    0.152208
     9  H    0.156041
    10  H    0.154745
    11  C   -0.298086
    12  C   -0.304325
    13  C   -0.474979
    14  H    0.144206
    15  H    0.141136
    16  H    0.181114
    17  H    0.145134
    18  H    0.147336
    19  H    0.150464
    20  H    0.158761
    21  C   -0.170389
    22  C   -0.218610
    23  C   -0.170766
    24  C    0.158390
    25  C   -0.170459
    26  C   -0.218604
    27  H    0.226334
    28  H    0.224202
    29  H    0.276160
    30  H    0.276018
    31  H    0.224141
    32  N    0.490171
    33  O   -0.457875
    34  O   -0.459845
 Sum of Mulliken charges =  -0.00000

 Dipole moment (field-independent basis, Debye):
    X=              5.5482    Y=             -1.1686    Z=              0.8819  Tot=              5.7381
 Quadrupole moment (field-independent basis, Debye-Ang):
   XX=            -71.3418   YY=            -92.1321   ZZ=            -95.0962
   XY=             -1.3543   XZ=              2.3017   YZ=              0.0970

 Normal termination of Gaussian 16 at Thu May  6 17:04:51 2021.
