 Gaussian 16, Revision A.03,
 Gaussian 16:  EM64L-G16RevA.03 25-Dec-2016

 -------------
 #p 6-31g* mp2
 -------------

 ------------------------------------------------------
 Input file generated by CHIRIPA (05-May-2021 14:51:08)
 ------------------------------------------------------
 Symbolic Z-matrix:
 Charge =  0 Multiplicity = 1

                         Standard orientation:
 ---------------------------------------------------------------------
 Center     Atomic      Atomic             Coordinates (Angstroms)
 Number     Number       Type             X           Y           Z
 ---------------------------------------------------------------------
      1          6           0        2.382003   -0.782741   -0.233735
      2          6           0        2.489656   -2.290667   -0.004486
      3          6           0        1.205558   -3.036986   -0.367662
      4          1           0        1.546012   -0.386927    0.359052
      5          1           0        2.133836   -0.595935   -1.287733
      6          1           0        2.738907   -2.474522    1.048456
      7          1           0        3.325607   -2.682906   -0.597740
      8          1           0        0.955675   -2.883021   -1.422392
      9          1           0        0.365641   -2.673452    0.233157
     10          1           0        1.304610   -4.113376   -0.196106
     11          6           0        3.657842   -0.022854    0.124781
     12          6           0        3.550189    1.485072   -0.104468
     13          6           0        4.834286    2.231391    0.258708
     14          1           0        3.906009   -0.209660    1.178779
     15          1           0        4.493832   -0.418668   -0.468006
     16          1           0        2.714238    1.877311    0.488785
     17          1           0        3.300938    1.668927   -1.157410
     18          1           0        5.674203    1.867858   -0.342111
     19          1           0        5.084170    2.077426    1.313437
     20          1           0        4.735235    3.307782    0.087151
     21          6           0       -3.267661    1.066424   -0.231278
     22          6           0       -2.491479    2.277429    0.287369
     23          6           0       -2.998800    3.597716   -0.293374
     24          1           0       -3.199081    1.036931   -1.327350
     25          1           0       -4.332015    1.190188    0.012088
     26          1           0       -1.428702    2.150763    0.044314
     27          1           0       -2.561755    2.303934    1.382345
     28          1           0       -4.052643    3.750711   -0.039191
     29          1           0       -2.913151    3.596670   -1.384825
     30          1           0       -2.429942    4.450187    0.090752
     31          6           0       -2.772183   -0.260830    0.340233
     32          6           0       -3.548365   -1.471834   -0.178414
     33          6           0       -3.041045   -2.792121    0.402329
     34          1           0       -1.707829   -0.384594    0.096866
     35          1           0       -2.840763   -0.231336    1.436304
     36          1           0       -3.478089   -1.498340   -1.273391
     37          1           0       -4.611143   -1.345169    0.064641
     38          1           0       -3.126693   -2.791075    1.493779
     39          1           0       -1.987202   -2.945117    0.148145
     40          1           0       -3.609902   -3.644592    0.018202
 ---------------------------------------------------------------------

 SCF Done:  E(RHF) =  -470.733341131     A.U. after   11 cycles
 E2 =    -0.1582954946D+01 EUMP2 =    -0.47231629607741D+03

 The electronic state is 1-A.
 Alpha  occ. eigenvalues --  -11.21644 -11.21629 -11.21591 -11.21559 -11.21448
 Alpha  occ. eigenvalues --  -11.21387 -11.21386 -11.21328 -11.21116 -11.21090
 Alpha  occ. eigenvalues --  -11.21061 -11.20978  -1.08470  -1.08405  -1.03572
 Alpha  occ. eigenvalues --   -1.03494  -0.96032  -0.95936  -0.87062  -0.86942
 Alpha  occ. eigenvalues --   -0.79670  -0.79529  -0.78310  -0.78196  -0.65127
 Alpha  occ. eigenvalues --   -0.65009  -0.61034  -0.60840  -0.59390  -0.59313
 Alpha  occ. eigenvalues --   -0.57685  -0.57519  -0.55415  -0.55145  -0.52723
 Alpha  occ. eigenvalues --   -0.52637  -0.52544  -0.52275  -0.50081  -0.49770
 Alpha  occ. eigenvalues --   -0.48081  -0.47773  -0.46762  -0.46484  -0.45998
 Alpha  occ. eigenvalues --   -0.45768  -0.45734  -0.45435  -0.43822  -0.43756
 Alpha virt. eigenvalues --    0.20913   0.23093   0.23464   0.24647   0.25276
 Alpha virt. eigenvalues --    0.26652   0.26996   0.27143   0.28544   0.29560
 Alpha virt. eigenvalues --    0.30430   0.31394   0.31768   0.31852   0.32043

 Mulliken charges:
               1
     1  C   -0.300063
     2  C   -0.299553
     3  C   -0.482030
     4  H    0.150942
     5  H    0.149218
     6  H    0.152351
     7  H    0.152178
     8  H    0.154929
     9  H    0.160991
    10  H    0.161133
    11  C   -0.298265
    12  C   -0.299823
    13  C   -0.475726
    14  H    0.149808
    15  H    0.149850
    16  H    0.152111
    17  H    0.151796
    18  H    0.155216
    19  H    0.155312
    20  H    0.160370
    21  C   -0.298092
    22  C   -0.299959
    23  C   -0.475647
    24  H    0.149790
    25  H    0.149586
    26  H    0.152247
    27  H    0.151619
    28  H    0.155142
    29  H    0.155255
    30  H    0.160171
    31  C   -0.301281
    32  C   -0.298955
    33  C   -0.483450
    34  H    0.151747
    35  H    0.149127
    36  H    0.151913
    37  H    0.151685
    38  H    0.154257
    39  H    0.163939
    40  H    0.160160
 Sum of Mulliken charges =  -0.00000

 Dipole moment (field-independent basis, Debye):
    X=              0.0353    Y=             -0.0130    Z=             -0.0037  Tot=              0.0378
 Quadrupole moment (field-independent basis, Debye-Ang):
   XX=            -85.0808   YY=            -86.2609   ZZ=            -83.4090
   XY=             -0.4642   XZ=             -1.0667   YZ=              0.3855

 Normal termination of Gaussian 16 at Wed May  5 22:56:43 2021.
