 Gaussian 16, Revision A.03,
 Gaussian 16:  EM64L-G16RevA.03 25-Dec-2016

 -------------
 #p 6-31g* mp2
 -------------

 ------------------------------------------------------
 Input file generated by CHIRIPA (05-May-2021 14:51:08)
 ------------------------------------------------------
 Symbolic Z-matrix:
 Charge =  0 Multiplicity = 1

                         Standard orientation:
 ---------------------------------------------------------------------
 Center     Atomic      Atomic             Coordinates (Angstroms)
 Number     Number       Type             X           Y           Z
 ---------------------------------------------------------------------
      1          6           0       -2.514461   -1.215105   -0.429252
      2          6           0       -1.230968   -2.045323   -0.466258
      3          6           0       -1.374931   -3.319514   -1.299028
      4          1           0       -3.329650   -1.829812   -0.023609
      5          1           0       -2.802601   -0.952256   -1.456521
      6          1           0       -0.944576   -2.305357    0.560863
      7          1           0       -0.418696   -1.428508   -0.871682
      8          1           0       -1.637450   -3.075953   -2.333612
      9          1           0       -2.166318   -3.957785   -0.892927
     10          1           0       -0.445807   -3.897808   -1.311920
     11          6           0       -2.386294    0.061851    0.399412
     12          6           0       -3.669786    0.892069    0.436417
     13          6           0       -3.525824    2.166260    1.269187
     14          1           0       -2.098153   -0.200998    1.426680
     15          1           0       -1.571104    0.676558   -0.006232
     16          1           0       -4.482059    0.275254    0.841841
     17          1           0       -3.956179    1.152104   -0.590704
     18          1           0       -2.734437    2.804531    0.863086
     19          1           0       -3.263305    1.922700    2.303771
     20          1           0       -4.454947    2.744554    1.282080
     21          6           0        2.789581    0.160165    0.557997
     22          6           0        2.732565   -1.344581    0.292527
     23          6           0        3.415361   -2.164374    1.387755
     24          1           0        3.839502    0.470385    0.649519
     25          1           0        2.315279    0.372878    1.526081
     26          1           0        3.205602   -1.554231   -0.675408
     27          1           0        1.682665   -1.651220    0.201436
     28          1           0        2.939224   -1.984481    2.357050
     29          1           0        4.470814   -1.886941    1.475224
     30          1           0        3.362856   -3.237247    1.177890
     31          6           0        2.111174    0.993089   -0.528157
     32          6           0        2.168189    2.497834   -0.262686
     33          6           0        1.485394    3.317627   -1.357914
     34          1           0        2.585476    0.780375   -1.496240
     35          1           0        1.061253    0.682869   -0.619678
     36          1           0        3.218089    2.804474   -0.171596
     37          1           0        1.695153    2.707485    0.705249
     38          1           0        0.429941    3.040193   -1.445383
     39          1           0        1.961530    3.137734   -2.327209
     40          1           0        1.537899    4.390501   -1.148049
 ---------------------------------------------------------------------

 SCF Done:  E(RHF) =  -470.732626094     A.U. after   11 cycles
 E2 =    -0.1584596886D+01 EUMP2 =    -0.47231722298031D+03

 The electronic state is 1-A.
 Alpha  occ. eigenvalues --  -11.21666 -11.21650 -11.21608 -11.21487 -11.21467
 Alpha  occ. eigenvalues --  -11.21422 -11.21383 -11.21311 -11.21124 -11.21115
 Alpha  occ. eigenvalues --  -11.21110 -11.21018  -1.08523  -1.08390  -1.03608
 Alpha  occ. eigenvalues --   -1.03491  -0.96042  -0.95960  -0.87059  -0.86975
 Alpha  occ. eigenvalues --   -0.79755  -0.79508  -0.78485  -0.78069  -0.65266
 Alpha  occ. eigenvalues --   -0.64919  -0.61021  -0.60898  -0.59457  -0.59279
 Alpha  occ. eigenvalues --   -0.57685  -0.57541  -0.55335  -0.55244  -0.52738
 Alpha  occ. eigenvalues --   -0.52649  -0.52470  -0.52383  -0.49992  -0.49903
 Alpha  occ. eigenvalues --   -0.48198  -0.47780  -0.46796  -0.46574  -0.46412
 Alpha  occ. eigenvalues --   -0.45775  -0.45718  -0.44940  -0.43840  -0.43749
 Alpha virt. eigenvalues --    0.20047   0.22643   0.23620   0.24279   0.25522
 Alpha virt. eigenvalues --    0.26669   0.26925   0.27146   0.28091   0.29898
 Alpha virt. eigenvalues --    0.31077   0.31500   0.31583   0.31716   0.32300

 Mulliken charges:
               1
     1  C   -0.297029
     2  C   -0.308792
     3  C   -0.476038
     4  H    0.149961
     5  H    0.149687
     6  H    0.151927
     7  H    0.160127
     8  H    0.155495
     9  H    0.155408
    10  H    0.161060
    11  C   -0.303067
    12  C   -0.299541
    13  C   -0.475871
    14  H    0.149412
    15  H    0.152696
    16  H    0.152386
    17  H    0.152220
    18  H    0.155192
    19  H    0.155186
    20  H    0.160664
    21  C   -0.297186
    22  C   -0.309914
    23  C   -0.475113
    24  H    0.149335
    25  H    0.149395
    26  H    0.150582
    27  H    0.164465
    28  H    0.154653
    29  H    0.154804
    30  H    0.159644
    31  C   -0.307196
    32  C   -0.299318
    33  C   -0.476069
    34  H    0.149176
    35  H    0.157071
    36  H    0.152262
    37  H    0.152342
    38  H    0.154020
    39  H    0.155368
    40  H    0.160596
 Sum of Mulliken charges =  -0.00000

 Dipole moment (field-independent basis, Debye):
    X=             -0.0503    Y=             -0.0152    Z=             -0.0085  Tot=              0.0532
 Quadrupole moment (field-independent basis, Debye-Ang):
   XX=            -84.2147   YY=            -85.9612   ZZ=            -84.6546
   XY=              0.6518   XZ=             -1.0335   YZ=             -0.4340

 Normal termination of Gaussian 16 at Wed May  5 18:07:24 2021.
