 Gaussian 16, Revision A.03,
 Gaussian 16:  EM64L-G16RevA.03 25-Dec-2016

 -------------
 #p 6-31g* mp2
 -------------

 ------------------------------------------------------
 Input file generated by CHIRIPA (05-May-2021 14:53:15)
 ------------------------------------------------------
 Symbolic Z-matrix:
 Charge =  0 Multiplicity = 1

                         Standard orientation:
 ---------------------------------------------------------------------
 Center     Atomic      Atomic             Coordinates (Angstroms)
 Number     Number       Type             X           Y           Z
 ---------------------------------------------------------------------
      1          6           0       -2.749553    1.045122   -0.626704
      2          6           0       -2.598189    2.283393    0.257467
      3          6           0       -1.949958    3.457909   -0.476088
      4          1           0       -1.760541    0.745552   -0.999608
      5          1           0       -3.350891    1.304461   -1.509049
      6          1           0       -1.998479    2.021444    1.138572
      7          1           0       -3.587653    2.579938    0.628464
      8          1           0       -2.549360    3.747348   -1.345308
      9          1           0       -0.951157    3.185681   -0.832302
     10          1           0       -1.851431    4.332488    0.174499
     11          6           0       -3.396021   -0.137474    0.092513
     12          6           0       -3.547385   -1.375745   -0.791659
     13          6           0       -4.195616   -2.550261   -0.058103
     14          1           0       -2.794684   -0.396812    0.974857
     15          1           0       -4.385033    0.162097    0.465416
     16          1           0       -2.557921   -1.672289   -1.162656
     17          1           0       -4.147096   -1.113796   -1.672764
     18          1           0       -5.194417   -2.278032    0.298111
     19          1           0       -3.596214   -2.839699    0.811117
     20          1           0       -4.294143   -3.424840   -0.708690
     21          6           0        0.286406   -0.800989    1.511256
     22          6           0        0.434051   -1.315101    0.218812
     23          6           0        1.601154   -1.074058   -0.512158
     24          6           0        2.605008   -0.311390    0.082740
     25          6           0        2.487689    0.214529    1.368404
     26          6           0        1.311887   -0.039158    2.080922
     27          1           0       -0.623607   -0.993149    2.071924
     28          1           0       -0.360700   -1.907086   -0.226126
     29          1           0        1.741736   -1.459982   -1.514514
     30          1           0        3.297340    0.801104    1.785312
     31          1           0        1.199979    0.361376    3.084463
     32          7           0        3.845173   -0.049515   -0.681339
     33          8           0        4.714876    0.625387   -0.134751
     34          8           0        3.924027   -0.524121   -1.812342
 ---------------------------------------------------------------------

 SCF Done:  E(RHF) =  -669.534978040     A.U. after   15 cycles
 E2 =    -0.2093832576D+01 EUMP2 =    -0.67162881061600D+03

 The electronic state is 1-A.
 Alpha  occ. eigenvalues --  -20.60818 -20.60813 -15.85872 -11.31266 -11.27837
 Alpha  occ. eigenvalues --  -11.27833 -11.27581 -11.26856 -11.26837 -11.22639
 Alpha  occ. eigenvalues --  -11.22339 -11.22141 -11.22047 -11.21978 -11.21424
 Alpha  occ. eigenvalues --   -1.59893  -1.39445  -1.19446  -1.09243  -1.08820
 Alpha  occ. eigenvalues --   -1.04851  -1.04271  -0.96702  -0.95663  -0.87715
 Alpha  occ. eigenvalues --   -0.86246  -0.82499  -0.80367  -0.79013  -0.77537
 Alpha  occ. eigenvalues --   -0.72090  -0.71217  -0.70576  -0.66041  -0.65088
 Alpha  occ. eigenvalues --   -0.64732  -0.62248  -0.61597  -0.60086  -0.58310
 Alpha  occ. eigenvalues --   -0.56050  -0.55336  -0.53389  -0.53188  -0.53087
 Alpha  occ. eigenvalues --   -0.52935  -0.50640  -0.48861  -0.48843  -0.48654
 Alpha  occ. eigenvalues --   -0.47421  -0.46540  -0.46441  -0.44845  -0.44522
 Alpha  occ. eigenvalues --   -0.37397  -0.36432
 Alpha virt. eigenvalues --    0.04967   0.11087   0.16335   0.18614   0.23145
 Alpha virt. eigenvalues --    0.23528   0.24673   0.25614   0.27323   0.28362
 Alpha virt. eigenvalues --    0.29582   0.30045   0.31032   0.31293   0.31776

 Mulliken charges:
               1
     1  C   -0.300962
     2  C   -0.299225
     3  C   -0.476631
     4  H    0.153825
     5  H    0.152025
     6  H    0.148083
     7  H    0.152051
     8  H    0.156482
     9  H    0.158860
    10  H    0.161079
    11  C   -0.299810
    12  C   -0.303912
    13  C   -0.475723
    14  H    0.139487
    15  H    0.153968
    16  H    0.144785
    17  H    0.158819
    18  H    0.159787
    19  H    0.149108
    20  H    0.163817
    21  C   -0.173062
    22  C   -0.222203
    23  C   -0.173451
    24  C    0.158803
    25  C   -0.170621
    26  C   -0.219330
    27  H    0.228027
    28  H    0.231759
    29  H    0.276268
    30  H    0.276021
    31  H    0.224100
    32  N    0.488044
    33  O   -0.460151
    34  O   -0.460114
 Sum of Mulliken charges =  -0.00000

 Dipole moment (field-independent basis, Debye):
    X=             -4.4337    Y=             -0.8539    Z=              2.6218  Tot=              5.2212
 Quadrupole moment (field-independent basis, Debye-Ang):
   XX=           -116.2746   YY=            -93.9966   ZZ=            -91.6645
   XY=             -0.6538   XZ=              9.0450   YZ=              1.6768

 Normal termination of Gaussian 16 at Thu May  6 01:08:19 2021.
