 Gaussian 16, Revision A.03,
 Gaussian 16:  EM64L-G16RevA.03 25-Dec-2016

 -------------
 #p 6-31g* mp2
 -------------

 ------------------------------------------------------
 Input file generated by CHIRIPA (05-May-2021 14:53:13)
 ------------------------------------------------------
 Symbolic Z-matrix:
 Charge =  0 Multiplicity = 1

                         Standard orientation:
 ---------------------------------------------------------------------
 Center     Atomic      Atomic             Coordinates (Angstroms)
 Number     Number       Type             X           Y           Z
 ---------------------------------------------------------------------
      1          6           0        3.700303   -0.578896    0.168721
      2          6           0        4.988423   -1.362134    0.424203
      3          6           0        4.741595   -2.685869    1.148492
      4          1           0        3.199637   -0.386139    1.127430
      5          1           0        3.013447   -1.199392   -0.423401
      6          1           0        5.673193   -0.739826    1.014490
      7          1           0        5.486179   -1.552881   -0.535209
      8          1           0        4.078418   -3.328777    0.560729
      9          1           0        4.266495   -2.511102    2.119233
     10          1           0        5.675768   -3.229418    1.320934
     11          6           0        3.930721    0.746785   -0.554609
     12          6           0        2.642601    1.530023   -0.810091
     13          6           0        2.889429    2.853758   -1.534381
     14          1           0        4.617577    1.367281    0.037513
     15          1           0        4.431388    0.554029   -1.513318
     16          1           0        2.144845    1.720771    0.149320
     17          1           0        1.957832    0.907715   -1.400379
     18          1           0        3.364530    2.678992   -2.505121
     19          1           0        3.552606    3.496667   -0.946617
     20          1           0        1.955257    3.397308   -1.706823
     21          6           0       -1.852966    1.721323    1.529406
     22          6           0       -3.248917    1.638754    1.497408
     23          6           0       -3.884603    0.652751    0.736983
     24          6           0       -3.089911   -0.238334    0.017453
     25          6           0       -1.697085   -0.181813    0.029037
     26          6           0       -1.082863    0.812379    0.796411
     27          1           0       -1.367486    2.490456    2.122821
     28          1           0       -3.849524    2.343310    2.065666
     29          1           0       -4.963533    0.566111    0.694304
     30          1           0       -1.125093   -0.898300   -0.547928
     31          1           0        0.001436    0.874122    0.819382
     32          7           0       -3.751521   -1.286506   -0.791253
     33          8           0       -3.028836   -2.059605   -1.416296
     34          8           0       -4.980251   -1.315116   -0.784760
 ---------------------------------------------------------------------

 SCF Done:  E(RHF) =  -669.535562688     A.U. after   15 cycles
 E2 =    -0.2091332057D+01 EUMP2 =    -0.67162689474484D+03

 The electronic state is 1-A.
 Alpha  occ. eigenvalues --  -20.60714 -20.60708 -15.85765 -11.31113 -11.27679
 Alpha  occ. eigenvalues --  -11.27659 -11.27409 -11.26700 -11.26615 -11.22602
 Alpha  occ. eigenvalues --  -11.22146 -11.22111 -11.22060 -11.21811 -11.21457
 Alpha  occ. eigenvalues --   -1.59789  -1.39343  -1.19277  -1.09157  -1.08678
 Alpha  occ. eigenvalues --   -1.04675  -1.04202  -0.96614  -0.95518  -0.87635
 Alpha  occ. eigenvalues --   -0.86078  -0.82351  -0.80312  -0.78986  -0.77388
 Alpha  occ. eigenvalues --   -0.71984  -0.71112  -0.70394  -0.65794  -0.64927
 Alpha  occ. eigenvalues --   -0.64680  -0.62051  -0.61581  -0.59993  -0.58237
 Alpha  occ. eigenvalues --   -0.55885  -0.55186  -0.53324  -0.53052  -0.53006
 Alpha  occ. eigenvalues --   -0.52758  -0.50555  -0.48771  -0.48741  -0.48552
 Alpha  occ. eigenvalues --   -0.47339  -0.46489  -0.46415  -0.44753  -0.44460
 Alpha  occ. eigenvalues --   -0.37263  -0.36273
 Alpha virt. eigenvalues --    0.05127   0.11357   0.16608   0.19931   0.22620
 Alpha virt. eigenvalues --    0.23804   0.24801   0.25477   0.27381   0.28321
 Alpha virt. eigenvalues --    0.29425   0.30296   0.30993   0.31377   0.32053

 Mulliken charges:
               1
     1  C   -0.299933
     2  C   -0.300000
     3  C   -0.476497
     4  H    0.145257
     5  H    0.149992
     6  H    0.152703
     7  H    0.154440
     8  H    0.157352
     9  H    0.154805
    10  H    0.162431
    11  C   -0.297769
    12  C   -0.304741
    13  C   -0.475646
    14  H    0.151308
    15  H    0.154081
    16  H    0.143522
    17  H    0.153043
    18  H    0.159764
    19  H    0.156519
    20  H    0.161640
    21  C   -0.173039
    22  C   -0.218387
    23  C   -0.171505
    24  C    0.158904
    25  C   -0.173855
    26  C   -0.224159
    27  H    0.225011
    28  H    0.222976
    29  H    0.275236
    30  H    0.275427
    31  H    0.234472
    32  N    0.488082
    33  O   -0.460733
    34  O   -0.460704
 Sum of Mulliken charges =  -0.00000

 Dipole moment (field-independent basis, Debye):
    X=              2.5672    Y=              3.6901    Z=              2.7666  Tot=              5.2784
 Quadrupole moment (field-independent basis, Debye-Ang):
   XX=           -104.4935   YY=            -97.1039   ZZ=            -94.3117
   XY=            -13.8422   XZ=            -10.4950   YZ=              0.8012

 Normal termination of Gaussian 16 at Thu May  6 17:04:31 2021.
