 Gaussian 16, Revision A.03,
 Gaussian 16:  EM64L-G16RevA.03 25-Dec-2016

 -------------
 #p 6-31g* mp2
 -------------

 ------------------------------------------------------
 Input file generated by CHIRIPA (05-May-2021 14:51:12)
 ------------------------------------------------------
 Symbolic Z-matrix:
 Charge =  0 Multiplicity = 1

                         Standard orientation:
 ---------------------------------------------------------------------
 Center     Atomic      Atomic             Coordinates (Angstroms)
 Number     Number       Type             X           Y           Z
 ---------------------------------------------------------------------
      1          6           0       -3.077775    0.465960    0.329538
      2          6           0       -3.463206    1.498479   -0.730335
      3          6           0       -4.033591    2.781740   -0.125607
      4          1           0       -3.961321    0.225719    0.936642
      5          1           0       -2.340388    0.909762    1.012690
      6          1           0       -4.198613    1.052404   -1.412105
      7          1           0       -2.578684    1.736147   -1.335109
      8          1           0       -3.302317    3.252354    0.539497
      9          1           0       -4.931449    2.564726    0.462063
     10          1           0       -4.302417    3.505952   -0.900919
     11          6           0       -2.505991   -0.822382   -0.259499
     12          6           0       -2.120559   -1.854901    0.800375
     13          6           0       -1.550175   -3.138162    0.195646
     14          1           0       -3.243378   -1.266184   -0.942650
     15          1           0       -1.622444   -0.582142   -0.866603
     16          1           0       -3.005081   -2.092569    1.405149
     17          1           0       -1.385153   -1.408826    1.482145
     18          1           0       -0.652316   -2.921148   -0.392024
     19          1           0       -2.281448   -3.608776   -0.469457
     20          1           0       -1.281348   -3.862374    0.970958
     21          6           0        2.908691   -0.478518   -0.407168
     22          6           0        2.168938   -1.665500    0.210752
     23          6           0        2.412533   -2.972198   -0.544890
     24          1           0        2.594023   -0.362878   -1.453379
     25          1           0        3.985489   -0.696489   -0.426906
     26          1           0        1.093993   -1.444780    0.230585
     27          1           0        2.485260   -1.778208    1.255669
     28          1           0        3.479059   -3.219287   -0.553289
     29          1           0        2.079886   -2.883964   -1.584199
     30          1           0        1.874356   -3.807549   -0.086180
     31          6           0        2.675075    0.834940    0.337129
     32          6           0        3.414828    2.021922   -0.280791
     33          6           0        3.171232    3.328620    0.474850
     34          1           0        1.598276    1.052912    0.356865
     35          1           0        2.989743    0.719301    1.383339
     36          1           0        3.098504    2.134631   -1.325709
     37          1           0        4.489772    1.801201   -0.300624
     38          1           0        3.503879    3.240387    1.514158
     39          1           0        2.104707    3.575710    0.483249
     40          1           0        3.709408    4.163971    0.016140
 ---------------------------------------------------------------------

 SCF Done:  E(RHF) =  -470.732734161     A.U. after   11 cycles
 E2 =    -0.1583888348D+01 EUMP2 =    -0.47231662250878D+03

 The electronic state is 1-A.
 Alpha  occ. eigenvalues --  -11.21642 -11.21636 -11.21613 -11.21605 -11.21451
 Alpha  occ. eigenvalues --  -11.21444 -11.21389 -11.21384 -11.21107 -11.21096
 Alpha  occ. eigenvalues --  -11.21077 -11.21010  -1.08498  -1.08438  -1.03626
 Alpha  occ. eigenvalues --   -1.03493  -0.96075  -0.95938  -0.87066  -0.86976
 Alpha  occ. eigenvalues --   -0.79632  -0.79609  -0.78294  -0.78270  -0.65315
 Alpha  occ. eigenvalues --   -0.64932  -0.61315  -0.60676  -0.59390  -0.59335
 Alpha  occ. eigenvalues --   -0.57670  -0.57575  -0.55496  -0.55054  -0.52767
 Alpha  occ. eigenvalues --   -0.52638  -0.52454  -0.52370  -0.49988  -0.49882
 Alpha  occ. eigenvalues --   -0.48007  -0.47867  -0.46690  -0.46604  -0.45941
 Alpha  occ. eigenvalues --   -0.45805  -0.45735  -0.45607  -0.43851  -0.43770
 Alpha virt. eigenvalues --    0.20002   0.23115   0.23492   0.24844   0.25833
 Alpha virt. eigenvalues --    0.26780   0.26979   0.27641   0.29117   0.29336
 Alpha virt. eigenvalues --    0.30214   0.31265   0.31556   0.32011   0.32303

 Mulliken charges:
               1
     1  C   -0.298356
     2  C   -0.299612
     3  C   -0.475728
     4  H    0.150005
     5  H    0.149519
     6  H    0.152094
     7  H    0.151472
     8  H    0.155200
     9  H    0.155350
    10  H    0.160355
    11  C   -0.299462
    12  C   -0.301706
    13  C   -0.481615
    14  H    0.149994
    15  H    0.148886
    16  H    0.152513
    17  H    0.153145
    18  H    0.163443
    19  H    0.154879
    20  H    0.159716
    21  C   -0.297603
    22  C   -0.307702
    23  C   -0.478152
    24  H    0.149266
    25  H    0.149840
    26  H    0.159099
    27  H    0.152157
    28  H    0.155880
    29  H    0.154517
    30  H    0.163048
    31  C   -0.298341
    32  C   -0.299670
    33  C   -0.475700
    34  H    0.148520
    35  H    0.149872
    36  H    0.151964
    37  H    0.152205
    38  H    0.155281
    39  H    0.154949
    40  H    0.160478
 Sum of Mulliken charges =  -0.00000

 Dipole moment (field-independent basis, Debye):
    X=              0.0088    Y=             -0.0154    Z=              0.0059  Tot=              0.0187
 Quadrupole moment (field-independent basis, Debye-Ang):
   XX=            -83.3703   YY=            -86.5665   ZZ=            -84.7147
   XY=              0.6762   XZ=              0.7033   YZ=             -0.8287

 Normal termination of Gaussian 16 at Wed May  5 16:47:01 2021.
