 Gaussian 16, Revision A.03,
 Gaussian 16:  EM64L-G16RevA.03 25-Dec-2016

 -------------
 #p 6-31g* mp2
 -------------

 ------------------------------------------------------
 Input file generated by CHIRIPA (05-May-2021 14:57:26)
 ------------------------------------------------------
 Symbolic Z-matrix:
 Charge =  0 Multiplicity = 1

                         Standard orientation:
 ---------------------------------------------------------------------
 Center     Atomic      Atomic             Coordinates (Angstroms)
 Number     Number       Type             X           Y           Z
 ---------------------------------------------------------------------
      1          6           0       -2.391253    1.593083    1.619238
      2          6           0       -3.745649    1.839308    1.371234
      3          6           0       -4.481553    0.988580    0.541021
      4          6           0       -3.828364   -0.103976   -0.027272
      5          6           0       -2.480250   -0.375908    0.200616
      6          6           0       -1.763982    0.488209    1.034169
      7          1           0       -1.827211    2.259149    2.265464
      8          1           0       -4.235406    2.696604    1.824253
      9          1           0       -5.531232    1.155717    0.332078
     10          1           0       -2.019542   -1.238551   -0.265231
     11          1           0       -0.712261    0.294526    1.224996
     12          7           0       -4.597039   -1.011690   -0.907949
     13          8           0       -3.998355   -1.967438   -1.396581
     14          8           0       -5.783655   -0.750222   -1.092916
     15          6           0        3.511232    2.211321   -1.229557
     16          6           0        4.767844    1.624645   -1.047184
     17          6           0        4.885294    0.374496   -0.432466
     18          6           0        3.720088   -0.263820   -0.010401
     19          6           0        2.453889    0.294735   -0.177867
     20          6           0        2.360295    1.545668   -0.795083
     21          1           0        3.429260    3.182772   -1.708055
     22          1           0        5.663388    2.139298   -1.383602
     23          1           0        5.845585   -0.102602   -0.278715
     24          1           0        1.579194   -0.242557    0.168029
     25          1           0        1.383080    1.998887   -0.935401
     26          7           0        3.831800   -1.587713    0.641695
     27          8           0        2.790032   -2.129588    1.004638
     28          8           0        4.959012   -2.058436    0.777518
 ---------------------------------------------------------------------

 SCF Done:  E(RHF) =  -868.337165446     A.U. after   16 cycles
 E2 =    -0.2599635737D+01 EUMP2 =    -0.87093680118289D+03

 The electronic state is 1-A.
 Alpha  occ. eigenvalues --  -20.61318 -20.61299 -20.60958 -20.60949 -15.86366
 Alpha  occ. eigenvalues --  -15.86016 -11.31803 -11.31489 -11.28466 -11.28310
 Alpha  occ. eigenvalues --  -11.28095 -11.28083 -11.28065 -11.27882 -11.27411
 Alpha  occ. eigenvalues --  -11.27333 -11.27189 -11.27103  -1.60382  -1.60031
 Alpha  occ. eigenvalues --   -1.39937  -1.39580  -1.19963  -1.19693  -1.09332
 Alpha  occ. eigenvalues --   -1.09069  -1.05388  -1.05117  -0.96167  -0.95877
 Alpha  occ. eigenvalues --   -0.86774  -0.86510  -0.83005  -0.82711  -0.78067
 Alpha  occ. eigenvalues --   -0.77727  -0.72582  -0.72230  -0.71704  -0.71358
 Alpha  occ. eigenvalues --   -0.71076  -0.70791  -0.65620  -0.65412  -0.65343
 Alpha  occ. eigenvalues --   -0.65120  -0.62825  -0.62370  -0.55856  -0.55610
 Alpha  occ. eigenvalues --   -0.53693  -0.53517  -0.53437  -0.53165  -0.49349
 Alpha  occ. eigenvalues --   -0.49331  -0.49001  -0.48977  -0.45327  -0.44961
 Alpha  occ. eigenvalues --   -0.37916  -0.37687  -0.36988  -0.36729
 Alpha virt. eigenvalues --    0.04485   0.04809   0.10658   0.10877   0.15978
 Alpha virt. eigenvalues --    0.16213   0.18660   0.21868   0.24539   0.27190
 Alpha virt. eigenvalues --    0.27969   0.29023   0.30063   0.30994   0.32171

 Mulliken charges:
               1
     1  C   -0.172002
     2  C   -0.218766
     3  C   -0.170098
     4  C    0.158476
     5  C   -0.171404
     6  C   -0.226865
     7  H    0.226446
     8  H    0.224376
     9  H    0.276892
    10  H    0.279099
    11  H    0.224193
    12  N    0.487956
    13  O   -0.458151
    14  O   -0.459953
    15  C   -0.170580
    16  C   -0.217869
    17  C   -0.169966
    18  C    0.161492
    19  C   -0.177870
    20  C   -0.219870
    21  H    0.227644
    22  H    0.225890
    23  H    0.277680
    24  H    0.271011
    25  H    0.223851
    26  N    0.487829
    27  O   -0.462334
    28  O   -0.457109
 Sum of Mulliken charges =  -0.00000

 Dipole moment (field-independent basis, Debye):
    X=              2.3896    Y=              7.8769    Z=              0.7455  Tot=              8.2651
 Quadrupole moment (field-independent basis, Debye-Ang):
   XX=           -118.7763   YY=           -107.3185   ZZ=           -106.2728
   XY=              2.7253   XZ=            -22.1375   YZ=              0.5156

 Normal termination of Gaussian 16 at Wed May  5 21:12:34 2021.
