 Gaussian 16, Revision A.03,
 Gaussian 16:  EM64L-G16RevA.03 25-Dec-2016

 -------------
 #p 6-31g* mp2
 -------------

 ------------------------------------------------------
 Input file generated by CHIRIPA (05-May-2021 14:53:15)
 ------------------------------------------------------
 Symbolic Z-matrix:
 Charge =  0 Multiplicity = 1

                         Standard orientation:
 ---------------------------------------------------------------------
 Center     Atomic      Atomic             Coordinates (Angstroms)
 Number     Number       Type             X           Y           Z
 ---------------------------------------------------------------------
      1          6           0        3.211236    1.050706   -0.232232
      2          6           0        1.835764    1.591699    0.159418
      3          6           0        1.764838    3.118226    0.109635
      4          1           0        3.970199    1.476518    0.438293
      5          1           0        3.459085    1.397374   -1.245043
      6          1           0        1.589981    1.242971    1.170653
      7          1           0        1.079963    1.164400   -0.511996
      8          1           0        1.984449    3.481374   -0.899570
      9          1           0        2.497365    3.560391    0.792639
     10          1           0        0.772870    3.483497    0.393249
     11          6           0        3.297862   -0.473828   -0.187301
     12          6           0        4.673333   -1.014821   -0.578951
     13          6           0        4.744260   -2.541348   -0.529168
     14          1           0        3.050012   -0.820496    0.825510
     15          1           0        2.538899   -0.899641   -0.857826
     16          1           0        5.429134   -0.587522    0.092463
     17          1           0        4.919116   -0.666093   -1.590186
     18          1           0        4.011732   -2.983513   -1.212172
     19          1           0        4.524648   -2.904496    0.480037
     20          1           0        5.736227   -2.906619   -0.812782
     21          6           0       -3.663513   -0.123327   -2.094240
     22          6           0       -2.851054    0.932370   -1.667704
     23          6           0       -2.225012    0.886587   -0.418494
     24          6           0       -2.434252   -0.235205    0.382187
     25          6           0       -3.237909   -1.302898   -0.014623
     26          6           0       -3.854012   -1.235631   -1.267795
     27          1           0       -4.145978   -0.079417   -3.066195
     28          1           0       -2.701312    1.797456   -2.307430
     29          1           0       -1.590901    1.689865   -0.063439
     30          1           0       -3.368232   -2.152027    0.645235
     31          1           0       -4.484441   -2.056967   -1.596444
     32          7           0       -1.776751   -0.295046    1.706766
     33          8           0       -1.977087   -1.294517    2.393469
     34          8           0       -1.073513    0.658654    2.033187
 ---------------------------------------------------------------------

 SCF Done:  E(RHF) =  -669.535862099     A.U. after   15 cycles
 E2 =    -0.2092266333D+01 EUMP2 =    -0.67162812843202D+03

 The electronic state is 1-A.
 Alpha  occ. eigenvalues --  -20.60870 -20.60857 -15.85896 -11.31236 -11.27803
 Alpha  occ. eigenvalues --  -11.27786 -11.27544 -11.26817 -11.26805 -11.21272
 Alpha  occ. eigenvalues --  -11.20993 -11.20960 -11.20907 -11.20777 -11.20775
 Alpha  occ. eigenvalues --   -1.59926  -1.39481  -1.19407  -1.08808  -1.08007
 Alpha  occ. eigenvalues --   -1.04806  -1.03138  -0.95671  -0.95601  -0.86638
 Alpha  occ. eigenvalues --   -0.86204  -0.82485  -0.79196  -0.77858  -0.77471
 Alpha  occ. eigenvalues --   -0.72125  -0.71236  -0.70518  -0.65064  -0.64824
 Alpha  occ. eigenvalues --   -0.64626  -0.62167  -0.60529  -0.58978  -0.57219
 Alpha  occ. eigenvalues --   -0.55310  -0.54916  -0.53137  -0.52897  -0.52325
 Alpha  occ. eigenvalues --   -0.52041  -0.49562  -0.48892  -0.48881  -0.47528
 Alpha  occ. eigenvalues --   -0.46212  -0.45473  -0.45295  -0.44662  -0.43389
 Alpha  occ. eigenvalues --   -0.37384  -0.36398
 Alpha virt. eigenvalues --    0.04963   0.11177   0.16444   0.20701   0.23216
 Alpha virt. eigenvalues --    0.23942   0.26516   0.27065   0.27674   0.28085
 Alpha virt. eigenvalues --    0.29272   0.30488   0.31545   0.31630   0.32294

 Mulliken charges:
               1
     1  C   -0.298280
     2  C   -0.305151
     3  C   -0.477676
     4  H    0.149807
     5  H    0.144781
     6  H    0.177483
     7  H    0.140591
     8  H    0.149353
     9  H    0.157893
    10  H    0.157356
    11  C   -0.298696
    12  C   -0.299241
    13  C   -0.475544
    14  H    0.155418
    15  H    0.146481
    16  H    0.152156
    17  H    0.149656
    18  H    0.153512
    19  H    0.157184
    20  H    0.158851
    21  C   -0.170481
    22  C   -0.220492
    23  C   -0.172329
    24  C    0.157367
    25  C   -0.170562
    26  C   -0.218635
    27  H    0.225783
    28  H    0.224105
    29  H    0.281434
    30  H    0.275678
    31  H    0.223620
    32  N    0.488893
    33  O   -0.459788
    34  O   -0.460527
 Sum of Mulliken charges =  -0.00000

 Dipole moment (field-independent basis, Debye):
    X=             -2.4070    Y=              0.1513    Z=             -4.4721  Tot=              5.0809
 Quadrupole moment (field-independent basis, Debye-Ang):
   XX=            -83.4210   YY=            -92.5443   ZZ=            -97.8434
   XY=              2.4593   XZ=             11.1199   YZ=              0.5380

 Normal termination of Gaussian 16 at Thu May  6 12:08:41 2021.
