 Gaussian 16, Revision A.03,
 Gaussian 16:  EM64L-G16RevA.03 25-Dec-2016

 -------------
 #p 6-31g* mp2
 -------------

 ------------------------------------------------------
 Input file generated by CHIRIPA (05-May-2021 14:53:15)
 ------------------------------------------------------
 Symbolic Z-matrix:
 Charge =  0 Multiplicity = 1

                         Standard orientation:
 ---------------------------------------------------------------------
 Center     Atomic      Atomic             Coordinates (Angstroms)
 Number     Number       Type             X           Y           Z
 ---------------------------------------------------------------------
      1          6           0       -4.255773   -0.001303    0.194049
      2          6           0       -4.362957   -1.382977   -0.452072
      3          6           0       -5.807100   -1.783352   -0.755299
      4          1           0       -4.843238    0.008930    1.122340
      5          1           0       -4.711587    0.743871   -0.472543
      6          1           0       -3.905841   -2.125127    0.214917
      7          1           0       -3.775013   -1.389980   -1.378835
      8          1           0       -6.270494   -1.065029   -1.439314
      9          1           0       -6.402065   -1.804352    0.163492
     10          1           0       -5.860512   -2.774329   -1.216789
     11          6           0       -2.818248    0.413050    0.503179
     12          6           0       -2.711063    1.794724    1.149300
     13          6           0       -1.266921    2.195100    1.452527
     14          1           0       -2.362433   -0.332124    1.169771
     15          1           0       -2.230783    0.402817   -0.425112
     16          1           0       -3.299007    1.801727    2.076063
     17          1           0       -3.168180    2.536874    0.482311
     18          1           0       -0.671956    2.216099    0.533736
     19          1           0       -0.803527    1.476776    2.136542
     20          1           0       -1.213508    3.186076    1.914017
     21          6           0        1.556126    1.729075   -1.428602
     22          6           0        2.874162    1.902560   -0.993623
     23          6           0        3.552774    0.862302   -0.351832
     24          6           0        2.879993   -0.343549   -0.160573
     25          6           0        1.567048   -0.547169   -0.582477
     26          6           0        0.907919    0.506919   -1.222005
     27          1           0        1.036532    2.542543   -1.926282
     28          1           0        3.380062    2.850609   -1.152722
     29          1           0        4.573371    0.969454   -0.004961
     30          1           0        1.089012   -1.503745   -0.409673
     31          1           0       -0.115662    0.369341   -1.558754
     32          7           0        3.588097   -1.452144    0.517665
     33          8           0        2.973197   -2.504779    0.674169
     34          8           0        4.744601   -1.247434    0.879920
 ---------------------------------------------------------------------

 SCF Done:  E(RHF) =  -669.534341134     A.U. after   15 cycles
 E2 =    -0.2093255493D+01 EUMP2 =    -0.67162759662649D+03

 The electronic state is 1-A.
 Alpha  occ. eigenvalues --  -20.60764 -20.60759 -15.85817 -11.31191 -11.27749
 Alpha  occ. eigenvalues --  -11.27733 -11.27497 -11.26781 -11.26747 -11.22173
 Alpha  occ. eigenvalues --  -11.22122 -11.22108 -11.21932 -11.21469 -11.21452
 Alpha  occ. eigenvalues --   -1.59839  -1.39392  -1.19364  -1.09028  -1.08763
 Alpha  occ. eigenvalues --   -1.04767  -1.04037  -0.96487  -0.95595  -0.87498
 Alpha  occ. eigenvalues --   -0.86176  -0.82426  -0.80109  -0.78875  -0.77458
 Alpha  occ. eigenvalues --   -0.72036  -0.71161  -0.70477  -0.65724  -0.65018
 Alpha  occ. eigenvalues --   -0.64745  -0.62134  -0.61420  -0.59852  -0.58116
 Alpha  occ. eigenvalues --   -0.55819  -0.55270  -0.53295  -0.53150  -0.52919
 Alpha  occ. eigenvalues --   -0.52682  -0.50418  -0.48802  -0.48790  -0.48398
 Alpha  occ. eigenvalues --   -0.47147  -0.46378  -0.46305  -0.44796  -0.44322
 Alpha  occ. eigenvalues --   -0.37292  -0.36316
 Alpha virt. eigenvalues --    0.05033   0.11188   0.16458   0.19910   0.22780
 Alpha virt. eigenvalues --    0.24050   0.24886   0.26381   0.27240   0.28450
 Alpha virt. eigenvalues --    0.29127   0.30624   0.31194   0.31527   0.31648

 Mulliken charges:
               1
     1  C   -0.298056
     2  C   -0.299923
     3  C   -0.475993
     4  H    0.153069
     5  H    0.149321
     6  H    0.154458
     7  H    0.147524
     8  H    0.155171
     9  H    0.157014
    10  H    0.162117
    11  C   -0.300406
    12  C   -0.300325
    13  C   -0.479048
    14  H    0.153571
    15  H    0.138661
    16  H    0.155292
    17  H    0.149989
    18  H    0.154267
    19  H    0.159077
    20  H    0.160031
    21  C   -0.172618
    22  C   -0.217984
    23  C   -0.171067
    24  C    0.158818
    25  C   -0.172798
    26  C   -0.217444
    27  H    0.225764
    28  H    0.223620
    29  H    0.275631
    30  H    0.276072
    31  H    0.228954
    32  N    0.488027
    33  O   -0.460375
    34  O   -0.460410
 Sum of Mulliken charges =  -0.00000

 Dipole moment (field-independent basis, Debye):
    X=             -2.5454    Y=              3.8684    Z=             -2.3137  Tot=              5.1766
 Quadrupole moment (field-independent basis, Debye-Ang):
   XX=           -106.5588   YY=            -96.2775   ZZ=            -93.8821
   XY=             14.7633   XZ=             -6.6578   YZ=             -0.0807

 Normal termination of Gaussian 16 at Thu May  6 05:53:20 2021.
