 Gaussian 16, Revision A.03,
 Gaussian 16:  EM64L-G16RevA.03 25-Dec-2016

 -------------
 #p 6-31g* mp2
 -------------

 ------------------------------------------------------
 Input file generated by CHIRIPA (05-May-2021 14:53:17)
 ------------------------------------------------------
 Symbolic Z-matrix:
 Charge =  0 Multiplicity = 1

                         Standard orientation:
 ---------------------------------------------------------------------
 Center     Atomic      Atomic             Coordinates (Angstroms)
 Number     Number       Type             X           Y           Z
 ---------------------------------------------------------------------
      1          6           0        2.790868    1.142230   -0.505269
      2          6           0        1.998320    1.952272    0.521223
      3          6           0        1.708461    3.378488    0.052517
      4          1           0        3.736584    1.658682   -0.719379
      5          1           0        2.230427    1.111957   -1.449930
      6          1           0        2.559444    1.979842    1.464088
      7          1           0        1.054466    1.433734    0.733057
      8          1           0        1.127999    3.368471   -0.875688
      9          1           0        2.641528    3.917682   -0.140504
     10          1           0        1.141023    3.939690    0.801467
     11          6           0        3.088415   -0.285686   -0.051123
     12          6           0        3.880963   -1.095728   -1.077614
     13          6           0        4.170821   -2.521944   -0.608908
     14          1           0        3.648856   -0.255413    0.893538
     15          1           0        2.142699   -0.802138    0.162988
     16          1           0        4.824817   -0.577190   -1.289449
     17          1           0        3.319839   -1.123298   -2.020479
     18          1           0        3.237755   -3.061138   -0.415888
     19          1           0        4.751284   -2.511927    0.319296
     20          1           0        4.738260   -3.083145   -1.357859
     21          6           0       -0.946458   -0.923974    2.265676
     22          6           0       -1.414759   -1.935758    1.420982
     23          6           0       -2.163778   -1.620834    0.283291
     24          6           0       -2.427121   -0.277608    0.019315
     25          6           0       -1.974480    0.753064    0.841581
     26          6           0       -1.227319    0.414847    1.973795
     27          1           0       -0.365324   -1.177662    3.147334
     28          1           0       -1.198164   -2.976367    1.645179
     29          1           0       -2.538620   -2.384176   -0.387694
     30          1           0       -2.206459    1.781307    0.591939
     31          1           0       -0.864920    1.202704    2.628008
     32          7           0       -3.219091    0.068118   -1.182208
     33          8           0       -3.437533    1.259174   -1.392693
     34          8           0       -3.606399   -0.858506   -1.890726
 ---------------------------------------------------------------------

 SCF Done:  E(RHF) =  -669.535167247     A.U. after   15 cycles
 E2 =    -0.2093116325D+01 EUMP2 =    -0.67162828357156D+03

 The electronic state is 1-A.
 Alpha  occ. eigenvalues --  -20.60853 -20.60848 -15.85908 -11.31305 -11.27868
 Alpha  occ. eigenvalues --  -11.27861 -11.27613 -11.26904 -11.26873 -11.21833
 Alpha  occ. eigenvalues --  -11.21817 -11.21657 -11.21576 -11.21374 -11.21355
 Alpha  occ. eigenvalues --   -1.59929  -1.39481  -1.19489  -1.08876  -1.08679
 Alpha  occ. eigenvalues --   -1.04901  -1.03800  -0.96254  -0.95696  -0.87268
 Alpha  occ. eigenvalues --   -0.86281  -0.82532  -0.79874  -0.78514  -0.77566
 Alpha  occ. eigenvalues --   -0.72124  -0.71254  -0.70570  -0.65331  -0.65129
 Alpha  occ. eigenvalues --   -0.64879  -0.62242  -0.61200  -0.59635  -0.57877
 Alpha  occ. eigenvalues --   -0.55538  -0.55369  -0.53292  -0.52973  -0.52933
 Alpha  occ. eigenvalues --   -0.52678  -0.50184  -0.48887  -0.48878  -0.48191
 Alpha  occ. eigenvalues --   -0.46901  -0.46043  -0.45952  -0.44878  -0.44049
 Alpha  occ. eigenvalues --   -0.37438  -0.36401
 Alpha virt. eigenvalues --    0.04944   0.11115   0.16368   0.20954   0.22727
 Alpha virt. eigenvalues --    0.23935   0.26407   0.26633   0.27230   0.28118
 Alpha virt. eigenvalues --    0.28612   0.30489   0.31249   0.31744   0.31898

 Mulliken charges:
               1
     1  C   -0.297288
     2  C   -0.310665
     3  C   -0.476365
     4  H    0.150044
     5  H    0.152923
     6  H    0.146773
     7  H    0.158928
     8  H    0.160221
     9  H    0.157157
    10  H    0.154537
    11  C   -0.300119
    12  C   -0.299932
    13  C   -0.475390
    14  H    0.146363
    15  H    0.149999
    16  H    0.152816
    17  H    0.154478
    18  H    0.152592
    19  H    0.153909
    20  H    0.161875
    21  C   -0.170145
    22  C   -0.219212
    23  C   -0.171202
    24  C    0.158957
    25  C   -0.171012
    26  C   -0.219306
    27  H    0.227119
    28  H    0.224307
    29  H    0.276073
    30  H    0.276956
    31  H    0.226679
    32  N    0.488021
    33  O   -0.459985
    34  O   -0.460106
 Sum of Mulliken charges =  -0.00000

 Dipole moment (field-independent basis, Debye):
    X=              2.7064    Y=             -1.2600    Z=              4.1950  Tot=              5.1488
 Quadrupole moment (field-independent basis, Debye-Ang):
   XX=           -108.5370   YY=            -90.5479   ZZ=            -94.6888
   XY=              3.1691   XZ=            -10.1529   YZ=              0.2255

 Normal termination of Gaussian 16 at Thu May  6 19:00:13 2021.
