 Gaussian 16, Revision A.03,
 Gaussian 16:  EM64L-G16RevA.03 25-Dec-2016

 -------------
 #p 6-31g* mp2
 -------------

 ------------------------------------------------------
 Input file generated by CHIRIPA (05-May-2021 14:53:14)
 ------------------------------------------------------
 Symbolic Z-matrix:
 Charge =  0 Multiplicity = 1

                         Standard orientation:
 ---------------------------------------------------------------------
 Center     Atomic      Atomic             Coordinates (Angstroms)
 Number     Number       Type             X           Y           Z
 ---------------------------------------------------------------------
      1          6           0       -2.361457    0.087875    0.206218
      2          6           0       -3.774962   -0.490566    0.132770
      3          6           0       -3.917156   -1.803570    0.903222
      4          1           0       -1.649354   -0.649615   -0.188702
      5          1           0       -2.092907    0.248782    1.259492
      6          1           0       -4.041290   -0.649041   -0.920117
      7          1           0       -4.483804    0.248462    0.527734
      8          1           0       -3.677718   -1.657155    1.961444
      9          1           0       -3.232690   -2.559756    0.505367
     10          1           0       -4.935402   -2.199426    0.837397
     11          6           0       -2.203506    1.400487   -0.559176
     12          6           0       -0.790001    1.978929   -0.485728
     13          6           0       -0.647807    3.291932   -1.256181
     14          1           0       -2.472056    1.239581   -1.612450
     15          1           0       -2.915609    2.137978   -0.164256
     16          1           0       -0.081159    1.239901   -0.880692
     17          1           0       -0.523673    2.137403    0.567159
     18          1           0       -1.332273    4.048119   -0.858325
     19          1           0       -0.887245    3.145517   -2.314402
     20          1           0        0.370439    3.687788   -1.190355
     21          6           0        1.363602   -2.129258   -1.809939
     22          6           0        2.124486   -0.969281   -1.988905
     23          6           0        2.363360   -0.104393   -0.916780
     24          6           0        1.823753   -0.431749    0.326181
     25          6           0        1.061637   -1.579947    0.536208
     26          6           0        0.835536   -2.430359   -0.550175
     27          1           0        1.183001   -2.795502   -2.648331
     28          1           0        2.535836   -0.732912   -2.966130
     29          1           0        2.948858    0.800255   -1.027342
     30          1           0        0.664722   -1.788904    1.522217
     31          1           0        0.244251   -3.330517   -0.408254
     32          7           0        2.069876    0.476206    1.468740
     33          8           0        1.583389    0.165290    2.553774
     34          8           0        2.744615    1.481586    1.257610
 ---------------------------------------------------------------------

 SCF Done:  E(RHF) =  -669.533618148     A.U. after   15 cycles
 E2 =    -0.2096610971D+01 EUMP2 =    -0.67163022911866D+03

 The electronic state is 1-A.
 Alpha  occ. eigenvalues --  -20.60833 -20.60822 -15.85864 -11.31198 -11.27825
 Alpha  occ. eigenvalues --  -11.27814 -11.27621 -11.26876 -11.26864 -11.21666
 Alpha  occ. eigenvalues --  -11.21311 -11.21287 -11.21249 -11.21200 -11.20827
 Alpha  occ. eigenvalues --   -1.59894  -1.39449  -1.19468  -1.08845  -1.08342
 Alpha  occ. eigenvalues --   -1.04878  -1.03469  -0.95928  -0.95672  -0.86954
 Alpha  occ. eigenvalues --   -0.86254  -0.82507  -0.79567  -0.78215  -0.77533
 Alpha  occ. eigenvalues --   -0.72098  -0.71195  -0.70560  -0.65123  -0.64986
 Alpha  occ. eigenvalues --   -0.64858  -0.62207  -0.60896  -0.59310  -0.57543
 Alpha  occ. eigenvalues --   -0.55369  -0.55233  -0.53401  -0.52945  -0.52569
 Alpha  occ. eigenvalues --   -0.52370  -0.49899  -0.48859  -0.48851  -0.47899
 Alpha  occ. eigenvalues --   -0.46612  -0.45654  -0.45481  -0.44843  -0.43693
 Alpha  occ. eigenvalues --   -0.37351  -0.36372
 Alpha virt. eigenvalues --    0.04961   0.11085   0.16394   0.20960   0.23128
 Alpha virt. eigenvalues --    0.24050   0.26540   0.26781   0.27827   0.27889
 Alpha virt. eigenvalues --    0.28689   0.30324   0.31236   0.31739   0.32392

 Mulliken charges:
               1
     1  C   -0.308136
     2  C   -0.298578
     3  C   -0.474878
     4  H    0.151369
     5  H    0.154350
     6  H    0.149716
     7  H    0.153827
     8  H    0.157771
     9  H    0.146360
    10  H    0.160997
    11  C   -0.295439
    12  C   -0.313811
    13  C   -0.475385
    14  H    0.145899
    15  H    0.150447
    16  H    0.156651
    17  H    0.160042
    18  H    0.156417
    19  H    0.150327
    20  H    0.163456
    21  C   -0.171388
    22  C   -0.216357
    23  C   -0.176409
    24  C    0.163522
    25  C   -0.168357
    26  C   -0.219633
    27  H    0.226273
    28  H    0.224167
    29  H    0.276037
    30  H    0.276931
    31  H    0.224550
    32  N    0.490726
    33  O   -0.460907
    34  O   -0.460560
 Sum of Mulliken charges =  -0.00000

 Dipole moment (field-independent basis, Debye):
    X=             -0.7336    Y=             -3.1778    Z=             -3.9406  Tot=              5.1152
 Quadrupole moment (field-independent basis, Debye-Ang):
   XX=            -97.2856   YY=            -91.2695   ZZ=            -95.6649
   XY=             -4.1452   XZ=             -9.8398   YZ=             -0.1864

 Normal termination of Gaussian 16 at Thu May  6 04:12:03 2021.
