 Gaussian 16, Revision A.03,
 Gaussian 16:  EM64L-G16RevA.03 25-Dec-2016

 -------------
 #p 6-31g* mp2
 -------------

 ------------------------------------------------------
 Input file generated by CHIRIPA (05-May-2021 14:55:24)
 ------------------------------------------------------
 Symbolic Z-matrix:
 Charge =  0 Multiplicity = 1

                         Standard orientation:
 ---------------------------------------------------------------------
 Center     Atomic      Atomic             Coordinates (Angstroms)
 Number     Number       Type             X           Y           Z
 ---------------------------------------------------------------------
      1          6           0        5.370028    0.088019    0.378124
      2          6           0        4.935852   -0.509882   -0.809532
      3          6           0        3.573946   -0.727808   -1.038156
      4          6           0        2.669585   -0.333679   -0.053228
      5          6           0        3.071040    0.264365    1.140283
      6          6           0        4.437880    0.472556    1.347532
      7          1           0        6.429906    0.253528    0.547421
      8          1           0        5.657517   -0.809537   -1.564152
      9          1           0        3.210356   -1.188618   -1.948581
     10          1           0        2.327906    0.552350    1.873928
     11          1           0        4.772189    0.937110    2.270826
     12          7           0        1.225184   -0.559235   -0.283947
     13          8           0        0.448485   -0.202951    0.599477
     14          8           0        0.897112   -1.088038   -1.343839
     15          6           0       -3.119340    0.836801    0.126226
     16          6           0       -3.275685    2.208906   -0.530182
     17          6           0       -2.062366    3.112332   -0.307758
     18          1           0       -2.952097    0.969844    1.203851
     19          1           0       -2.219260    0.348088   -0.271781
     20          1           0       -4.175967    2.694310   -0.132073
     21          1           0       -3.442766    2.072573   -1.606338
     22          1           0       -1.158803    2.652557   -0.721013
     23          1           0       -1.896169    3.277826    0.761630
     24          1           0       -2.195400    4.088046   -0.785404
     25          6           0       -4.324217   -0.077749   -0.087308
     26          6           0       -4.167872   -1.449853    0.569099
     27          6           0       -5.381190   -2.353280    0.346676
     28          1           0       -5.224297    0.410964    0.310699
     29          1           0       -4.491460   -0.210792   -1.164933
     30          1           0       -4.000791   -1.313521    1.645256
     31          1           0       -3.267590   -1.935258    0.170991
     32          1           0       -5.547388   -2.518774   -0.722712
     33          1           0       -6.284755   -1.893505    0.759930
     34          1           0       -5.248157   -3.328994    0.824322
 ---------------------------------------------------------------------

 SCF Done:  E(RHF) =  -669.536462187     A.U. after   15 cycles
 E2 =    -0.2091481374D+01 EUMP2 =    -0.67162794356066D+03

 The electronic state is 1-A.
 Alpha  occ. eigenvalues --  -20.61072 -20.61043 -15.86066 -11.31350 -11.27907
 Alpha  occ. eigenvalues --  -11.27901 -11.27637 -11.26903 -11.26893 -11.20335
 Alpha  occ. eigenvalues --  -11.20284 -11.20045 -11.20021 -11.19968 -11.19586
 Alpha  occ. eigenvalues --   -1.60110  -1.39665  -1.19513  -1.08926  -1.07021
 Alpha  occ. eigenvalues --   -1.04901  -1.02288  -0.95774  -0.94736  -0.86304
 Alpha  occ. eigenvalues --   -0.85764  -0.82607  -0.78341  -0.77667  -0.76773
 Alpha  occ. eigenvalues --   -0.72274  -0.71416  -0.70621  -0.65167  -0.64905
 Alpha  occ. eigenvalues --   -0.63655  -0.62248  -0.59699  -0.58110  -0.56344
 Alpha  occ. eigenvalues --   -0.55410  -0.54029  -0.53236  -0.52993  -0.51507
 Alpha  occ. eigenvalues --   -0.51174  -0.49129  -0.49048  -0.48651  -0.46664
 Alpha  occ. eigenvalues --   -0.45379  -0.45087  -0.44356  -0.44071  -0.42481
 Alpha  occ. eigenvalues --   -0.37489  -0.36500
 Alpha virt. eigenvalues --    0.04851   0.11156   0.16355   0.21293   0.24218
 Alpha virt. eigenvalues --    0.25451   0.27217   0.28032   0.28180   0.28875
 Alpha virt. eigenvalues --    0.29300   0.30891   0.32402   0.32527   0.32933

 Mulliken charges:
               1
     1  C   -0.170408
     2  C   -0.218603
     3  C   -0.170671
     4  C    0.157983
     5  C   -0.170535
     6  C   -0.218558
     7  H    0.226225
     8  H    0.223992
     9  H    0.275845
    10  H    0.276246
    11  H    0.224106
    12  N    0.488165
    13  O   -0.457717
    14  O   -0.460225
    15  C   -0.306219
    16  C   -0.298728
    17  C   -0.473160
    18  H    0.145526
    19  H    0.179428
    20  H    0.145504
    21  H    0.148959
    22  H    0.158148
    23  H    0.152033
    24  H    0.152941
    25  C   -0.297528
    26  C   -0.299607
    27  C   -0.474952
    28  H    0.142592
    29  H    0.146766
    30  H    0.149353
    31  H    0.161342
    32  H    0.153500
    33  H    0.151416
    34  H    0.156842
 Sum of Mulliken charges =  -0.00000

 Dipole moment (field-independent basis, Debye):
    X=              5.5313    Y=              0.6497    Z=              0.8097  Tot=              5.6279
 Quadrupole moment (field-independent basis, Debye-Ang):
   XX=            -70.0496   YY=            -96.5658   ZZ=            -90.3760
   XY=             -0.5053   XZ=              0.5837   YZ=              2.2432

 Normal termination of Gaussian 16 at Thu May  6 00:01:05 2021.
