 Gaussian 16, Revision A.03,
 Gaussian 16:  EM64L-G16RevA.03 25-Dec-2016

 -------------
 #p 6-31g* mp2
 -------------

 ------------------------------------------------------
 Input file generated by CHIRIPA (05-May-2021 14:51:12)
 ------------------------------------------------------
 Symbolic Z-matrix:
 Charge =  0 Multiplicity = 1

                         Standard orientation:
 ---------------------------------------------------------------------
 Center     Atomic      Atomic             Coordinates (Angstroms)
 Number     Number       Type             X           Y           Z
 ---------------------------------------------------------------------
      1          6           0       -5.329595   -0.631171   -0.119767
      2          6           0       -6.727913   -0.153849    0.273749
      3          6           0       -7.803035   -1.215045    0.037593
      4          1           0       -5.333063   -0.922262   -1.179106
      5          1           0       -5.084307   -1.536633    0.452394
      6          1           0       -6.969935    0.751234   -0.297974
      7          1           0       -6.721067    0.136320    1.332225
      8          1           0       -7.588732   -2.116860    0.620177
      9          1           0       -7.839013   -1.498452   -1.019283
     10          1           0       -8.794825   -0.852779    0.325648
     11          6           0       -4.243979    0.418659    0.110500
     12          6           0       -2.845660   -0.058663   -0.283016
     13          6           0       -1.770539    1.002533   -0.046860
     14          1           0       -4.489266    1.324121   -0.461661
     15          1           0       -4.240510    0.709750    1.169839
     16          1           0       -2.852506   -0.348832   -1.341491
     17          1           0       -2.603639   -0.963746    0.288707
     18          1           0       -1.734560    1.285941    1.010016
     19          1           0       -1.984842    1.904348   -0.629444
     20          1           0       -0.778748    0.640267   -0.334915
     21          6           0        5.510233   -0.033247    0.206117
     22          6           0        6.001322   -1.418018   -0.217230
     23          6           0        7.450370   -1.682269    0.192924
     24          1           0        6.163292    0.731459   -0.236245
     25          1           0        5.607511    0.065202    1.296182
     26          1           0        5.901855   -1.514332   -1.306013
     27          1           0        5.346904   -2.179509    0.226035
     28          1           0        7.561762   -1.613367    1.279867
     29          1           0        8.119866   -0.944410   -0.260885
     30          1           0        7.780895   -2.677742   -0.119560
     31          6           0        4.063340    0.245758   -0.196851
     32          6           0        3.572252    1.630530    0.226497
     33          6           0        2.123203    1.894780   -0.183657
     34          1           0        3.966062    0.147310   -1.286915
     35          1           0        3.410281   -0.518947    0.245512
     36          1           0        4.226669    2.392021   -0.216768
     37          1           0        3.671719    1.726844    1.315279
     38          1           0        1.453708    1.156923    0.270152
     39          1           0        2.011811    1.825879   -1.270600
     40          1           0        1.792678    2.890254    0.128827
 ---------------------------------------------------------------------

 SCF Done:  E(RHF) =  -470.733046026     A.U. after   11 cycles
 E2 =    -0.1582200762D+01 EUMP2 =    -0.47231524678806D+03

 The electronic state is 1-A.
 Alpha  occ. eigenvalues --  -11.21594 -11.21582 -11.21563 -11.21548 -11.21392
 Alpha  occ. eigenvalues --  -11.21373 -11.21332 -11.21313 -11.21065 -11.21056
 Alpha  occ. eigenvalues --  -11.20996 -11.20960  -1.08414  -1.08394  -1.03521
 Alpha  occ. eigenvalues --   -1.03475  -0.96001  -0.95895  -0.87058  -0.86873
 Alpha  occ. eigenvalues --   -0.79642  -0.79484  -0.78232  -0.78203  -0.65046
 Alpha  occ. eigenvalues --   -0.65025  -0.60931  -0.60875  -0.59348  -0.59312
 Alpha  occ. eigenvalues --   -0.57672  -0.57453  -0.55286  -0.55192  -0.52880
 Alpha  occ. eigenvalues --   -0.52607  -0.52384  -0.52156  -0.49931  -0.49827
 Alpha  occ. eigenvalues --   -0.47967  -0.47779  -0.46627  -0.46563  -0.45770
 Alpha  occ. eigenvalues --   -0.45750  -0.45697  -0.45676  -0.43787  -0.43666
 Alpha virt. eigenvalues --    0.22588   0.22980   0.23666   0.24733   0.26456
 Alpha virt. eigenvalues --    0.26688   0.26857   0.27512   0.27645   0.28917
 Alpha virt. eigenvalues --    0.30636   0.31430   0.31651   0.31820   0.32078

 Mulliken charges:
               1
     1  C   -0.298174
     2  C   -0.299587
     3  C   -0.475674
     4  H    0.149581
     5  H    0.149374
     6  H    0.151903
     7  H    0.151872
     8  H    0.155121
     9  H    0.155149
    10  H    0.160179
    11  C   -0.298447
    12  C   -0.299574
    13  C   -0.479750
    14  H    0.149472
    15  H    0.149462
    16  H    0.151720
    17  H    0.151302
    18  H    0.154294
    19  H    0.155175
    20  H    0.166555
    21  C   -0.298221
    22  C   -0.299637
    23  C   -0.475695
    24  H    0.149671
    25  H    0.149508
    26  H    0.151893
    27  H    0.151882
    28  H    0.155168
    29  H    0.155178
    30  H    0.160214
    31  C   -0.298294
    32  C   -0.299911
    33  C   -0.478263
    34  H    0.149385
    35  H    0.149295
    36  H    0.151663
    37  H    0.151756
    38  H    0.159080
    39  H    0.154581
    40  H    0.160794
 Sum of Mulliken charges =  -0.00000

 Dipole moment (field-independent basis, Debye):
    X=              0.0106    Y=              0.0131    Z=             -0.0030  Tot=              0.0171
 Quadrupole moment (field-independent basis, Debye-Ang):
   XX=            -86.7552   YY=            -85.0720   ZZ=            -83.1351
   XY=             -0.1756   XZ=             -0.4717   YZ=             -0.7042

 Normal termination of Gaussian 16 at Wed May  5 19:55:54 2021.
