 Gaussian 16, Revision A.03,
 Gaussian 16:  EM64L-G16RevA.03 25-Dec-2016

 -------------
 #p 6-31g* mp2
 -------------

 ------------------------------------------------------
 Input file generated by CHIRIPA (05-May-2021 14:57:20)
 ------------------------------------------------------
 Symbolic Z-matrix:
 Charge =  0 Multiplicity = 1

                         Standard orientation:
 ---------------------------------------------------------------------
 Center     Atomic      Atomic             Coordinates (Angstroms)
 Number     Number       Type             X           Y           Z
 ---------------------------------------------------------------------
      1          6           0        2.458267    1.883177    0.572087
      2          6           0        2.191782    0.929934   -0.416262
      3          6           0        3.112689   -0.085779   -0.689767
      4          6           0        4.295320   -0.118415    0.047532
      5          6           0        4.589632    0.816832    1.038483
      6          6           0        3.654233    1.823689    1.295031
      7          1           0        1.737256    2.668767    0.777966
      8          1           0        1.263806    0.973670   -0.979283
      9          1           0        2.931804   -0.836537   -1.449413
     10          1           0        5.523397    0.747277    1.583151
     11          1           0        3.863853    2.562650    2.063172
     12          7           0        5.277914   -1.189017   -0.233039
     13          8           0        6.312457   -1.195854    0.430520
     14          8           0        4.994923   -2.001045   -1.111198
     15          6           0       -2.520735    1.636204   -1.039748
     16          6           0       -3.814086    2.026962   -0.677712
     17          6           0       -4.716010    1.096740   -0.152574
     18          6           0       -4.289281   -0.221826   -0.002320
     19          6           0       -3.007360   -0.641930   -0.353722
     20          6           0       -2.122202    0.305351   -0.876885
     21          1           0       -1.826610    2.365448   -1.446922
     22          1           0       -4.126335    3.059835   -0.803082
     23          1           0       -5.723171    1.372090    0.135913
     24          1           0       -2.725002   -1.678757   -0.217039
     25          1           0       -1.118385   -0.000964   -1.157188
     26          7           0       -5.235232   -1.215641    0.552575
     27          8           0       -4.834879   -2.371213    0.675066
     28          8           0       -6.359112   -0.820201    0.854503
 ---------------------------------------------------------------------

 SCF Done:  E(RHF) =  -868.336312891     A.U. after   16 cycles
 E2 =    -0.2599678496D+01 EUMP2 =    -0.87093599138684D+03

 The electronic state is 1-A.
 Alpha  occ. eigenvalues --  -20.61251 -20.61244 -20.61231 -20.61226 -15.86312
 Alpha  occ. eigenvalues --  -15.86291 -11.31814 -11.31814 -11.28472 -11.28421
 Alpha  occ. eigenvalues --  -11.28390 -11.28381 -11.28273 -11.28225 -11.27599
 Alpha  occ. eigenvalues --  -11.27566 -11.27454 -11.27405  -1.60323  -1.60303
 Alpha  occ. eigenvalues --   -1.39873  -1.39852  -1.20024  -1.20017  -1.09412
 Alpha  occ. eigenvalues --   -1.09388  -1.05472  -1.05438  -0.96207  -0.96195
 Alpha  occ. eigenvalues --   -0.86913  -0.86805  -0.83055  -0.83017  -0.78095
 Alpha  occ. eigenvalues --   -0.78002  -0.72528  -0.72507  -0.71649  -0.71629
 Alpha  occ. eigenvalues --   -0.71172  -0.71126  -0.65753  -0.65682  -0.65666
 Alpha  occ. eigenvalues --   -0.65286  -0.62928  -0.62666  -0.56022  -0.55949
 Alpha  occ. eigenvalues --   -0.53798  -0.53753  -0.53706  -0.53399  -0.49306
 Alpha  occ. eigenvalues --   -0.49274  -0.49272  -0.49250  -0.45249  -0.45222
 Alpha  occ. eigenvalues --   -0.38053  -0.37992  -0.37083  -0.37018
 Alpha virt. eigenvalues --    0.04500   0.04512   0.10444   0.10685   0.15894
 Alpha virt. eigenvalues --    0.15963   0.17784   0.21979   0.24590   0.26774
 Alpha virt. eigenvalues --    0.27811   0.28750   0.29694   0.31066   0.31774

 Mulliken charges:
               1
     1  C   -0.169906
     2  C   -0.220026
     3  C   -0.170813
     4  C    0.159183
     5  C   -0.169302
     6  C   -0.218203
     7  H    0.224858
     8  H    0.214286
     9  H    0.275544
    10  H    0.278150
    11  H    0.225913
    12  N    0.488108
    13  O   -0.458222
    14  O   -0.459484
    15  C   -0.172694
    16  C   -0.218203
    17  C   -0.170021
    18  C    0.159274
    19  C   -0.169672
    20  C   -0.220465
    21  H    0.220486
    22  H    0.224905
    23  H    0.277814
    24  H    0.278870
    25  H    0.218714
    26  N    0.487852
    27  O   -0.458139
    28  O   -0.458807
 Sum of Mulliken charges =  -0.00000

 Dipole moment (field-independent basis, Debye):
    X=             -0.1264    Y=              7.2183    Z=             -0.8207  Tot=              7.2660
 Quadrupole moment (field-independent basis, Debye-Ang):
   XX=           -157.7123   YY=           -104.8339   ZZ=           -103.4557
   XY=             -0.6254   XZ=             14.8389   YZ=              2.5169

 Normal termination of Gaussian 16 at Thu May  6 01:40:48 2021.
