 Gaussian 16, Revision A.03,
 Gaussian 16:  EM64L-G16RevA.03 25-Dec-2016

 -------------
 #p 6-31g* mp2
 -------------

 ------------------------------------------------------
 Input file generated by CHIRIPA (05-May-2021 14:57:21)
 ------------------------------------------------------
 Symbolic Z-matrix:
 Charge =  0 Multiplicity = 1

                         Standard orientation:
 ---------------------------------------------------------------------
 Center     Atomic      Atomic             Coordinates (Angstroms)
 Number     Number       Type             X           Y           Z
 ---------------------------------------------------------------------
      1          6           0       -2.099839    2.711299    0.172353
      2          6           0       -3.202782    2.017017    0.680298
      3          6           0       -3.380613    0.660068    0.394615
      4          6           0       -2.431826    0.025843   -0.405917
      5          6           0       -1.322505    0.690187   -0.926824
      6          6           0       -1.164868    2.046840   -0.628175
      7          1           0       -1.969540    3.765295    0.399314
      8          1           0       -3.930488    2.530474    1.302271
      9          1           0       -4.225270    0.098412    0.774765
     10          1           0       -0.613905    0.151262   -1.543966
     11          1           0       -0.307343    2.583496   -1.024023
     12          7           0       -2.609397   -1.410542   -0.715220
     13          8           0       -1.759320   -1.946427   -1.422914
     14          8           0       -3.595293   -1.973296   -0.244100
     15          6           0        0.679635   -1.628927    1.592090
     16          6           0        1.593137   -2.259117    0.740681
     17          6           0        2.552099   -1.512043    0.050160
     18          6           0        2.569125   -0.130482    0.235337
     19          6           0        1.672477    0.526496    1.076581
     20          6           0        0.722145   -0.240580    1.757032
     21          1           0       -0.061958   -2.217040    2.124591
     22          1           0        1.562465   -3.337170    0.610657
     23          1           0        3.271210   -1.974233   -0.615180
     24          1           0        1.727736    1.602794    1.185883
     25          1           0        0.013956    0.251526    2.417596
     26          7           0        3.579768    0.670998   -0.490356
     27          8           0        3.573929    1.886769   -0.310065
     28          8           0        4.358612    0.068253   -1.225704
 ---------------------------------------------------------------------

 SCF Done:  E(RHF) =  -868.337863935     A.U. after   16 cycles
 E2 =    -0.2604082704D+01 EUMP2 =    -0.87094194663918D+03

 The electronic state is 1-A.
 Alpha  occ. eigenvalues --  -20.61323 -20.61297 -20.61072 -20.61029 -15.86350
 Alpha  occ. eigenvalues --  -15.86096 -11.31594 -11.31304 -11.28244 -11.28127
 Alpha  occ. eigenvalues --  -11.27927 -11.27842 -11.27734 -11.27409 -11.27208
 Alpha  occ. eigenvalues --  -11.27064 -11.26784 -11.26688  -1.60392  -1.60134
 Alpha  occ. eigenvalues --   -1.39943  -1.39691  -1.19819  -1.19420  -1.09215
 Alpha  occ. eigenvalues --   -1.08836  -1.05208  -1.04755  -0.96060  -0.95706
 Alpha  occ. eigenvalues --   -0.86580  -0.86177  -0.82885  -0.82531  -0.77942
 Alpha  occ. eigenvalues --   -0.77624  -0.72574  -0.72307  -0.71737  -0.71470
 Alpha  occ. eigenvalues --   -0.70897  -0.70483  -0.65443  -0.65159  -0.65053
 Alpha  occ. eigenvalues --   -0.64747  -0.62516  -0.62131  -0.55684  -0.55242
 Alpha  occ. eigenvalues --   -0.54010  -0.53253  -0.52864  -0.52674  -0.49335
 Alpha  occ. eigenvalues --   -0.49326  -0.49082  -0.49047  -0.45370  -0.45129
 Alpha  occ. eigenvalues --   -0.38005  -0.37436  -0.37218  -0.35585
 Alpha virt. eigenvalues --    0.04300   0.05118   0.10535   0.11519   0.16011
 Alpha virt. eigenvalues --    0.16508   0.20864   0.21632   0.26541   0.27493
 Alpha virt. eigenvalues --    0.27845   0.28448   0.30435   0.31227   0.31930

 Mulliken charges:
               1
     1  C   -0.174232
     2  C   -0.221467
     3  C   -0.174675
     4  C    0.155094
     5  C   -0.162679
     6  C   -0.225960
     7  H    0.228301
     8  H    0.224113
     9  H    0.275075
    10  H    0.278934
    11  H    0.232489
    12  N    0.486677
    13  O   -0.459082
    14  O   -0.462765
    15  C   -0.174652
    16  C   -0.209054
    17  C   -0.173089
    18  C    0.153453
    19  C   -0.175147
    20  C   -0.215495
    21  H    0.230684
    22  H    0.229942
    23  H    0.276719
    24  H    0.269040
    25  H    0.223475
    26  N    0.487785
    27  O   -0.466111
    28  O   -0.457372
 Sum of Mulliken charges =  -0.00000

 Dipole moment (field-independent basis, Debye):
    X=             -2.9163    Y=              2.0280    Z=              3.5845  Tot=              5.0464
 Quadrupole moment (field-independent basis, Debye-Ang):
   XX=           -123.4969   YY=           -100.6409   ZZ=           -103.3079
   XY=            -21.4081   XZ=             -0.6568   YZ=             -1.3095

 Normal termination of Gaussian 16 at Thu May  6 21:04:35 2021.
