 Gaussian 16, Revision A.03,
 Gaussian 16:  EM64L-G16RevA.03 25-Dec-2016

 -------------
 #p 6-31g* mp2
 -------------

 ------------------------------------------------------
 Input file generated by CHIRIPA (05-May-2021 14:57:25)
 ------------------------------------------------------
 Symbolic Z-matrix:
 Charge =  0 Multiplicity = 1

                         Standard orientation:
 ---------------------------------------------------------------------
 Center     Atomic      Atomic             Coordinates (Angstroms)
 Number     Number       Type             X           Y           Z
 ---------------------------------------------------------------------
      1          6           0        5.184763    0.907426   -1.217041
      2          6           0        4.898603   -0.461538   -1.240910
      3          6           0        3.916995   -0.996450   -0.401348
      4          6           0        3.237863   -0.129597    0.453424
      5          6           0        3.500166    1.238715    0.500433
      6          6           0        4.485863    1.751695   -0.347978
      7          1           0        5.948888    1.314440   -1.872670
      8          1           0        5.439786   -1.119585   -1.914809
      9          1           0        3.675337   -2.052393   -0.399331
     10          1           0        2.943926    1.869655    1.183024
     11          1           0        4.705990    2.815256   -0.327293
     12          7           0        2.196514   -0.684275    1.346915
     13          8           0        1.612349    0.100559    2.090840
     14          8           0        1.984189   -1.893362    1.286390
     15          6           0       -1.020689   -0.550634   -0.865499
     16          6           0       -1.347196    0.751716   -0.473329
     17          6           0       -2.667463    1.089255   -0.161062
     18          6           0       -3.640430    0.095103   -0.252092
     19          6           0       -3.346606   -1.211299   -0.639739
     20          6           0       -2.019675   -1.526265   -0.947309
     21          1           0        0.007515   -0.804075   -1.106252
     22          1           0       -0.573437    1.511449   -0.408914
     23          1           0       -2.948012    2.089693    0.145264
     24          1           0       -4.139705   -1.947093   -0.694672
     25          1           0       -1.769017   -2.538505   -1.251590
     26          7           0       -5.041665    0.440492    0.076004
     27          8           0       -5.880463   -0.453546   -0.012028
     28          8           0       -5.274622    1.598707    0.414986
 ---------------------------------------------------------------------

 SCF Done:  E(RHF) =  -868.338128540     A.U. after   16 cycles
 E2 =    -0.2600157440D+01 EUMP2 =    -0.87093828597993D+03

 The electronic state is 1-A.
 Alpha  occ. eigenvalues --  -20.61802 -20.61774 -20.60198 -20.60193 -15.86819
 Alpha  occ. eigenvalues --  -15.85248 -11.32178 -11.30502 -11.28717 -11.28708
 Alpha  occ. eigenvalues --  -11.28389 -11.27687 -11.27676 -11.27065 -11.27052
 Alpha  occ. eigenvalues --  -11.26803 -11.26081 -11.26045  -1.60863  -1.59274
 Alpha  occ. eigenvalues --   -1.40414  -1.38832  -1.20326  -1.18659  -1.09713
 Alpha  occ. eigenvalues --   -1.08079  -1.05704  -1.04054  -0.96551  -0.94940
 Alpha  occ. eigenvalues --   -0.87100  -0.85465  -0.83371  -0.81782  -0.78440
 Alpha  occ. eigenvalues --   -0.76839  -0.73022  -0.72255  -0.71473  -0.71389
 Alpha  occ. eigenvalues --   -0.70592  -0.69772  -0.65956  -0.65676  -0.64327
 Alpha  occ. eigenvalues --   -0.64074  -0.63043  -0.61422  -0.56166  -0.54597
 Alpha  occ. eigenvalues --   -0.54051  -0.53774  -0.52359  -0.52168  -0.49795
 Alpha  occ. eigenvalues --   -0.49778  -0.48231  -0.48222  -0.45803  -0.44263
 Alpha  occ. eigenvalues --   -0.38295  -0.37314  -0.36602  -0.35629
 Alpha virt. eigenvalues --    0.04061   0.05700   0.10293   0.12023   0.15565
 Alpha virt. eigenvalues --    0.17221   0.20543   0.21830   0.26423   0.27264
 Alpha virt. eigenvalues --    0.27952   0.28356   0.30388   0.30821   0.32234

 Mulliken charges:
               1
     1  C   -0.170325
     2  C   -0.217853
     3  C   -0.174752
     4  C    0.153190
     5  C   -0.174582
     6  C   -0.218012
     7  H    0.229133
     8  H    0.226420
     9  H    0.276064
    10  H    0.276401
    11  H    0.226691
    12  N    0.486513
    13  O   -0.455846
    14  O   -0.460309
    15  C   -0.165071
    16  C   -0.210952
    17  C   -0.170723
    18  C    0.158534
    19  C   -0.171395
    20  C   -0.215925
    21  H    0.219897
    22  H    0.218534
    23  H    0.273258
    24  H    0.273831
    25  H    0.223103
    26  N    0.488251
    27  O   -0.461873
    28  O   -0.462201
 Sum of Mulliken charges =  -0.00000

 Dipole moment (field-independent basis, Debye):
    X=              8.9237    Y=              0.7321    Z=             -4.2482  Tot=              9.9104
 Quadrupole moment (field-independent basis, Debye-Ang):
   XX=           -117.2643   YY=            -96.9983   ZZ=           -107.6156
   XY=             11.8370   XZ=             -6.1113   YZ=              4.5179

 Normal termination of Gaussian 16 at Fri May  7 08:06:53 2021.
