 Gaussian 16, Revision A.03,
 Gaussian 16:  EM64L-G16RevA.03 25-Dec-2016

 -------------
 #p 6-31g* mp2
 -------------

 ------------------------------------------------------
 Input file generated by CHIRIPA (05-May-2021 14:51:08)
 ------------------------------------------------------
 Symbolic Z-matrix:
 Charge =  0 Multiplicity = 1

                         Standard orientation:
 ---------------------------------------------------------------------
 Center     Atomic      Atomic             Coordinates (Angstroms)
 Number     Number       Type             X           Y           Z
 ---------------------------------------------------------------------
      1          6           0        4.807685   -0.692676    0.069252
      2          6           0        6.330325   -0.680809   -0.070074
      3          6           0        6.960809   -2.043957    0.216475
      4          1           0        4.541308   -1.015207    1.085107
      5          1           0        4.389544   -1.442539   -0.616503
      6          1           0        6.745369    0.069780    0.614740
      7          1           0        6.593112   -0.358085   -1.085657
      8          1           0        6.574512   -2.800025   -0.474710
      9          1           0        6.727634   -2.369729    1.235348
     10          1           0        8.049747   -2.012754    0.111118
     11          6           0        4.162830    0.662904   -0.214106
     12          6           0        2.640190    0.651036   -0.074780
     13          6           0        2.009706    2.014185   -0.361329
     14          1           0        4.580970    1.412766    0.471649
     15          1           0        4.429207    0.985435   -1.229961
     16          1           0        2.377402    0.328312    0.940803
     17          1           0        2.225145   -0.099552   -0.759594
     18          1           0        2.242881    2.339957   -1.380202
     19          1           0        2.396003    2.770253    0.329856
     20          1           0        0.920767    1.982982   -0.255972
     21          6           0       -3.967925    0.486041   -0.233862
     22          6           0       -2.994603    1.067346    0.792156
     23          6           0       -1.965715    2.007984    0.164157
     24          1           0       -3.399760   -0.051960   -1.005023
     25          1           0       -4.486171    1.309326   -0.744761
     26          1           0       -2.479352    0.243178    1.301939
     27          1           0       -3.565164    1.603863    1.561068
     28          1           0       -2.463343    2.849456   -0.328684
     29          1           0       -1.371362    1.481039   -0.589285
     30          1           0       -1.280020    2.412091    0.915410
     31          6           0       -5.002589   -0.456269    0.378716
     32          6           0       -5.975912   -1.037574   -0.647303
     33          6           0       -7.004800   -1.978211   -0.019303
     34          1           0       -4.484344   -1.279553    0.889615
     35          1           0       -5.570754    0.081732    1.149877
     36          1           0       -5.405351   -1.574091   -1.416214
     37          1           0       -6.491163   -0.213405   -1.157085
     38          1           0       -7.599153   -1.451267    0.734139
     39          1           0       -6.507171   -2.819684    0.473538
     40          1           0       -7.690494   -2.382319   -0.770557
 ---------------------------------------------------------------------

 SCF Done:  E(RHF) =  -470.732730658     A.U. after   11 cycles
 E2 =    -0.1582556806D+01 EUMP2 =    -0.47231528746342D+03

 The electronic state is 1-A.
 Alpha  occ. eigenvalues --  -11.21634 -11.21615 -11.21577 -11.21534 -11.21427
 Alpha  occ. eigenvalues --  -11.21367 -11.21363 -11.21300 -11.21116 -11.21081
 Alpha  occ. eigenvalues --  -11.21054 -11.20869  -1.08456  -1.08381  -1.03570
 Alpha  occ. eigenvalues --   -1.03463  -0.96052  -0.95884  -0.87104  -0.86871
 Alpha  occ. eigenvalues --   -0.79664  -0.79502  -0.78266  -0.78197  -0.65089
 Alpha  occ. eigenvalues --   -0.65014  -0.60996  -0.60869  -0.59535  -0.59169
 Alpha  occ. eigenvalues --   -0.57622  -0.57549  -0.55309  -0.55200  -0.52997
 Alpha  occ. eigenvalues --   -0.52467  -0.52422  -0.52202  -0.49924  -0.49855
 Alpha  occ. eigenvalues --   -0.47953  -0.47833  -0.46639  -0.46575  -0.45809
 Alpha  occ. eigenvalues --   -0.45743  -0.45723  -0.45668  -0.43934  -0.43553
 Alpha virt. eigenvalues --    0.22325   0.23024   0.23618   0.24983   0.26586
 Alpha virt. eigenvalues --    0.26689   0.27088   0.27501   0.27569   0.29014
 Alpha virt. eigenvalues --    0.30868   0.31174   0.31463   0.31713   0.32010

 Mulliken charges:
               1
     1  C   -0.298157
     2  C   -0.299594
     3  C   -0.475664
     4  H    0.149441
     5  H    0.149257
     6  H    0.151893
     7  H    0.151898
     8  H    0.155083
     9  H    0.155100
    10  H    0.160171
    11  C   -0.298094
    12  C   -0.298743
    13  C   -0.486522
    14  H    0.149426
    15  H    0.149527
    16  H    0.151239
    17  H    0.150776
    18  H    0.154049
    19  H    0.153870
    20  H    0.173258
    21  C   -0.298805
    22  C   -0.299511
    23  C   -0.480460
    24  H    0.149942
    25  H    0.149645
    26  H    0.152332
    27  H    0.152144
    28  H    0.156081
    29  H    0.157605
    30  H    0.162569
    31  C   -0.298352
    32  C   -0.299669
    33  C   -0.475724
    34  H    0.149621
    35  H    0.149716
    36  H    0.151966
    37  H    0.151965
    38  H    0.155202
    39  H    0.155218
    40  H    0.160303
 Sum of Mulliken charges =  -0.00000

 Dipole moment (field-independent basis, Debye):
    X=             -0.0741    Y=              0.0138    Z=              0.0053  Tot=              0.0755
 Quadrupole moment (field-independent basis, Debye-Ang):
   XX=            -85.5600   YY=            -85.4322   ZZ=            -83.9042
   XY=             -0.5782   XZ=              0.1440   YZ=              0.7685

 Normal termination of Gaussian 16 at Thu May  6 13:12:51 2021.
