 Gaussian 16, Revision A.03,
 Gaussian 16:  EM64L-G16RevA.03 25-Dec-2016

 -------------
 #p 6-31g* mp2
 -------------

 ------------------------------------------------------
 Input file generated by CHIRIPA (05-May-2021 14:51:10)
 ------------------------------------------------------
 Symbolic Z-matrix:
 Charge =  0 Multiplicity = 1

                         Standard orientation:
 ---------------------------------------------------------------------
 Center     Atomic      Atomic             Coordinates (Angstroms)
 Number     Number       Type             X           Y           Z
 ---------------------------------------------------------------------
      1          6           0       -4.048963    0.607730   -0.069740
      2          6           0       -3.609012    2.058011    0.133020
      3          6           0       -4.774552    3.044962    0.060632
      4          1           0       -4.549254    0.515735   -1.043491
      5          1           0       -4.797517    0.349060    0.691936
      6          1           0       -2.860490    2.313439   -0.627959
      7          1           0       -3.109540    2.146524    1.106318
      8          1           0       -5.519774    2.818122    0.829910
      9          1           0       -5.269310    2.985985   -0.914220
     10          1           0       -4.437537    4.075736    0.208235
     11          6           0       -2.894921   -0.390803   -0.000118
     12          6           0       -3.334871   -1.841085   -0.202879
     13          6           0       -2.169331   -2.828035   -0.130491
     14          1           0       -2.146366   -0.132134   -0.761795
     15          1           0       -2.394629   -0.298808    0.973632
     16          1           0       -3.834344   -1.929598   -1.176177
     17          1           0       -4.083393   -2.096512    0.558100
     18          1           0       -1.674573   -2.769058    0.844362
     19          1           0       -1.424109   -2.601195   -0.899768
     20          1           0       -2.506346   -3.858809   -0.278094
     21          6           0        3.362415   -0.862869   -0.013102
     22          6           0        1.919103   -1.284899    0.263893
     23          6           0        1.715822   -2.797017    0.164047
     24          1           0        3.652796   -1.207955   -1.014870
     25          1           0        4.028540   -1.371054    0.697829
     26          1           0        1.255759   -0.775003   -0.446457
     27          1           0        1.632061   -0.938602    1.265043
     28          1           0        2.353870   -3.319856    0.883862
     29          1           0        1.975430   -3.155326   -0.837362
     30          1           0        0.677067   -3.076631    0.365706
     31          6           0        3.581468    0.645943    0.082961
     32          6           0        5.024780    1.067972   -0.194034
     33          6           0        5.228062    2.580090   -0.094188
     34          1           0        2.915344    1.154127   -0.627970
     35          1           0        3.291086    0.991027    1.084729
     36          1           0        5.311823    0.721676   -1.195185
     37          1           0        5.688125    0.558076    0.516316
     38          1           0        4.968452    2.938400    0.907220
     39          1           0        4.590014    3.102929   -0.814004
     40          1           0        6.266815    2.859705   -0.295847
 ---------------------------------------------------------------------

 SCF Done:  E(RHF) =  -470.732692448     A.U. after   11 cycles
 E2 =    -0.1583014455D+01 EUMP2 =    -0.47231570690313D+03

 The electronic state is 1-A.
 Alpha  occ. eigenvalues --  -11.21625 -11.21607 -11.21571 -11.21516 -11.21418
 Alpha  occ. eigenvalues --  -11.21359 -11.21354 -11.21292 -11.21104 -11.21076
 Alpha  occ. eigenvalues --  -11.21049 -11.20853  -1.08448  -1.08369  -1.03568
 Alpha  occ. eigenvalues --   -1.03445  -0.96050  -0.95866  -0.87098  -0.86857
 Alpha  occ. eigenvalues --   -0.79646  -0.79501  -0.78265  -0.78179  -0.65083
 Alpha  occ. eigenvalues --   -0.64998  -0.60972  -0.60837  -0.59448  -0.59272
 Alpha  occ. eigenvalues --   -0.57812  -0.57324  -0.55321  -0.55166  -0.52959
 Alpha  occ. eigenvalues --   -0.52669  -0.52422  -0.51993  -0.49967  -0.49829
 Alpha  occ. eigenvalues --   -0.48016  -0.47698  -0.46649  -0.46563  -0.45810
 Alpha  occ. eigenvalues --   -0.45739  -0.45711  -0.45627  -0.43817  -0.43666
 Alpha virt. eigenvalues --    0.21728   0.23097   0.23523   0.25003   0.25791
 Alpha virt. eigenvalues --    0.26754   0.27028   0.27192   0.28119   0.29337
 Alpha virt. eigenvalues --    0.29931   0.31301   0.31548   0.31781   0.32067

 Mulliken charges:
               1
     1  C   -0.298345
     2  C   -0.299584
     3  C   -0.475728
     4  H    0.149601
     5  H    0.149574
     6  H    0.151896
     7  H    0.152110
     8  H    0.155181
     9  H    0.155141
    10  H    0.160318
    11  C   -0.298442
    12  C   -0.300067
    13  C   -0.479504
    14  H    0.149600
    15  H    0.150086
    16  H    0.151980
    17  H    0.151978
    18  H    0.156077
    19  H    0.158961
    20  H    0.160769
    21  C   -0.298053
    22  C   -0.299436
    23  C   -0.484396
    24  H    0.149357
    25  H    0.149442
    26  H    0.151666
    27  H    0.151099
    28  H    0.153692
    29  H    0.153516
    30  H    0.172058
    31  C   -0.298090
    32  C   -0.299599
    33  C   -0.475647
    34  H    0.149257
    35  H    0.149514
    36  H    0.151820
    37  H    0.151873
    38  H    0.155122
    39  H    0.155073
    40  H    0.160130
 Sum of Mulliken charges =  -0.00000

 Dipole moment (field-independent basis, Debye):
    X=             -0.0630    Y=             -0.0155    Z=              0.0018  Tot=              0.0650
 Quadrupole moment (field-independent basis, Debye-Ang):
   XX=            -85.5292   YY=            -86.6056   ZZ=            -82.7386
   XY=              0.3913   XZ=              0.0447   YZ=             -0.2055

 Normal termination of Gaussian 16 at Thu May  6 02:12:50 2021.
