 Gaussian 16, Revision A.03,
 Gaussian 16:  EM64L-G16RevA.03 25-Dec-2016

 -------------
 #p 6-31g* mp2
 -------------

 ------------------------------------------------------
 Input file generated by CHIRIPA (05-May-2021 14:51:12)
 ------------------------------------------------------
 Symbolic Z-matrix:
 Charge =  0 Multiplicity = 1

                         Standard orientation:
 ---------------------------------------------------------------------
 Center     Atomic      Atomic             Coordinates (Angstroms)
 Number     Number       Type             X           Y           Z
 ---------------------------------------------------------------------
      1          6           0       -2.723803   -0.586198    0.908777
      2          6           0       -1.483031   -1.479676    0.921675
      3          6           0       -1.407942   -2.369144    2.163046
      4          1           0       -2.726061    0.040340    1.811213
      5          1           0       -3.621869   -1.216936    0.963920
      6          1           0       -0.587608   -0.847508    0.865128
      7          1           0       -1.483628   -2.104023    0.019009
      8          1           0       -2.283573   -3.023709    2.221494
      9          1           0       -1.382462   -1.760055    3.072421
     10          1           0       -0.513302   -2.999502    2.151747
     11          6           0       -2.812994    0.308872   -0.325979
     12          6           0       -4.053766    1.202350   -0.338877
     13          6           0       -4.128855    2.091818   -1.580248
     14          1           0       -1.914928    0.939611   -0.381122
     15          1           0       -2.810736   -0.317666   -1.228415
     16          1           0       -4.053169    1.826697    0.563789
     17          1           0       -4.949189    0.570182   -0.282331
     18          1           0       -4.154335    1.482729   -2.489623
     19          1           0       -3.253224    2.746383   -1.638696
     20          1           0       -5.023495    2.722176   -1.568949
     21          6           0        2.550260    0.751044    0.109645
     22          6           0        3.693652    1.723280    0.401875
     23          6           0        3.241539    2.943321    1.204922
     24          1           0        1.758781    1.279994   -0.438734
     25          1           0        2.106224    0.422045    1.059375
     26          1           0        4.136296    2.049277   -0.548077
     27          1           0        4.482585    1.191907    0.949454
     28          1           0        2.818752    2.636204    2.166968
     29          1           0        2.470496    3.498446    0.660927
     30          1           0        4.074621    3.625057    1.402589
     31          6           0        2.986537   -0.473718   -0.692443
     32          6           0        1.843145   -1.445954   -0.984673
     33          6           0        2.295258   -2.665995   -1.787720
     34          1           0        3.430573   -0.144719   -1.642173
     35          1           0        3.778016   -1.002668   -0.144064
     36          1           0        1.054212   -0.914581   -1.532252
     37          1           0        1.400501   -1.771951   -0.034720
     38          1           0        3.066301   -3.221120   -1.243725
     39          1           0        2.718045   -2.358879   -2.749765
     40          1           0        1.462176   -3.347731   -1.985387
 ---------------------------------------------------------------------

 SCF Done:  E(RHF) =  -470.732651290     A.U. after   11 cycles
 E2 =    -0.1583765391D+01 EUMP2 =    -0.47231641668133D+03

 The electronic state is 1-A.
 Alpha  occ. eigenvalues --  -11.21638 -11.21590 -11.21506 -11.21489 -11.21438
 Alpha  occ. eigenvalues --  -11.21375 -11.21352 -11.21309 -11.21109 -11.21071
 Alpha  occ. eigenvalues --  -11.21068 -11.21042  -1.08462  -1.08380  -1.03568
 Alpha  occ. eigenvalues --   -1.03469  -0.95991  -0.95961  -0.87012  -0.86970
 Alpha  occ. eigenvalues --   -0.79774  -0.79442  -0.78424  -0.78013  -0.65106
 Alpha  occ. eigenvalues --   -0.65001  -0.60977  -0.60866  -0.59484  -0.59218
 Alpha  occ. eigenvalues --   -0.57664  -0.57502  -0.55277  -0.55251  -0.52698
 Alpha  occ. eigenvalues --   -0.52643  -0.52420  -0.52380  -0.49935  -0.49902
 Alpha  occ. eigenvalues --   -0.48220  -0.47673  -0.46739  -0.46558  -0.46117
 Alpha  occ. eigenvalues --   -0.45737  -0.45679  -0.45166  -0.43794  -0.43741
 Alpha virt. eigenvalues --    0.21285   0.23191   0.23483   0.24374   0.25023
 Alpha virt. eigenvalues --    0.25945   0.26627   0.27703   0.28348   0.29741
 Alpha virt. eigenvalues --    0.30724   0.31176   0.31506   0.31716   0.32086

 Mulliken charges:
               1
     1  C   -0.297835
     2  C   -0.304424
     3  C   -0.477475
     4  H    0.149288
     5  H    0.148983
     6  H    0.158917
     7  H    0.152226
     8  H    0.155407
     9  H    0.154932
    10  H    0.159759
    11  C   -0.298671
    12  C   -0.299578
    13  C   -0.475661
    14  H    0.149694
    15  H    0.149334
    16  H    0.152017
    17  H    0.151956
    18  H    0.155061
    19  H    0.154922
    20  H    0.160271
    21  C   -0.300210
    22  C   -0.299578
    23  C   -0.475749
    24  H    0.149508
    25  H    0.149949
    26  H    0.152286
    27  H    0.152186
    28  H    0.155045
    29  H    0.154984
    30  H    0.160500
    31  C   -0.298184
    32  C   -0.304173
    33  C   -0.475674
    34  H    0.149341
    35  H    0.149323
    36  H    0.152784
    37  H    0.159069
    38  H    0.154726
    39  H    0.154848
    40  H    0.159892
 Sum of Mulliken charges =  -0.00000

 Dipole moment (field-independent basis, Debye):
    X=              0.0165    Y=              0.0030    Z=             -0.0015  Tot=              0.0169
 Quadrupole moment (field-independent basis, Debye-Ang):
   XX=            -84.6302   YY=            -85.4381   ZZ=            -84.8829
   XY=              0.6064   XZ=              0.4242   YZ=             -0.0108

 Normal termination of Gaussian 16 at Thu May  6 05:29:20 2021.
