 Gaussian 16, Revision A.03,
 Gaussian 16:  EM64L-G16RevA.03 25-Dec-2016

 -------------
 #p 6-31g* mp2
 -------------

 ------------------------------------------------------
 Input file generated by CHIRIPA (05-May-2021 14:51:10)
 ------------------------------------------------------
 Symbolic Z-matrix:
 Charge =  0 Multiplicity = 1

                         Standard orientation:
 ---------------------------------------------------------------------
 Center     Atomic      Atomic             Coordinates (Angstroms)
 Number     Number       Type             X           Y           Z
 ---------------------------------------------------------------------
      1          6           0        3.940332    0.416465   -0.235200
      2          6           0        5.431220    0.301947    0.084366
      3          6           0        6.295441    1.206221   -0.794955
      4          1           0        3.778143    0.165770   -1.292457
      5          1           0        3.624795    1.461504   -0.109799
      6          1           0        5.743544   -0.742820   -0.040262
      7          1           0        5.589854    0.552758    1.141032
      8          1           0        6.012062    2.255598   -0.664169
      9          1           0        6.166625    0.952659   -1.852175
     10          1           0        7.357572    1.108520   -0.549615
     11          6           0        3.063385   -0.481541    0.635591
     12          6           0        1.572497   -0.367023    0.316025
     13          6           0        0.708277   -1.271297    1.195346
     14          1           0        3.378923   -1.526580    0.510189
     15          1           0        3.225575   -0.230846    1.692847
     16          1           0        1.413863   -0.617834   -0.740642
     17          1           0        1.260173    0.677744    0.440652
     18          1           0        0.837093   -1.017735    2.252565
     19          1           0        0.991655   -2.320674    1.064559
     20          1           0       -0.353855   -1.173596    0.950006
     21          6           0       -3.511099    0.759358   -0.434883
     22          6           0       -4.279089    1.690072    0.504237
     23          6           0       -4.288641    3.140735    0.021245
     24          1           0       -2.478481    1.120711   -0.535227
     25          1           0       -3.958813    0.810176   -1.437063
     26          1           0       -3.830922    1.636466    1.504682
     27          1           0       -5.309947    1.326353    0.602509
     28          1           0       -4.754715    3.214793   -0.966626
     29          1           0       -3.267287    3.526668   -0.059328
     30          1           0       -4.843001    3.788660    0.707348
     31          6           0       -3.492618   -0.694282    0.034493
     32          6           0       -2.724628   -1.624996   -0.904628
     33          6           0       -2.715076   -3.075659   -0.421636
     34          1           0       -3.044905   -0.745099    1.036673
     35          1           0       -4.525236   -1.055635    0.134837
     36          1           0       -1.693771   -1.261277   -1.002899
     37          1           0       -3.172795   -1.571390   -1.905073
     38          1           0       -3.736430   -3.461592   -0.341063
     39          1           0       -2.249002   -3.149717    0.566236
     40          1           0       -2.160716   -3.723584   -1.107738
 ---------------------------------------------------------------------

 SCF Done:  E(RHF) =  -470.732942774     A.U. after   11 cycles
 E2 =    -0.1583418918D+01 EUMP2 =    -0.47231636169205D+03

 The electronic state is 1-A.
 Alpha  occ. eigenvalues --  -11.21667 -11.21623 -11.21601 -11.21573 -11.21441
 Alpha  occ. eigenvalues --  -11.21410 -11.21380 -11.21350 -11.21087 -11.21087
 Alpha  occ. eigenvalues --  -11.21071 -11.21033  -1.08479  -1.08424  -1.03602
 Alpha  occ. eigenvalues --   -1.03494  -0.96031  -0.95957  -0.87038  -0.86984
 Alpha  occ. eigenvalues --   -0.79632  -0.79586  -0.78289  -0.78235  -0.65148
 Alpha  occ. eigenvalues --   -0.65082  -0.61125  -0.60918  -0.59340  -0.59280
 Alpha  occ. eigenvalues --   -0.57615  -0.57560  -0.55374  -0.55183  -0.52693
 Alpha  occ. eigenvalues --   -0.52662  -0.52445  -0.52384  -0.49985  -0.49875
 Alpha  occ. eigenvalues --   -0.47988  -0.47849  -0.46691  -0.46587  -0.45829
 Alpha  occ. eigenvalues --   -0.45772  -0.45745  -0.45705  -0.43808  -0.43771
 Alpha virt. eigenvalues --    0.20381   0.23062   0.23827   0.24950   0.26336
 Alpha virt. eigenvalues --    0.26479   0.26680   0.27651   0.28062   0.29104
 Alpha virt. eigenvalues --    0.30776   0.30922   0.31470   0.31778   0.32144

 Mulliken charges:
               1
     1  C   -0.298321
     2  C   -0.299690
     3  C   -0.475733
     4  H    0.149772
     5  H    0.149504
     6  H    0.152016
     7  H    0.151977
     8  H    0.155207
     9  H    0.155244
    10  H    0.160339
    11  C   -0.298436
    12  C   -0.300539
    13  C   -0.484438
    14  H    0.149835
    15  H    0.149865
    16  H    0.152477
    17  H    0.151482
    18  H    0.154991
    19  H    0.155935
    20  H    0.169531
    21  C   -0.298475
    22  C   -0.299688
    23  C   -0.475699
    24  H    0.149901
    25  H    0.149701
    26  H    0.152034
    27  H    0.151970
    28  H    0.155205
    29  H    0.155146
    30  H    0.160241
    31  C   -0.300868
    32  C   -0.305032
    33  C   -0.476606
    34  H    0.150410
    35  H    0.150282
    36  H    0.155277
    37  H    0.152996
    38  H    0.155028
    39  H    0.157163
    40  H    0.159997
 Sum of Mulliken charges =  -0.00000

 Dipole moment (field-independent basis, Debye):
    X=              0.0089    Y=             -0.0053    Z=             -0.0007  Tot=              0.0104
 Quadrupole moment (field-independent basis, Debye-Ang):
   XX=            -84.5813   YY=            -85.7233   ZZ=            -84.4130
   XY=             -0.2693   XZ=              0.7735   YZ=              1.1868

 Normal termination of Gaussian 16 at Thu May  6 00:35:44 2021.
