 Gaussian 16, Revision A.03,
 Gaussian 16:  EM64L-G16RevA.03 25-Dec-2016

 -------------
 #p 6-31g* mp2
 -------------

 ------------------------------------------------------
 Input file generated by CHIRIPA (05-May-2021 14:53:12)
 ------------------------------------------------------
 Symbolic Z-matrix:
 Charge =  0 Multiplicity = 1

                         Standard orientation:
 ---------------------------------------------------------------------
 Center     Atomic      Atomic             Coordinates (Angstroms)
 Number     Number       Type             X           Y           Z
 ---------------------------------------------------------------------
      1          6           0       -5.253107   -0.005199    0.173718
      2          6           0       -6.446687   -0.044159   -0.781182
      3          6           0       -7.732921    0.479366   -0.141401
      4          1           0       -5.487512   -0.598840    1.067915
      5          1           0       -5.099569    1.027705    0.515670
      6          1           0       -6.597071   -1.076453   -1.122312
      7          1           0       -6.209341    0.549487   -1.673296
      8          1           0       -7.606909    1.517304    0.183262
      9          1           0       -7.996842   -0.117874    0.737377
     10          1           0       -8.573376    0.442542   -0.841500
     11          6           0       -3.959925   -0.525415   -0.451409
     12          6           0       -2.766345   -0.486454    0.503491
     13          6           0       -1.480112   -1.009979   -0.136290
     14          1           0       -4.113463   -1.558318   -0.793362
     15          1           0       -3.725521    0.068227   -1.345606
     16          1           0       -3.003691   -1.080101    1.395605
     17          1           0       -2.615961    0.545840    0.844621
     18          1           0       -1.216190   -0.412739   -1.015068
     19          1           0       -1.606123   -2.047918   -0.460953
     20          1           0       -0.639656   -0.973156    0.563809
     21          6           0        1.452117    1.125568    1.064629
     22          6           0        2.209385    1.896907    0.176877
     23          6           0        3.400455    1.398260   -0.359082
     24          6           0        3.806378    0.118493    0.016036
     25          6           0        3.073884   -0.674297    0.898207
     26          6           0        1.886019   -0.155314    1.421831
     27          1           0        0.528111    1.520826    1.476184
     28          1           0        1.874851    2.891988   -0.102309
     29          1           0        4.006110    1.973976   -1.048395
     30          1           0        3.433076   -1.662742    1.157774
     31          1           0        1.299949   -0.756593    2.111056
     32          7           0        5.065614   -0.420165   -0.544831
     33          8           0        5.401525   -1.550598   -0.198530
     34          8           0        5.692848    0.298265   -1.320120
 ---------------------------------------------------------------------

 SCF Done:  E(RHF) =  -669.534363152     A.U. after   15 cycles
 E2 =    -0.2092299802D+01 EUMP2 =    -0.67162666295328D+03

 The electronic state is 1-A.
 Alpha  occ. eigenvalues --  -20.60761 -20.60756 -15.85816 -11.31189 -11.27772
 Alpha  occ. eigenvalues --  -11.27764 -11.27512 -11.26780 -11.26770 -11.22362
 Alpha  occ. eigenvalues --  -11.22024 -11.21970 -11.21876 -11.21678 -11.21442
 Alpha  occ. eigenvalues --   -1.59836  -1.39390  -1.19375  -1.08997  -1.08768
 Alpha  occ. eigenvalues --   -1.04788  -1.04091  -0.96529  -0.95594  -0.87546
 Alpha  occ. eigenvalues --   -0.86183  -0.82431  -0.80162  -0.78796  -0.77478
 Alpha  occ. eigenvalues --   -0.72036  -0.71160  -0.70484  -0.65624  -0.65036
 Alpha  occ. eigenvalues --   -0.64829  -0.62160  -0.61487  -0.59917  -0.58150
 Alpha  occ. eigenvalues --   -0.55808  -0.55269  -0.53577  -0.53003  -0.52916
 Alpha  occ. eigenvalues --   -0.52646  -0.50447  -0.48798  -0.48788  -0.48469
 Alpha  occ. eigenvalues --   -0.47202  -0.46335  -0.46258  -0.44794  -0.44355
 Alpha  occ. eigenvalues --   -0.37286  -0.36352
 Alpha virt. eigenvalues --    0.05056   0.11138   0.16497   0.20261   0.22554
 Alpha virt. eigenvalues --    0.24028   0.25836   0.26472   0.26719   0.27634
 Alpha virt. eigenvalues --    0.28916   0.29841   0.30982   0.31637   0.31829

 Mulliken charges:
               1
     1  C   -0.298387
     2  C   -0.300058
     3  C   -0.475932
     4  H    0.150073
     5  H    0.148250
     6  H    0.153131
     7  H    0.152458
     8  H    0.154953
     9  H    0.155589
    10  H    0.161662
    11  C   -0.298413
    12  C   -0.300403
    13  C   -0.478606
    14  H    0.152054
    15  H    0.150587
    16  H    0.151823
    17  H    0.144587
    18  H    0.157823
    19  H    0.158198
    20  H    0.157014
    21  C   -0.166236
    22  C   -0.219614
    23  C   -0.170513
    24  C    0.158285
    25  C   -0.171943
    26  C   -0.219128
    27  H    0.227077
    28  H    0.223351
    29  H    0.275676
    30  H    0.275832
    31  H    0.223525
    32  N    0.488119
    33  O   -0.460346
    34  O   -0.460490
 Sum of Mulliken charges =  -0.00000

 Dipole moment (field-independent basis, Debye):
    X=             -4.4978    Y=              1.8797    Z=              1.9194  Tot=              5.2390
 Quadrupole moment (field-independent basis, Debye-Ang):
   XX=           -129.7807   YY=            -90.0880   ZZ=            -94.0125
   XY=              8.0622   XZ=              7.5051   YZ=             -2.6742

 Normal termination of Gaussian 16 at Thu May  6 10:26:42 2021.
