 Gaussian 16, Revision A.03,
 Gaussian 16:  EM64L-G16RevA.03 25-Dec-2016

 -------------
 #p 6-31g* mp2
 -------------

 ------------------------------------------------------
 Input file generated by CHIRIPA (05-May-2021 14:57:25)
 ------------------------------------------------------
 Symbolic Z-matrix:
 Charge =  0 Multiplicity = 1

                         Standard orientation:
 ---------------------------------------------------------------------
 Center     Atomic      Atomic             Coordinates (Angstroms)
 Number     Number       Type             X           Y           Z
 ---------------------------------------------------------------------
      1          6           0       -2.679551    2.167136    1.142873
      2          6           0       -3.890800    2.157044    0.443377
      3          6           0       -4.315680    1.004411   -0.224054
      4          6           0       -3.500815   -0.125396   -0.170942
      5          6           0       -2.288823   -0.146635    0.517473
      6          6           0       -1.883831    1.017292    1.177627
      7          1           0       -2.357219    3.066916    1.658522
      8          1           0       -4.510808    3.048567    0.414676
      9          1           0       -5.248805    0.968985   -0.773090
     10          1           0       -1.692277   -1.050758    0.528068
     11          1           0       -0.942679    1.022235    1.720078
     12          7           0       -3.940089   -1.351615   -0.873669
     13          8           0       -3.204034   -2.333967   -0.811669
     14          8           0       -5.012129   -1.307155   -1.473161
     15          6           0        4.438384    1.269087   -1.824968
     16          6           0        4.903003   -0.023641   -1.561328
     17          6           0        4.350776   -0.778430   -0.522152
     18          6           0        3.330778   -0.206805    0.236884
     19          6           0        2.846369    1.078497   -0.001100
     20          6           0        3.413358    1.815067   -1.045388
     21          1           0        4.873101    1.848350   -2.634210
     22          1           0        5.698936   -0.450213   -2.165126
     23          1           0        4.691500   -1.781576   -0.296267
     24          1           0        2.051715    1.476777    0.618024
     25          1           0        3.050541    2.818769   -1.247851
     26          7           0        2.738346   -0.996224    1.339719
     27          8           0        1.840764   -0.469869    1.993886
     28          8           0        3.182798   -2.126377    1.529071
 ---------------------------------------------------------------------

 SCF Done:  E(RHF) =  -868.339242313     A.U. after   16 cycles
 E2 =    -0.2598936364D+01 EUMP2 =    -0.87093817867715D+03

 The electronic state is 1-A.
 Alpha  occ. eigenvalues --  -20.61524 -20.61443 -20.60401 -20.60386 -15.86524
 Alpha  occ. eigenvalues --  -15.85445 -11.31712 -11.30767 -11.28321 -11.28215
 Alpha  occ. eigenvalues --  -11.27946 -11.27374 -11.27253 -11.27232 -11.27194
 Alpha  occ. eigenvalues --  -11.27097 -11.26409 -11.26207  -1.60540  -1.59474
 Alpha  occ. eigenvalues --   -1.40106  -1.39027  -1.19862  -1.18937  -1.09283
 Alpha  occ. eigenvalues --   -1.08354  -1.05244  -1.04307  -0.96152  -0.95192
 Alpha  occ. eigenvalues --   -0.86651  -0.85720  -0.82999  -0.82000  -0.78077
 Alpha  occ. eigenvalues --   -0.77042  -0.72751  -0.71847  -0.71664  -0.70973
 Alpha  occ. eigenvalues --   -0.70798  -0.70063  -0.65523  -0.65248  -0.64580
 Alpha  occ. eigenvalues --   -0.64286  -0.62608  -0.61623  -0.55739  -0.54859
 Alpha  occ. eigenvalues --   -0.53570  -0.53341  -0.52680  -0.52371  -0.49513
 Alpha  occ. eigenvalues --   -0.49466  -0.48425  -0.48415  -0.45547  -0.44440
 Alpha  occ. eigenvalues --   -0.37818  -0.36960  -0.36833  -0.35919
 Alpha virt. eigenvalues --    0.04447   0.05451   0.10818   0.11695   0.15969
 Alpha virt. eigenvalues --    0.16926   0.20370   0.21963   0.25660   0.27227
 Alpha virt. eigenvalues --    0.28708   0.28731   0.30225   0.31277   0.32447

 Mulliken charges:
               1
     1  C   -0.172679
     2  C   -0.218788
     3  C   -0.172275
     4  C    0.158206
     5  C   -0.172862
     6  C   -0.229437
     7  H    0.222674
     8  H    0.220928
     9  H    0.273866
    10  H    0.281981
    11  H    0.240197
    12  N    0.487843
    13  O   -0.458874
    14  O   -0.462694
    15  C   -0.169784
    16  C   -0.218017
    17  C   -0.169652
    18  C    0.158908
    19  C   -0.169774
    20  C   -0.217844
    21  H    0.227680
    22  H    0.225976
    23  H    0.277657
    24  H    0.268537
    25  H    0.223710
    26  N    0.491175
    27  O   -0.473550
    28  O   -0.453108
 Sum of Mulliken charges =  -0.00000

 Dipole moment (field-independent basis, Debye):
    X=              4.0175    Y=              6.9408    Z=             -1.4615  Tot=              8.1517
 Quadrupole moment (field-independent basis, Debye-Ang):
   XX=            -96.7630   YY=           -103.8609   ZZ=           -108.1741
   XY=            -11.4236   XZ=            -21.4389   YZ=              0.3062

 Normal termination of Gaussian 16 at Wed May  5 19:33:34 2021.
