 Gaussian 16, Revision A.03,
 Gaussian 16:  EM64L-G16RevA.03 25-Dec-2016

 -------------
 #p 6-31g* mp2
 -------------

 ------------------------------------------------------
 Input file generated by CHIRIPA (05-May-2021 14:53:15)
 ------------------------------------------------------
 Symbolic Z-matrix:
 Charge =  0 Multiplicity = 1

                         Standard orientation:
 ---------------------------------------------------------------------
 Center     Atomic      Atomic             Coordinates (Angstroms)
 Number     Number       Type             X           Y           Z
 ---------------------------------------------------------------------
      1          6           0        3.507484    0.507090   -0.586436
      2          6           0        3.445052    1.923658   -0.014227
      3          6           0        2.860619    2.934665   -1.001191
      4          1           0        4.110326    0.515695   -1.504832
      5          1           0        2.496206    0.192530   -0.879291
      6          1           0        4.455942    2.234925    0.278740
      7          1           0        2.842447    1.911643    0.903018
      8          1           0        1.842115    2.651019   -1.285437
      9          1           0        3.464778    2.976138   -1.913262
     10          1           0        2.825245    3.940697   -0.571646
     11          6           0        4.089462   -0.514975    0.388456
     12          6           0        4.151893   -1.931543   -0.183752
     13          6           0        4.736326   -2.942550    0.803211
     14          1           0        5.100740   -0.200416    0.681312
     15          1           0        3.486619   -0.523580    1.306853
     16          1           0        4.754498   -1.919529   -1.100997
     17          1           0        3.141003   -2.242810   -0.476719
     18          1           0        4.132168   -2.984023    1.715282
     19          1           0        5.754830   -2.658905    1.087457
     20          1           0        4.771700   -3.948582    0.373666
     21          6           0       -0.844009    1.245536    0.636596
     22          6           0       -0.818729    0.197800   -0.289759
     23          6           0       -1.989267   -0.497593   -0.607278
     24          6           0       -3.172853   -0.117036    0.023268
     25          6           0       -3.230313    0.922400    0.950393
     26          6           0       -2.047598    1.603859    1.252630
     27          1           0        0.070023    1.780321    0.877316
     28          1           0        0.114553   -0.082657   -0.769730
     29          1           0       -1.998172   -1.312639   -1.320747
     30          1           0       -4.175838    1.179025    1.412502
     31          1           0       -2.070216    2.417133    1.972435
     32          7           0       -4.418495   -0.845842   -0.304785
     33          8           0       -5.448418   -0.491195    0.264532
     34          8           0       -4.341319   -1.757926   -1.125019
 ---------------------------------------------------------------------

 SCF Done:  E(RHF) =  -669.535354440     A.U. after   15 cycles
 E2 =    -0.2092165197D+01 EUMP2 =    -0.67162751963657D+03

 The electronic state is 1-A.
 Alpha  occ. eigenvalues --  -20.60755 -20.60750 -15.85808 -11.31178 -11.27748
 Alpha  occ. eigenvalues --  -11.27745 -11.27477 -11.26759 -11.26745 -11.22815
 Alpha  occ. eigenvalues --  -11.22577 -11.22376 -11.22284 -11.22191 -11.21659
 Alpha  occ. eigenvalues --   -1.59830  -1.39384  -1.19350  -1.09462  -1.08743
 Alpha  occ. eigenvalues --   -1.04756  -1.04483  -0.96920  -0.95577  -0.87928
 Alpha  occ. eigenvalues --   -0.86157  -0.82412  -0.80561  -0.79253  -0.77459
 Alpha  occ. eigenvalues --   -0.72027  -0.71154  -0.70474  -0.66181  -0.64999
 Alpha  occ. eigenvalues --   -0.64719  -0.62137  -0.61849  -0.60296  -0.58519
 Alpha  occ. eigenvalues --   -0.56272  -0.55200  -0.53584  -0.53336  -0.53079
 Alpha  occ. eigenvalues --   -0.52852  -0.50861  -0.48859  -0.48790  -0.48781
 Alpha  occ. eigenvalues --   -0.47621  -0.46769  -0.46696  -0.44789  -0.44746
 Alpha  occ. eigenvalues --   -0.37327  -0.36358
 Alpha virt. eigenvalues --    0.05069   0.11253   0.16542   0.17700   0.22768
 Alpha virt. eigenvalues --    0.23324   0.24384   0.25544   0.27021   0.28395
 Alpha virt. eigenvalues --    0.29198   0.30409   0.30846   0.31152   0.31744

 Mulliken charges:
               1
     1  C   -0.303264
     2  C   -0.303175
     3  C   -0.478902
     4  H    0.155688
     5  H    0.142726
     6  H    0.158672
     7  H    0.145563
     8  H    0.151572
     9  H    0.161168
    10  H    0.163174
    11  C   -0.298761
    12  C   -0.299759
    13  C   -0.476384
    14  H    0.153206
    15  H    0.149477
    16  H    0.154151
    17  H    0.149271
    18  H    0.156416
    19  H    0.156629
    20  H    0.163180
    21  C   -0.177677
    22  C   -0.226633
    23  C   -0.171989
    24  C    0.158875
    25  C   -0.170873
    26  C   -0.219260
    27  H    0.232010
    28  H    0.232322
    29  H    0.276191
    30  H    0.275561
    31  H    0.223743
    32  N    0.487920
    33  O   -0.460459
    34  O   -0.460379
 Sum of Mulliken charges =  -0.00000

 Dipole moment (field-independent basis, Debye):
    X=              4.6482    Y=              2.5570    Z=              1.1470  Tot=              5.4276
 Quadrupole moment (field-independent basis, Debye-Ang):
   XX=           -119.8446   YY=            -94.4989   ZZ=            -93.3509
   XY=             -9.8849   XZ=             -6.1666   YZ=              2.4369

 Normal termination of Gaussian 16 at Wed May  5 21:55:19 2021.
