 Gaussian 16, Revision A.03,
 Gaussian 16:  EM64L-G16RevA.03 25-Dec-2016

 -------------
 #p 6-31g* mp2
 -------------

 ------------------------------------------------------
 Input file generated by CHIRIPA (05-May-2021 14:51:08)
 ------------------------------------------------------
 Symbolic Z-matrix:
 Charge =  0 Multiplicity = 1

                         Standard orientation:
 ---------------------------------------------------------------------
 Center     Atomic      Atomic             Coordinates (Angstroms)
 Number     Number       Type             X           Y           Z
 ---------------------------------------------------------------------
      1          6           0        3.658259    0.296876   -0.560319
      2          6           0        3.891724   -1.167508   -0.187414
      3          6           0        4.936242   -1.844378   -1.075458
      4          1           0        3.341785    0.355171   -1.610743
      5          1           0        4.609640    0.842121   -0.489787
      6          1           0        2.939912   -1.709531   -0.257290
      7          1           0        4.207493   -1.222339    0.862300
      8          1           0        5.899240   -1.329265   -0.998677
      9          1           0        4.624457   -1.819226   -2.124629
     10          1           0        5.087469   -2.890483   -0.791461
     11          6           0        2.616703    0.987183    0.318525
     12          6           0        2.383238    2.451567   -0.054380
     13          6           0        1.338719    3.128436    0.833664
     14          1           0        1.665321    0.441937    0.247993
     15          1           0        2.933176    0.928888    1.368949
     16          1           0        2.067468    2.506398   -1.104094
     17          1           0        3.335049    2.993590    0.015496
     18          1           0        1.650505    3.103284    1.882835
     19          1           0        0.375722    2.613324    0.756883
     20          1           0        1.187492    4.174541    0.549667
     21          6           0       -3.770572   -0.632978   -0.306355
     22          6           0       -4.496814    0.712434   -0.285768
     23          6           0       -5.761396    0.714813   -1.145197
     24          1           0       -3.511337   -0.886688   -1.343358
     25          1           0       -4.455519   -1.416909    0.045350
     26          1           0       -3.810269    1.493806   -0.636094
     27          1           0       -4.754180    0.963060    0.751327
     28          1           0       -6.467705   -0.044104   -0.793383
     29          1           0       -5.518431    0.489657   -2.188688
     30          1           0       -6.264774    1.686216   -1.116061
     31          6           0       -2.504389   -0.651080    0.548149
     32          6           0       -1.778148   -1.996492    0.527562
     33          6           0       -0.513565   -1.998872    1.386991
     34          1           0       -1.819442    0.132851    0.196444
     35          1           0       -2.763624   -0.397371    1.585152
     36          1           0       -1.520781   -2.247119   -0.509533
     37          1           0       -2.464693   -2.777864    0.877889
     38          1           0       -0.756531   -1.773715    2.430482
     39          1           0        0.192744   -1.239954    1.035176
     40          1           0       -0.010188   -2.970274    1.357855
 ---------------------------------------------------------------------

 SCF Done:  E(RHF) =  -470.733337976     A.U. after   11 cycles
 E2 =    -0.1583117926D+01 EUMP2 =    -0.47231645590255D+03

 The electronic state is 1-A.
 Alpha  occ. eigenvalues --  -11.21624 -11.21623 -11.21617 -11.21585 -11.21439
 Alpha  occ. eigenvalues --  -11.21421 -11.21378 -11.21361 -11.21085 -11.21083
 Alpha  occ. eigenvalues --  -11.21064 -11.21045  -1.08463  -1.08438  -1.03546
 Alpha  occ. eigenvalues --   -1.03534  -0.96010  -0.95972  -0.87022  -0.86991
 Alpha  occ. eigenvalues --   -0.79621  -0.79588  -0.78321  -0.78209  -0.65176
 Alpha  occ. eigenvalues --   -0.65001  -0.60963  -0.60917  -0.59384  -0.59331
 Alpha  occ. eigenvalues --   -0.57672  -0.57538  -0.55394  -0.55179  -0.52698
 Alpha  occ. eigenvalues --   -0.52668  -0.52494  -0.52334  -0.50028  -0.49858
 Alpha  occ. eigenvalues --   -0.48002  -0.47869  -0.46764  -0.46616  -0.45959
 Alpha  occ. eigenvalues --   -0.45774  -0.45764  -0.45364  -0.43803  -0.43792
 Alpha virt. eigenvalues --    0.20329   0.23210   0.23815   0.23968   0.25648
 Alpha virt. eigenvalues --    0.26571   0.27038   0.27141   0.28337   0.29532
 Alpha virt. eigenvalues --    0.30806   0.31640   0.31732   0.31795   0.31929

 Mulliken charges:
               1
     1  C   -0.297832
     2  C   -0.301311
     3  C   -0.475715
     4  H    0.149179
     5  H    0.149695
     6  H    0.153877
     7  H    0.152198
     8  H    0.155163
     9  H    0.154979
    10  H    0.160339
    11  C   -0.306108
    12  C   -0.299035
    13  C   -0.476593
    14  H    0.156228
    15  H    0.150188
    16  H    0.151521
    17  H    0.152212
    18  H    0.155583
    19  H    0.155640
    20  H    0.160336
    21  C   -0.298304
    22  C   -0.299692
    23  C   -0.475727
    24  H    0.149559
    25  H    0.149811
    26  H    0.151885
    27  H    0.152149
    28  H    0.155227
    29  H    0.155140
    30  H    0.160388
    31  C   -0.299183
    32  C   -0.299359
    33  C   -0.484451
    34  H    0.148875
    35  H    0.150240
    36  H    0.151364
    37  H    0.152188
    38  H    0.155560
    39  H    0.163393
    40  H    0.160395
 Sum of Mulliken charges =  -0.00000

 Dipole moment (field-independent basis, Debye):
    X=              0.0051    Y=              0.0021    Z=              0.0179  Tot=              0.0188
 Quadrupole moment (field-independent basis, Debye-Ang):
   XX=            -85.2928   YY=            -85.0523   ZZ=            -84.3251
   XY=              0.9944   XZ=             -0.0742   YZ=             -0.3149

 Normal termination of Gaussian 16 at Thu May  6 02:07:21 2021.
