 Gaussian 16, Revision A.03,
 Gaussian 16:  EM64L-G16RevA.03 25-Dec-2016

 -------------
 #p 6-31g* mp2
 -------------

 ------------------------------------------------------
 Input file generated by CHIRIPA (05-May-2021 14:55:21)
 ------------------------------------------------------
 Symbolic Z-matrix:
 Charge =  0 Multiplicity = 1

                         Standard orientation:
 ---------------------------------------------------------------------
 Center     Atomic      Atomic             Coordinates (Angstroms)
 Number     Number       Type             X           Y           Z
 ---------------------------------------------------------------------
      1          6           0       -4.713361   -1.551813   -0.051127
      2          6           0       -5.112645   -0.276090    0.360727
      3          6           0       -4.211190    0.792253    0.336834
      4          6           0       -2.912384    0.548110   -0.106772
      5          6           0       -2.484451   -0.711464   -0.523470
      6          6           0       -3.402848   -1.765052   -0.491135
      7          1           0       -5.420213   -2.375996   -0.029287
      8          1           0       -6.129769   -0.107555    0.702926
      9          1           0       -4.493729    1.789987    0.650068
     10          1           0       -1.463817   -0.848587   -0.859509
     11          1           0       -3.089974   -2.754736   -0.811575
     12          7           0       -1.949086    1.671306   -0.136535
     13          8           0       -0.810504    1.430144   -0.531642
     14          8           0       -2.350874    2.771563    0.235808
     15          6           0        3.306293   -0.594746    0.550101
     16          6           0        2.236224   -1.399214   -0.188661
     17          6           0        0.992410   -1.651408    0.664049
     18          1           0        3.590590   -1.129675    1.466600
     19          1           0        2.878182    0.365739    0.868824
     20          1           0        2.666627   -2.357318   -0.507105
     21          1           0        1.954580   -0.862402   -1.103607
     22          1           0        0.536849   -0.704209    0.970444
     23          1           0        1.252942   -2.207619    1.570335
     24          1           0        0.240430   -2.228079    0.116475
     25          6           0        4.555843   -0.334517   -0.289323
     26          6           0        5.625912    0.469950    0.449440
     27          6           0        6.869726    0.722146   -0.403271
     28          1           0        4.983954   -1.295002   -0.608047
     29          1           0        4.271547    0.200412   -1.205823
     30          1           0        5.907557   -0.066862    1.364385
     31          1           0        5.195510    1.428055    0.767884
     32          1           0        6.609195    1.278356   -1.309557
     33          1           0        7.325287   -0.225054   -0.709666
     34          1           0        7.621706    1.298816    0.144303
 ---------------------------------------------------------------------

 SCF Done:  E(RHF) =  -669.535498135     A.U. after   15 cycles
 E2 =    -0.2092189422D+01 EUMP2 =    -0.67162768755715D+03

 The electronic state is 1-A.
 Alpha  occ. eigenvalues --  -20.60899 -20.60891 -15.85924 -11.31183 -11.27772
 Alpha  occ. eigenvalues --  -11.27697 -11.27507 -11.26763 -11.26744 -11.21232
 Alpha  occ. eigenvalues --  -11.21151 -11.20920 -11.20887 -11.20848 -11.20680
 Alpha  occ. eigenvalues --   -1.59958  -1.39515  -1.19364  -1.08782  -1.07981
 Alpha  occ. eigenvalues --   -1.04757  -1.03156  -0.95702  -0.95562  -0.86678
 Alpha  occ. eigenvalues --   -0.86142  -0.82468  -0.79232  -0.77788  -0.77517
 Alpha  occ. eigenvalues --   -0.72154  -0.71271  -0.70489  -0.65028  -0.64801
 Alpha  occ. eigenvalues --   -0.64559  -0.62168  -0.60499  -0.59017  -0.57252
 Alpha  occ. eigenvalues --   -0.55290  -0.54866  -0.53112  -0.52912  -0.52266
 Alpha  occ. eigenvalues --   -0.52055  -0.49556  -0.48901  -0.48876  -0.47546
 Alpha  occ. eigenvalues --   -0.46229  -0.45350  -0.45245  -0.44847  -0.43416
 Alpha  occ. eigenvalues --   -0.37350  -0.36336
 Alpha virt. eigenvalues --    0.04979   0.11276   0.16430   0.20735   0.23325
 Alpha virt. eigenvalues --    0.24294   0.26756   0.27094   0.27912   0.28110
 Alpha virt. eigenvalues --    0.29185   0.30806   0.31782   0.32084   0.32524

 Mulliken charges:
               1
     1  C   -0.170154
     2  C   -0.219063
     3  C   -0.170478
     4  C    0.155681
     5  C   -0.170842
     6  C   -0.221127
     7  H    0.225640
     8  H    0.223359
     9  H    0.275343
    10  H    0.284287
    11  H    0.223396
    12  N    0.488375
    13  O   -0.461940
    14  O   -0.459174
    15  C   -0.300250
    16  C   -0.299563
    17  C   -0.482393
    18  H    0.146498
    19  H    0.159575
    20  H    0.147412
    21  H    0.158860
    22  H    0.171689
    23  H    0.154171
    24  H    0.141827
    25  C   -0.298644
    26  C   -0.299919
    27  C   -0.475616
    28  H    0.146524
    29  H    0.152547
    30  H    0.150223
    31  H    0.154862
    32  H    0.155978
    33  H    0.153503
    34  H    0.159414
 Sum of Mulliken charges =  -0.00000

 Dipole moment (field-independent basis, Debye):
    X=             -3.4390    Y=             -3.7702    Z=              0.1155  Tot=              5.1043
 Quadrupole moment (field-independent basis, Debye-Ang):
   XX=            -73.8189   YY=            -97.3554   ZZ=            -95.0894
   XY=              7.0787   XZ=             -0.8163   YZ=              1.6190

 Normal termination of Gaussian 16 at Thu May  6 20:47:07 2021.
