 Gaussian 16, Revision A.03,
 Gaussian 16:  EM64L-G16RevA.03 25-Dec-2016

 -------------
 #p 6-31g* mp2
 -------------

 ------------------------------------------------------
 Input file generated by CHIRIPA (05-May-2021 14:57:24)
 ------------------------------------------------------
 Symbolic Z-matrix:
 Charge =  0 Multiplicity = 1

                         Standard orientation:
 ---------------------------------------------------------------------
 Center     Atomic      Atomic             Coordinates (Angstroms)
 Number     Number       Type             X           Y           Z
 ---------------------------------------------------------------------
      1          6           0        5.633168    1.578752   -0.470443
      2          6           0        4.595980    1.960353    0.386961
      3          6           0        3.542207    1.083370    0.660845
      4          6           0        3.557526   -0.173199    0.057446
      5          6           0        4.576534   -0.582601   -0.801217
      6          6           0        5.620158    0.310728   -1.060755
      7          1           0        6.447822    2.266362   -0.677631
      8          1           0        4.603468    2.944488    0.846816
      9          1           0        2.726573    1.353025    1.320727
     10          1           0        4.541507   -1.570258   -1.244755
     11          1           0        6.424323    0.011671   -1.727034
     12          7           0        2.447315   -1.110273    0.339801
     13          8           0        2.484080   -2.211722   -0.204347
     14          8           0        1.561390   -0.725561    1.099912
     15          6           0       -2.554675   -2.177664    0.357158
     16          6           0       -3.534568   -2.068864   -0.635058
     17          6           0       -4.198066   -0.856821   -0.847820
     18          6           0       -3.855143    0.231099   -0.046494
     19          6           0       -2.883371    0.154247    0.950021
     20          6           0       -2.232771   -1.067718    1.145142
     21          1           0       -2.044264   -3.123062    0.515586
     22          1           0       -3.786616   -2.929204   -1.248519
     23          1           0       -4.960653   -0.744757   -1.608951
     24          1           0       -2.653754    1.029366    1.545724
     25          1           0       -1.472193   -1.149295    1.916446
     26          7           0       -4.550731    1.519487   -0.262397
     27          8           0       -4.230347    2.463179    0.456932
     28          8           0       -5.403146    1.561237   -1.146865
 ---------------------------------------------------------------------

 SCF Done:  E(RHF) =  -868.340206782     A.U. after   16 cycles
 E2 =    -0.2598280766D+01 EUMP2 =    -0.87093848754856D+03

 The electronic state is 1-A.
 Alpha  occ. eigenvalues --  -20.61545 -20.61534 -20.60053 -20.60048 -15.86574
 Alpha  occ. eigenvalues --  -15.85094 -11.31673 -11.30203 -11.28211 -11.28207
 Alpha  occ. eigenvalues --  -11.27899 -11.27166 -11.27152 -11.26757 -11.26663
 Alpha  occ. eigenvalues --  -11.26303 -11.25727 -11.25486  -1.60604  -1.59134
 Alpha  occ. eigenvalues --   -1.40166  -1.38695  -1.19819  -1.18319  -1.09263
 Alpha  occ. eigenvalues --   -1.07741  -1.05183  -1.03670  -0.96145  -0.94633
 Alpha  occ. eigenvalues --   -0.86594  -0.85065  -0.82990  -0.81472  -0.78064
 Alpha  occ. eigenvalues --   -0.76571  -0.72821  -0.71898  -0.71320  -0.70925
 Alpha  occ. eigenvalues --   -0.70453  -0.69393  -0.65478  -0.65184  -0.63954
 Alpha  occ. eigenvalues --   -0.63628  -0.62535  -0.61020  -0.55692  -0.54125
 Alpha  occ. eigenvalues --   -0.53524  -0.53272  -0.52026  -0.51737  -0.49573
 Alpha  occ. eigenvalues --   -0.49540  -0.48090  -0.48047  -0.45625  -0.44159
 Alpha  occ. eigenvalues --   -0.37781  -0.36773  -0.36251  -0.35261
 Alpha virt. eigenvalues --    0.04457   0.05932   0.10886   0.12398   0.16009
 Alpha virt. eigenvalues --    0.17527   0.21045   0.22617   0.26976   0.27855
 Alpha virt. eigenvalues --    0.28545   0.29443   0.30643   0.32017   0.32293

 Mulliken charges:
               1
     1  C   -0.169801
     2  C   -0.218320
     3  C   -0.169943
     4  C    0.158070
     5  C   -0.170440
     6  C   -0.218493
     7  H    0.227683
     8  H    0.225769
     9  H    0.274856
    10  H    0.275555
    11  H    0.224905
    12  N    0.491058
    13  O   -0.460537
    14  O   -0.468910
    15  C   -0.170417
    16  C   -0.219270
    17  C   -0.173680
    18  C    0.157505
    19  C   -0.174783
    20  C   -0.212607
    21  H    0.229992
    22  H    0.220126
    23  H    0.271469
    24  H    0.271495
    25  H    0.237879
    26  N    0.488210
    27  O   -0.463819
    28  O   -0.463551
 Sum of Mulliken charges =  -0.00000

 Dipole moment (field-independent basis, Debye):
    X=              6.8618    Y=             -1.3288    Z=             -0.1598  Tot=              6.9911
 Quadrupole moment (field-independent basis, Debye-Ang):
   XX=            -95.2775   YY=           -105.6409   ZZ=           -101.4422
   XY=             29.6765   XZ=             -6.1214   YZ=              4.7464

 Normal termination of Gaussian 16 at Thu May  6 01:54:54 2021.
