 Gaussian 16, Revision A.03,
 Gaussian 16:  EM64L-G16RevA.03 25-Dec-2016

 -------------
 #p 6-31g* mp2
 -------------

 ------------------------------------------------------
 Input file generated by CHIRIPA (05-May-2021 14:51:08)
 ------------------------------------------------------
 Symbolic Z-matrix:
 Charge =  0 Multiplicity = 1

                         Standard orientation:
 ---------------------------------------------------------------------
 Center     Atomic      Atomic             Coordinates (Angstroms)
 Number     Number       Type             X           Y           Z
 ---------------------------------------------------------------------
      1          6           0       -2.729134   -1.013873   -0.022270
      2          6           0       -3.068731    0.322183    0.639254
      3          6           0       -4.565615    0.632509    0.610455
      4          1           0       -3.082443   -1.001033   -1.062439
      5          1           0       -3.280904   -1.817150    0.485362
      6          1           0       -2.515418    1.122532    0.131413
      7          1           0       -2.714401    0.306233    1.677913
      8          1           0       -5.130454   -0.145353    1.134374
      9          1           0       -4.930340    0.675584   -0.420913
     10          1           0       -4.785964    1.592042    1.088580
     11          6           0       -1.236436   -1.338132   -0.001365
     12          6           0       -0.896838   -2.674188   -0.662889
     13          6           0        0.600046   -2.984513   -0.634090
     14          1           0       -0.684666   -0.534855   -0.508997
     15          1           0       -0.883126   -1.350971    1.038805
     16          1           0       -1.251168   -2.658238   -1.701547
     17          1           0       -1.450151   -3.474537   -0.155047
     18          1           0        0.964771   -3.027589    0.397279
     19          1           0        1.164885   -2.206652   -1.158008
     20          1           0        0.820394   -3.944046   -1.112215
     21          6           0        1.626215    1.624387   -0.493396
     22          6           0        0.464371    2.413905    0.110563
     23          6           0       -0.239014    3.306306   -0.912503
     24          1           0        2.350479    2.325962   -0.929491
     25          1           0        1.250231    1.008138   -1.321808
     26          1           0        0.842188    3.027436    0.938482
     27          1           0       -0.257118    1.710377    0.545441
     28          1           0       -0.642949    2.706020   -1.734144
     29          1           0        0.462603    4.030561   -1.338869
     30          1           0       -1.066232    3.861551   -0.459434
     31          6           0        2.339354    0.727617    0.517031
     32          6           0        3.501199   -0.061900   -0.086929
     33          6           0        4.204583   -0.954300    0.936137
     34          1           0        2.715338    1.343867    1.345443
     35          1           0        1.615090    0.026043    0.953126
     36          1           0        4.222687    0.641628   -0.521805
     37          1           0        3.123381   -0.675431   -0.914848
     38          1           0        3.502966   -1.678557    1.362503
     39          1           0        4.608519   -0.354016    1.757778
     40          1           0        5.031801   -1.509546    0.483068
 ---------------------------------------------------------------------

 SCF Done:  E(RHF) =  -470.731611244     A.U. after   11 cycles
 E2 =    -0.1586978920D+01 EUMP2 =    -0.47231859016452D+03

 The electronic state is 1-A.
 Alpha  occ. eigenvalues --  -11.21695 -11.21633 -11.21514 -11.21486 -11.21484
 Alpha  occ. eigenvalues --  -11.21425 -11.21349 -11.21251 -11.21166 -11.21103
 Alpha  occ. eigenvalues --  -11.21085 -11.20996  -1.08574  -1.08325  -1.03633
 Alpha  occ. eigenvalues --   -1.03456  -0.96070  -0.95927  -0.87084  -0.86946
 Alpha  occ. eigenvalues --   -0.79703  -0.79535  -0.78477  -0.78084  -0.65462
 Alpha  occ. eigenvalues --   -0.64740  -0.61152  -0.60816  -0.59448  -0.59263
 Alpha  occ. eigenvalues --   -0.57689  -0.57518  -0.55379  -0.55220  -0.52751
 Alpha  occ. eigenvalues --   -0.52636  -0.52494  -0.52320  -0.50173  -0.49728
 Alpha  occ. eigenvalues --   -0.48161  -0.47706  -0.46786  -0.46734  -0.46261
 Alpha  occ. eigenvalues --   -0.45860  -0.45483  -0.45029  -0.43855  -0.43718
 Alpha virt. eigenvalues --    0.19767   0.21608   0.23684   0.24463   0.24895
 Alpha virt. eigenvalues --    0.25954   0.26681   0.28045   0.28562   0.29871
 Alpha virt. eigenvalues --    0.30882   0.31283   0.31691   0.32011   0.32149

 Mulliken charges:
               1
     1  C   -0.297442
     2  C   -0.306875
     3  C   -0.475152
     4  H    0.149507
     5  H    0.149790
     6  H    0.159863
     7  H    0.151727
     8  H    0.155167
     9  H    0.155271
    10  H    0.160473
    11  C   -0.307239
    12  C   -0.299297
    13  C   -0.481438
    14  H    0.158148
    15  H    0.149905
    16  H    0.152032
    17  H    0.152378
    18  H    0.155953
    19  H    0.159684
    20  H    0.161063
    21  C   -0.299618
    22  C   -0.309320
    23  C   -0.476211
    24  H    0.150203
    25  H    0.147519
    26  H    0.152043
    27  H    0.161986
    28  H    0.153521
    29  H    0.155663
    30  H    0.160310
    31  C   -0.302936
    32  C   -0.301863
    33  C   -0.476588
    34  H    0.149156
    35  H    0.155734
    36  H    0.151459
    37  H    0.154391
    38  H    0.156351
    39  H    0.154661
    40  H    0.160021
 Sum of Mulliken charges =  -0.00000

 Dipole moment (field-independent basis, Debye):
    X=             -0.0499    Y=             -0.0352    Z=              0.0124  Tot=              0.0623
 Quadrupole moment (field-independent basis, Debye-Ang):
   XX=            -85.9479   YY=            -84.6088   ZZ=            -84.3256
   XY=              1.2834   XZ=             -0.2755   YZ=              0.2070

 Normal termination of Gaussian 16 at Thu May  6 02:06:29 2021.
