 Gaussian 16, Revision A.03,
 Gaussian 16:  EM64L-G16RevA.03 25-Dec-2016

 -------------
 #p 6-31g* mp2
 -------------

 ------------------------------------------------------
 Input file generated by CHIRIPA (05-May-2021 14:57:26)
 ------------------------------------------------------
 Symbolic Z-matrix:
 Charge =  0 Multiplicity = 1

                         Standard orientation:
 ---------------------------------------------------------------------
 Center     Atomic      Atomic             Coordinates (Angstroms)
 Number     Number       Type             X           Y           Z
 ---------------------------------------------------------------------
      1          6           0       -1.062943   -0.989605    0.094068
      2          6           0       -2.147242   -1.836978    0.344622
      3          6           0       -3.457577   -1.356484    0.262783
      4          6           0       -3.647991   -0.017141   -0.073657
      5          6           0       -2.588389    0.851961   -0.328993
      6          6           0       -1.286583    0.349798   -0.241348
      7          1           0       -0.048357   -1.371281    0.159898
      8          1           0       -1.976557   -2.877626    0.605319
      9          1           0       -4.315280   -1.990570    0.451721
     10          1           0       -2.790116    1.884593   -0.586670
     11          1           0       -0.446418    1.010177   -0.436459
     12          7           0       -5.030669    0.503007   -0.163369
     13          8           0       -5.171762    1.686970   -0.461631
     14          8           0       -5.947137   -0.283114    0.066274
     15          6           0        3.369651    2.603083    0.393982
     16          6           0        3.974598    2.061553   -0.745011
     17          6           0        4.008412    0.677728   -0.941056
     18          6           0        3.424986   -0.138844    0.026474
     19          6           0        2.814804    0.370459    1.171716
     20          6           0        2.792702    1.757298    1.347030
     21          1           0        3.347933    3.679242    0.538223
     22          1           0        4.423458    2.715986   -1.486824
     23          1           0        4.470159    0.231815   -1.813620
     24          1           0        2.375734   -0.307352    1.893664
     25          1           0        2.322203    2.175062    2.232553
     26          7           0        3.454584   -1.605433   -0.170097
     27          8           0        2.933513   -2.303357    0.697096
     28          8           0        3.998293   -2.029252   -1.187641
 ---------------------------------------------------------------------

 SCF Done:  E(RHF) =  -868.339611067     A.U. after   16 cycles
 E2 =    -0.2599911419D+01 EUMP2 =    -0.87093952248598D+03

 The electronic state is 1-A.
 Alpha  occ. eigenvalues --  -20.62027 -20.61981 -20.60678 -20.60667 -15.87019
 Alpha  occ. eigenvalues --  -15.85727 -11.32303 -11.31026 -11.28866 -11.28791
 Alpha  occ. eigenvalues --  -11.28507 -11.27819 -11.27770 -11.27622 -11.27560
 Alpha  occ. eigenvalues --  -11.27201 -11.26583 -11.26498  -1.61062  -1.59753
 Alpha  occ. eigenvalues --   -1.40618  -1.39308  -1.20455  -1.19182  -1.09852
 Alpha  occ. eigenvalues --   -1.08568  -1.05820  -1.04579  -0.96699  -0.95418
 Alpha  occ. eigenvalues --   -0.87214  -0.85964  -0.83519  -0.82259  -0.78595
 Alpha  occ. eigenvalues --   -0.77334  -0.73225  -0.72399  -0.71944  -0.71510
 Alpha  occ. eigenvalues --   -0.71076  -0.70219  -0.66082  -0.65780  -0.64822
 Alpha  occ. eigenvalues --   -0.64565  -0.63147  -0.61931  -0.56284  -0.55001
 Alpha  occ. eigenvalues --   -0.54186  -0.53873  -0.52912  -0.52646  -0.50004
 Alpha  occ. eigenvalues --   -0.49976  -0.48705  -0.48695  -0.46015  -0.44729
 Alpha  occ. eigenvalues --   -0.38421  -0.37460  -0.37107  -0.36195
 Alpha virt. eigenvalues --    0.03890   0.05200   0.10148   0.11459   0.15400
 Alpha virt. eigenvalues --    0.16709   0.20410   0.21616   0.26309   0.27080
 Alpha virt. eigenvalues --    0.27410   0.28249   0.30120   0.30897   0.32447

 Mulliken charges:
               1
     1  C   -0.178490
     2  C   -0.219652
     3  C   -0.171380
     4  C    0.158089
     5  C   -0.171887
     6  C   -0.222264
     7  H    0.235205
     8  H    0.228185
     9  H    0.275429
    10  H    0.272761
    11  H    0.221618
    12  N    0.488157
    13  O   -0.462323
    14  O   -0.460277
    15  C   -0.171934
    16  C   -0.218580
    17  C   -0.170631
    18  C    0.155565
    19  C   -0.178546
    20  C   -0.220684
    21  H    0.230210
    22  H    0.227876
    23  H    0.278621
    24  H    0.276321
    25  H    0.228436
    26  N    0.487380
    27  O   -0.464133
    28  O   -0.453075
 Sum of Mulliken charges =  -0.00000

 Dipole moment (field-independent basis, Debye):
    X=              5.1386    Y=              3.3428    Z=              0.9783  Tot=              6.2078
 Quadrupole moment (field-independent basis, Debye-Ang):
   XX=           -139.7538   YY=           -102.1789   ZZ=           -101.6389
   XY=             27.3152   XZ=             -2.3635   YZ=             -1.5955

 Normal termination of Gaussian 16 at Thu May  6 22:54:29 2021.
