 Gaussian 16, Revision A.03,
 Gaussian 16:  EM64L-G16RevA.03 25-Dec-2016

 -------------
 #p 6-31g* mp2
 -------------

 ------------------------------------------------------
 Input file generated by CHIRIPA (05-May-2021 14:53:16)
 ------------------------------------------------------
 Symbolic Z-matrix:
 Charge =  0 Multiplicity = 1

                         Standard orientation:
 ---------------------------------------------------------------------
 Center     Atomic      Atomic             Coordinates (Angstroms)
 Number     Number       Type             X           Y           Z
 ---------------------------------------------------------------------
      1          6           0        3.407600    0.686588   -0.506537
      2          6           0        2.266934    1.680362   -0.284550
      3          6           0        2.580554    3.072521   -0.833486
      4          1           0        4.319630    1.072831   -0.031180
      5          1           0        3.620783    0.618104   -1.582296
      6          1           0        2.055038    1.745912    0.790354
      7          1           0        1.357467    1.291617   -0.760326
      8          1           0        2.771188    3.027944   -1.910645
      9          1           0        3.472724    3.484821   -0.351154
     10          1           0        1.751740    3.766950   -0.664088
     11          6           0        3.109030   -0.709606    0.036811
     12          6           0        4.249696   -1.703380   -0.185176
     13          6           0        3.936076   -3.095539    0.363760
     14          1           0        2.895846   -0.641121    1.112570
     15          1           0        2.197000   -1.095849   -0.438545
     16          1           0        5.159163   -1.314635    0.290600
     17          1           0        4.461591   -1.768930   -1.260080
     18          1           0        3.043906   -3.507838   -0.118572
     19          1           0        3.745441   -3.050962    1.440919
     20          1           0        4.764890   -3.789968    0.194362
     21          6           0       -1.252789    1.215597    1.983146
     22          6           0       -1.235616    1.693825    0.668793
     23          6           0       -1.948196    1.033319   -0.336449
     24          6           0       -2.670538   -0.107659    0.009502
     25          6           0       -2.707320   -0.608768    1.309821
     26          6           0       -1.987292    0.067851    2.298908
     27          1           0       -0.696347    1.734953    2.757767
     28          1           0       -0.666067    2.584944    0.420668
     29          1           0       -1.952258    1.381806   -1.362099
     30          1           0       -3.284294   -1.499566    1.526612
     31          1           0       -2.002448   -0.305825    3.318801
     32          7           0       -3.428858   -0.815437   -1.046151
     33          8           0       -4.057459   -1.818540   -0.715574
     34          8           0       -3.380268   -0.353687   -2.184159
 ---------------------------------------------------------------------

 SCF Done:  E(RHF) =  -669.534872018     A.U. after   15 cycles
 E2 =    -0.2092637682D+01 EUMP2 =    -0.67162750969998D+03

 The electronic state is 1-A.
 Alpha  occ. eigenvalues --  -20.60770 -20.60765 -15.85822 -11.31188 -11.27728
 Alpha  occ. eigenvalues --  -11.27722 -11.27461 -11.26770 -11.26731 -11.22255
 Alpha  occ. eigenvalues --  -11.21865 -11.21858 -11.21850 -11.21712 -11.21270
 Alpha  occ. eigenvalues --   -1.59846  -1.39399  -1.19349  -1.08888  -1.08736
 Alpha  occ. eigenvalues --   -1.04758  -1.04005  -0.96451  -0.95581  -0.87461
 Alpha  occ. eigenvalues --   -0.86149  -0.82420  -0.80092  -0.78674  -0.77451
 Alpha  occ. eigenvalues --   -0.72040  -0.71169  -0.70451  -0.65510  -0.64996
 Alpha  occ. eigenvalues --   -0.64769  -0.62130  -0.61394  -0.59841  -0.58062
 Alpha  occ. eigenvalues --   -0.55717  -0.55243  -0.53221  -0.53086  -0.52878
 Alpha  occ. eigenvalues --   -0.52779  -0.50374  -0.48800  -0.48796  -0.48386
 Alpha  occ. eigenvalues --   -0.47113  -0.46206  -0.46114  -0.44805  -0.44250
 Alpha  occ. eigenvalues --   -0.37305  -0.36289
 Alpha virt. eigenvalues --    0.05031   0.11272   0.16453   0.19961   0.22684
 Alpha virt. eigenvalues --    0.23776   0.25893   0.25970   0.26958   0.28128
 Alpha virt. eigenvalues --    0.28884   0.29799   0.30968   0.31785   0.31913

 Mulliken charges:
               1
     1  C   -0.298592
     2  C   -0.302516
     3  C   -0.477704
     4  H    0.149757
     5  H    0.152205
     6  H    0.144957
     7  H    0.155260
     8  H    0.160237
     9  H    0.158272
    10  H    0.152000
    11  C   -0.298299
    12  C   -0.300139
    13  C   -0.476029
    14  H    0.146950
    15  H    0.153177
    16  H    0.151469
    17  H    0.153613
    18  H    0.157488
    19  H    0.153750
    20  H    0.161388
    21  C   -0.172970
    22  C   -0.213508
    23  C   -0.174778
    24  C    0.158876
    25  C   -0.171518
    26  C   -0.218075
    27  H    0.225264
    28  H    0.228309
    29  H    0.275310
    30  H    0.275439
    31  H    0.223343
    32  N    0.488020
    33  O   -0.460367
    34  O   -0.460589
 Sum of Mulliken charges =  -0.00000

 Dipole moment (field-independent basis, Debye):
    X=              2.7533    Y=              2.4203    Z=              3.6829  Tot=              5.1964
 Quadrupole moment (field-independent basis, Debye-Ang):
   XX=           -108.9999   YY=            -94.6256   ZZ=            -92.0293
   XY=             -5.8413   XZ=            -11.0112   YZ=             -2.3684

 Normal termination of Gaussian 16 at Thu May  6 01:11:20 2021.
