 Gaussian 16, Revision A.03,
 Gaussian 16:  EM64L-G16RevA.03 25-Dec-2016

 -------------
 #p 6-31g* mp2
 -------------

 ------------------------------------------------------
 Input file generated by CHIRIPA (05-May-2021 14:51:07)
 ------------------------------------------------------
 Symbolic Z-matrix:
 Charge =  0 Multiplicity = 1

                         Standard orientation:
 ---------------------------------------------------------------------
 Center     Atomic      Atomic             Coordinates (Angstroms)
 Number     Number       Type             X           Y           Z
 ---------------------------------------------------------------------
      1          6           0        2.859916   -1.180295    0.377722
      2          6           0        1.591129   -0.949327    1.199197
      3          6           0        1.052278   -2.234364    1.828570
      4          1           0        2.649878   -1.916219   -0.410468
      5          1           0        3.630322   -1.624678    1.023008
      6          1           0        0.823799   -0.504233    0.552891
      7          1           0        1.804161   -0.213724    1.985404
      8          1           0        1.798035   -2.678738    2.495638
      9          1           0        0.812102   -2.970899    1.054986
     10          1           0        0.145110   -2.046259    2.411257
     11          6           0        3.410670    0.095038   -0.257829
     12          6           0        4.679456   -0.135931   -1.079303
     13          6           0        5.218308    1.149107   -1.708677
     14          1           0        2.640264    0.539420   -0.903114
     15          1           0        3.620708    0.830962    0.530362
     16          1           0        4.466424   -0.871534   -1.865510
     17          1           0        5.446787   -0.581024   -0.432997
     18          1           0        5.458484    1.885641   -0.935092
     19          1           0        4.472551    1.593481   -2.375744
     20          1           0        6.125475    0.961001   -2.291363
     21          6           0       -3.324603   -0.109078   -0.410478
     22          6           0       -4.778924   -0.144045   -0.881342
     23          6           0       -5.142516   -1.454190   -1.580710
     24          1           0       -2.662561   -0.261505   -1.273851
     25          1           0       -3.147133   -0.951686    0.272099
     26          1           0       -4.953965    0.699180   -1.561744
     27          1           0       -5.437574    0.008673   -0.016777
     28          1           0       -4.995935   -2.304301   -0.906597
     29          1           0       -4.509578   -1.609871   -2.460343
     30          1           0       -6.186556   -1.457684   -1.909080
     31          6           0       -2.945983    1.194335    0.290585
     32          6           0       -1.491662    1.229303    0.761448
     33          6           0       -1.128069    2.539448    1.460815
     34          1           0       -3.123452    2.036943   -0.391992
     35          1           0       -3.608024    1.346762    1.153958
     36          1           0       -0.833011    1.076584   -0.103117
     37          1           0       -1.316620    0.386078    1.441850
     38          1           0       -1.761007    2.695128    2.340449
     39          1           0       -1.274650    3.389558    0.786703
     40          1           0       -0.084029    2.542942    1.789185
 ---------------------------------------------------------------------

 SCF Done:  E(RHF) =  -470.732414588     A.U. after   11 cycles
 E2 =    -0.1583713043D+01 EUMP2 =    -0.47231612763157D+03

 The electronic state is 1-A.
 Alpha  occ. eigenvalues --  -11.21619 -11.21591 -11.21588 -11.21439 -11.21420
 Alpha  occ. eigenvalues --  -11.21373 -11.21357 -11.21297 -11.21085 -11.21065
 Alpha  occ. eigenvalues --  -11.21064 -11.21039  -1.08464  -1.08374  -1.03584
 Alpha  occ. eigenvalues --   -1.03450  -0.95995  -0.95943  -0.87008  -0.86961
 Alpha  occ. eigenvalues --   -0.79796  -0.79427  -0.78390  -0.78053  -0.65087
 Alpha  occ. eigenvalues --   -0.65018  -0.60952  -0.60899  -0.59516  -0.59182
 Alpha  occ. eigenvalues --   -0.57698  -0.57447  -0.55275  -0.55238  -0.52695
 Alpha  occ. eigenvalues --   -0.52628  -0.52419  -0.52370  -0.49938  -0.49897
 Alpha  occ. eigenvalues --   -0.48218  -0.47711  -0.46683  -0.46569  -0.46021
 Alpha  occ. eigenvalues --   -0.45744  -0.45697  -0.45235  -0.43790  -0.43734
 Alpha virt. eigenvalues --    0.21419   0.23116   0.23562   0.24477   0.25268
 Alpha virt. eigenvalues --    0.26257   0.26607   0.27770   0.28365   0.29142
 Alpha virt. eigenvalues --    0.30678   0.31081   0.31207   0.31923   0.32281

 Mulliken charges:
               1
     1  C   -0.297734
     2  C   -0.307357
     3  C   -0.476602
     4  H    0.149121
     5  H    0.148884
     6  H    0.163476
     7  H    0.150496
     8  H    0.155008
     9  H    0.155118
    10  H    0.159365
    11  C   -0.298179
    12  C   -0.299555
    13  C   -0.475663
    14  H    0.148683
    15  H    0.149378
    16  H    0.151859
    17  H    0.152039
    18  H    0.155177
    19  H    0.154992
    20  H    0.160210
    21  C   -0.298568
    22  C   -0.299546
    23  C   -0.475722
    24  H    0.148916
    25  H    0.149691
    26  H    0.151962
    27  H    0.152063
    28  H    0.155311
    29  H    0.155048
    30  H    0.160329
    31  C   -0.297340
    32  C   -0.304052
    33  C   -0.476341
    34  H    0.149325
    35  H    0.149564
    36  H    0.152388
    37  H    0.156730
    38  H    0.154982
    39  H    0.154985
    40  H    0.161562
 Sum of Mulliken charges =  -0.00000

 Dipole moment (field-independent basis, Debye):
    X=             -0.0338    Y=              0.0183    Z=             -0.0011  Tot=              0.0384
 Quadrupole moment (field-independent basis, Debye-Ang):
   XX=            -84.9542   YY=            -86.1653   ZZ=            -83.8613
   XY=             -0.5389   XZ=              0.2348   YZ=             -0.2024

 Normal termination of Gaussian 16 at Thu May  6 03:39:13 2021.
