 Gaussian 16, Revision A.03,
 Gaussian 16:  EM64L-G16RevA.03 25-Dec-2016

 -------------
 #p 6-31g* mp2
 -------------

 ------------------------------------------------------
 Input file generated by CHIRIPA (05-May-2021 14:57:26)
 ------------------------------------------------------
 Symbolic Z-matrix:
 Charge =  0 Multiplicity = 1

                         Standard orientation:
 ---------------------------------------------------------------------
 Center     Atomic      Atomic             Coordinates (Angstroms)
 Number     Number       Type             X           Y           Z
 ---------------------------------------------------------------------
      1          6           0       -5.294972   -1.231080    0.864346
      2          6           0       -4.554188   -1.569003   -0.273005
      3          6           0       -3.549958   -0.718446   -0.744835
      4          6           0       -3.312034    0.467445   -0.051765
      5          6           0       -4.032972    0.832003    1.084296
      6          6           0       -5.032463   -0.033766    1.538178
      7          1           0       -6.073242   -1.897721    1.223904
      8          1           0       -4.755871   -2.498202   -0.798321
      9          1           0       -2.961358   -0.955456   -1.622784
     10          1           0       -3.808905    1.765120    1.586795
     11          1           0       -5.606183    0.231247    2.421727
     12          7           0       -2.251409    1.375943   -0.541770
     13          8           0       -2.061233    2.414936    0.086691
     14          8           0       -1.630351    1.031829   -1.545019
     15          6           0        5.543051    0.780812    0.935969
     16          6           0        4.671694    1.515964    0.125531
     17          6           0        3.529395    0.917592   -0.414518
     18          6           0        3.288050   -0.423914   -0.122282
     19          6           0        4.137126   -1.182868    0.681677
     20          6           0        5.273461   -0.563887    1.210971
     21          1           0        6.428099    1.253647    1.351314
     22          1           0        4.878541    2.560437   -0.089726
     23          1           0        2.837984    1.463336   -1.045020
     24          1           0        3.904369   -2.222345    0.878476
     25          1           0        5.948403   -1.137267    1.840044
     26          7           0        2.081907   -1.068294   -0.688315
     27          8           0        1.891707   -2.251602   -0.415844
     28          8           0        1.349570   -0.377846   -1.393725
 ---------------------------------------------------------------------

 SCF Done:  E(RHF) =  -868.337009016     A.U. after   16 cycles
 E2 =    -0.2599679790D+01 EUMP2 =    -0.87093668880691D+03

 The electronic state is 1-A.
 Alpha  occ. eigenvalues --  -20.60086 -20.59967 -20.59916 -20.59760 -15.85062
 Alpha  occ. eigenvalues --  -15.84874 -11.30550 -11.30381 -11.27190 -11.27071
 Alpha  occ. eigenvalues --  -11.27028 -11.26942 -11.26908 -11.26788 -11.26229
 Alpha  occ. eigenvalues --  -11.26157 -11.26077 -11.26000  -1.59115  -1.58909
 Alpha  occ. eigenvalues --   -1.38655  -1.38451  -1.18747  -1.18580  -1.08131
 Alpha  occ. eigenvalues --   -1.07959  -1.04163  -1.04003  -0.94941  -0.94762
 Alpha  occ. eigenvalues --   -0.85558  -0.85398  -0.81769  -0.81579  -0.76784
 Alpha  occ. eigenvalues --   -0.76605  -0.71361  -0.71020  -0.70466  -0.70193
 Alpha  occ. eigenvalues --   -0.69856  -0.69699  -0.64396  -0.64232  -0.64173
 Alpha  occ. eigenvalues --   -0.64020  -0.61499  -0.61343  -0.54684  -0.54528
 Alpha  occ. eigenvalues --   -0.52497  -0.52330  -0.52256  -0.52102  -0.48099
 Alpha  occ. eigenvalues --   -0.48053  -0.47887  -0.47829  -0.44162  -0.43662
 Alpha  occ. eigenvalues --   -0.36753  -0.36584  -0.35773  -0.35610
 Alpha virt. eigenvalues --    0.05687   0.05987   0.11878   0.12041   0.17155
 Alpha virt. eigenvalues --    0.17425   0.21988   0.22122   0.27899   0.28025
 Alpha virt. eigenvalues --    0.28916   0.29057   0.31517   0.31644   0.33238

 Mulliken charges:
               1
     1  C   -0.171414
     2  C   -0.218811
     3  C   -0.168090
     4  C    0.158206
     5  C   -0.172038
     6  C   -0.219021
     7  H    0.222888
     8  H    0.222910
     9  H    0.282352
    10  H    0.272630
    11  H    0.220094
    12  N    0.487074
    13  O   -0.470475
    14  O   -0.446054
    15  C   -0.171340
    16  C   -0.219007
    17  C   -0.170529
    18  C    0.157352
    19  C   -0.171879
    20  C   -0.219001
    21  H    0.223510
    22  H    0.223590
    23  H    0.283702
    24  H    0.273054
    25  H    0.220722
    26  N    0.486435
    27  O   -0.469533
    28  O   -0.447327
 Sum of Mulliken charges =  -0.00000

 Dipole moment (field-independent basis, Debye):
    X=              0.5345    Y=             -0.8750    Z=              3.4118  Tot=              3.5625
 Quadrupole moment (field-independent basis, Debye-Ang):
   XX=            -54.7831   YY=           -105.2152   ZZ=           -102.5705
   XY=             13.5645   XZ=              0.5436   YZ=              0.2652

 Normal termination of Gaussian 16 at Fri May  7 03:33:39 2021.
