 Gaussian 16, Revision A.03,
 Gaussian 16:  EM64L-G16RevA.03 25-Dec-2016

 -------------
 #p 6-31g* mp2
 -------------

 ------------------------------------------------------
 Input file generated by CHIRIPA (05-May-2021 14:57:27)
 ------------------------------------------------------
 Symbolic Z-matrix:
 Charge =  0 Multiplicity = 1

                         Standard orientation:
 ---------------------------------------------------------------------
 Center     Atomic      Atomic             Coordinates (Angstroms)
 Number     Number       Type             X           Y           Z
 ---------------------------------------------------------------------
      1          6           0        1.728126    0.989881    0.007502
      2          6           0        2.818639    1.784715    0.375659
      3          6           0        4.122638    1.290000    0.278744
      4          6           0        4.300448   -0.009836   -0.192531
      5          6           0        3.234396   -0.826252   -0.567079
      6          6           0        1.939113   -0.310773   -0.461865
      7          1           0        0.718533    1.382252    0.086011
      8          1           0        2.657781    2.795186    0.740512
      9          1           0        4.984924    1.883713    0.556927
     10          1           0        3.426325   -1.829679   -0.927241
     11          1           0        1.094097   -0.930318   -0.748497
     12          7           0        5.676320   -0.544559   -0.299524
     13          8           0        5.806312   -1.692976   -0.717707
     14          8           0        6.598684    0.194867    0.036825
     15          6           0       -2.082746   -0.259216    1.714163
     16          6           0       -2.963363   -1.337537    1.579040
     17          6           0       -4.069766   -1.248473    0.729048
     18          6           0       -4.266165   -0.060802    0.026087
     19          6           0       -3.406758    1.030924    0.139406
     20          6           0       -2.306859    0.919495    0.995183
     21          1           0       -1.225792   -0.337090    2.376705
     22          1           0       -2.791801   -2.254170    2.136173
     23          1           0       -4.767369   -2.067948    0.605637
     24          1           0       -3.603986    1.931716   -0.429010
     25          1           0       -1.624623    1.758541    1.098151
     26          7           0       -5.434022    0.045324   -0.876824
     27          8           0       -5.584923    1.102600   -1.485127
     28          8           0       -6.176373   -0.930780   -0.959125
 ---------------------------------------------------------------------

 SCF Done:  E(RHF) =  -868.337080755     A.U. after   16 cycles
 E2 =    -0.2600034323D+01 EUMP2 =    -0.87093711507829D+03

 The electronic state is 1-A.
 Alpha  occ. eigenvalues --  -20.61472 -20.61465 -20.61213 -20.61208 -15.86534
 Alpha  occ. eigenvalues --  -15.86270 -11.32075 -11.31749 -11.28731 -11.28651
 Alpha  occ. eigenvalues --  -11.28482 -11.28317 -11.28305 -11.28143 -11.27839
 Alpha  occ. eigenvalues --  -11.27664 -11.27399 -11.27361  -1.60544  -1.60286
 Alpha  occ. eigenvalues --   -1.40092  -1.39836  -1.20290  -1.19934  -1.09653
 Alpha  occ. eigenvalues --   -1.09324  -1.05724  -1.05344  -0.96446  -0.96139
 Alpha  occ. eigenvalues --   -0.87117  -0.86742  -0.83278  -0.82959  -0.78294
 Alpha  occ. eigenvalues --   -0.77972  -0.72747  -0.72485  -0.71872  -0.71611
 Alpha  occ. eigenvalues --   -0.71387  -0.71090  -0.65939  -0.65752  -0.65588
 Alpha  occ. eigenvalues --   -0.65334  -0.63063  -0.62677  -0.56225  -0.55909
 Alpha  occ. eigenvalues --   -0.54030  -0.53794  -0.53678  -0.53432  -0.49520
 Alpha  occ. eigenvalues --   -0.49490  -0.49253  -0.49233  -0.45458  -0.45216
 Alpha  occ. eigenvalues --   -0.38309  -0.37937  -0.37333  -0.36944
 Alpha virt. eigenvalues --    0.04249   0.04546   0.10137   0.10693   0.15655
 Alpha virt. eigenvalues --    0.15965   0.18933   0.21700   0.24962   0.26727
 Alpha virt. eigenvalues --    0.27414   0.28709   0.29704   0.31149   0.32005

 Mulliken charges:
               1
     1  C   -0.176376
     2  C   -0.219155
     3  C   -0.170363
     4  C    0.159173
     5  C   -0.170673
     6  C   -0.221554
     7  H    0.221862
     8  H    0.223115
     9  H    0.277193
    10  H    0.277243
    11  H    0.226660
    12  N    0.487894
    13  O   -0.458982
    14  O   -0.459047
    15  C   -0.173542
    16  C   -0.219505
    17  C   -0.169200
    18  C    0.158669
    19  C   -0.169987
    20  C   -0.225540
    21  H    0.229100
    22  H    0.227246
    23  H    0.278956
    24  H    0.277552
    25  H    0.217702
    26  N    0.488030
    27  O   -0.458785
    28  O   -0.457687
 Sum of Mulliken charges =  -0.00000

 Dipole moment (field-independent basis, Debye):
    X=             -0.8546    Y=              1.3517    Z=              3.5367  Tot=              3.8814
 Quadrupole moment (field-independent basis, Debye-Ang):
   XX=           -180.2115   YY=            -96.8662   ZZ=           -105.2767
   XY=             13.0340   XZ=            -10.6839   YZ=             -0.2740

 Normal termination of Gaussian 16 at Thu May  6 21:25:05 2021.
