 Gaussian 16, Revision A.03,
 Gaussian 16:  EM64L-G16RevA.03 25-Dec-2016

 -------------
 #p 6-31g* mp2
 -------------

 ------------------------------------------------------
 Input file generated by CHIRIPA (05-May-2021 14:53:18)
 ------------------------------------------------------
 Symbolic Z-matrix:
 Charge =  0 Multiplicity = 1

                         Standard orientation:
 ---------------------------------------------------------------------
 Center     Atomic      Atomic             Coordinates (Angstroms)
 Number     Number       Type             X           Y           Z
 ---------------------------------------------------------------------
      1          6           0        2.847438    1.500248   -0.008276
      2          6           0        1.423349    1.933858   -0.357473
      3          6           0        1.168986    3.414009   -0.070688
      4          1           0        3.036898    1.707241    1.053893
      5          1           0        3.559886    2.112790   -0.578018
      6          1           0        0.713770    1.319746    0.211720
      7          1           0        1.237192    1.725632   -1.418889
      8          1           0        1.853861    4.041854   -0.649789
      9          1           0        1.327465    3.633661    0.990085
     10          1           0        0.144960    3.702516   -0.327584
     11          6           0        3.117070    0.023093   -0.289414
     12          6           0        4.541159   -0.410517    0.059783
     13          6           0        4.795522   -1.890668   -0.227002
     14          1           0        2.404622   -0.589448    0.280328
     15          1           0        2.927610   -0.183900   -1.351583
     16          1           0        4.727315   -0.202291    1.121199
     17          1           0        5.250737    0.203595   -0.509410
     18          1           0        4.637042   -2.110320   -1.287775
     19          1           0        4.110646   -2.518512    0.352099
     20          1           0        5.819547   -2.179175    0.029894
     21          6           0       -0.152585   -1.766743    0.618712
     22          6           0       -0.770147   -1.939993   -0.624318
     23          6           0       -1.976690   -1.295716   -0.913641
     24          6           0       -2.540379   -0.481781    0.067713
     25          6           0       -1.949434   -0.289197    1.315505
     26          6           0       -0.743159   -0.943350    1.582956
     27          1           0        0.784583   -2.271068    0.834970
     28          1           0       -0.313785   -2.578857   -1.375073
     29          1           0       -2.476270   -1.412220   -1.867719
     30          1           0       -2.428445    0.353922    2.043767
     31          1           0       -0.265804   -0.806954    2.549172
     32          7           0       -3.817551    0.205513   -0.227004
     33          8           0       -4.293827    0.917300    0.654563
     34          8           0       -4.318140    0.019415   -1.333989
 ---------------------------------------------------------------------

 SCF Done:  E(RHF) =  -669.534316116     A.U. after   15 cycles
 E2 =    -0.2094322885D+01 EUMP2 =    -0.67162863900026D+03

 The electronic state is 1-A.
 Alpha  occ. eigenvalues --  -20.60815 -20.60810 -15.85870 -11.31260 -11.27852
 Alpha  occ. eigenvalues --  -11.27832 -11.27569 -11.26857 -11.26826 -11.22272
 Alpha  occ. eigenvalues --  -11.22022 -11.21898 -11.21811 -11.21711 -11.21189
 Alpha  occ. eigenvalues --   -1.59890  -1.39443  -1.19449  -1.08979  -1.08804
 Alpha  occ. eigenvalues --   -1.04853  -1.03989  -0.96470  -0.95667  -0.87480
 Alpha  occ. eigenvalues --   -0.86245  -0.82502  -0.80072  -0.78750  -0.77532
 Alpha  occ. eigenvalues --   -0.72088  -0.71214  -0.70584  -0.65609  -0.65096
 Alpha  occ. eigenvalues --   -0.64840  -0.62192  -0.61405  -0.59848  -0.58065
 Alpha  occ. eigenvalues --   -0.55839  -0.55328  -0.53350  -0.53026  -0.52938
 Alpha  occ. eigenvalues --   -0.52883  -0.50427  -0.48851  -0.48841  -0.48374
 Alpha  occ. eigenvalues --   -0.47121  -0.46253  -0.46161  -0.44843  -0.44246
 Alpha  occ. eigenvalues --   -0.37318  -0.36427
 Alpha virt. eigenvalues --    0.04962   0.11154   0.16355   0.19893   0.22901
 Alpha virt. eigenvalues --    0.23555   0.25641   0.26584   0.27288   0.27685
 Alpha virt. eigenvalues --    0.29134   0.30171   0.31228   0.31714   0.32301

 Mulliken charges:
               1
     1  C   -0.297769
     2  C   -0.306742
     3  C   -0.476191
     4  H    0.147450
     5  H    0.151153
     6  H    0.159263
     7  H    0.151694
     8  H    0.155253
     9  H    0.153082
    10  H    0.164322
    11  C   -0.300200
    12  C   -0.299731
    13  C   -0.475067
    14  H    0.142970
    15  H    0.149538
    16  H    0.151797
    17  H    0.155389
    18  H    0.156028
    19  H    0.146460
    20  H    0.163994
    21  C   -0.166523
    22  C   -0.218113
    23  C   -0.170421
    24  C    0.159546
    25  C   -0.170601
    26  C   -0.221468
    27  H    0.226858
    28  H    0.224425
    29  H    0.275979
    30  H    0.276162
    31  H    0.223937
    32  N    0.488025
    33  O   -0.460300
    34  O   -0.460200
 Sum of Mulliken charges =  -0.00000

 Dipole moment (field-independent basis, Debye):
    X=              4.4459    Y=             -2.4090    Z=              0.9916  Tot=              5.1529
 Quadrupole moment (field-independent basis, Debye-Ang):
   XX=           -118.3248   YY=            -93.2864   ZZ=            -89.6760
   XY=              4.5077   XZ=             -2.6499   YZ=              1.1167

 Normal termination of Gaussian 16 at Thu May  6 19:01:12 2021.
