 Gaussian 16, Revision A.03,
 Gaussian 16:  EM64L-G16RevA.03 25-Dec-2016

 -------------
 #p 6-31g* mp2
 -------------

 ------------------------------------------------------
 Input file generated by CHIRIPA (05-May-2021 14:55:21)
 ------------------------------------------------------
 Symbolic Z-matrix:
 Charge =  0 Multiplicity = 1

                         Standard orientation:
 ---------------------------------------------------------------------
 Center     Atomic      Atomic             Coordinates (Angstroms)
 Number     Number       Type             X           Y           Z
 ---------------------------------------------------------------------
      1          6           0        4.549538    0.198017   -1.397794
      2          6           0        4.452942   -1.040756   -0.755431
      3          6           0        3.401346   -1.302429    0.127870
      4          6           0        2.459684   -0.298065    0.346541
      5          6           0        2.528584    0.946183   -0.278272
      6          6           0        3.588744    1.185792   -1.157588
      7          1           0        5.369769    0.392721   -2.082415
      8          1           0        5.197664   -1.809745   -0.940068
      9          1           0        3.302440   -2.252598    0.638569
     10          1           0        1.771005    1.693043   -0.074090
     11          1           0        3.661233    2.148767   -1.655051
     12          7           0        1.341873   -0.563406    1.279543
     13          8           0        0.525105    0.338076    1.455199
     14          8           0        1.303667   -1.667840    1.817506
     15          6           0       -3.673522   -0.179445   -0.741432
     16          6           0       -4.151563   -1.471864   -0.078776
     17          6           0       -4.727739   -2.472184   -1.081361
     18          1           0       -4.512978    0.281226   -1.279987
     19          1           0       -2.913220   -0.422303   -1.496652
     20          1           0       -4.909736   -1.226514    0.675937
     21          1           0       -3.310918   -1.929413    0.458422
     22          1           0       -3.975426   -2.745826   -1.828185
     23          1           0       -5.583329   -2.038934   -1.609434
     24          1           0       -5.063337   -3.388752   -0.586250
     25          6           0       -3.094895    0.830537    0.247938
     26          6           0       -2.616854    2.122957   -0.414718
     27          6           0       -2.040679    3.123277    0.587867
     28          1           0       -3.855196    1.073396    1.003158
     29          1           0       -2.255438    0.369867    0.786492
     30          1           0       -3.457499    2.580505   -0.951916
     31          1           0       -1.858680    1.877606   -1.169432
     32          1           0       -1.185089    2.690027    1.115940
     33          1           0       -2.792991    3.396919    1.334691
     34          1           0       -1.705080    4.039846    0.092755
 ---------------------------------------------------------------------

 SCF Done:  E(RHF) =  -669.536526040     A.U. after   15 cycles
 E2 =    -0.2091895405D+01 EUMP2 =    -0.67162842144511D+03

 The electronic state is 1-A.
 Alpha  occ. eigenvalues --  -20.61102 -20.61095 -15.86122 -11.31372 -11.27927
 Alpha  occ. eigenvalues --  -11.27922 -11.27654 -11.26920 -11.26909 -11.20739
 Alpha  occ. eigenvalues --  -11.20735 -11.20493 -11.20409 -11.20132 -11.20114
 Alpha  occ. eigenvalues --   -1.60154  -1.39713  -1.19535  -1.08953  -1.07466
 Alpha  occ. eigenvalues --   -1.04920  -1.02660  -0.95806  -0.95103  -0.86324
 Alpha  occ. eigenvalues --   -0.86125  -0.82647  -0.78733  -0.77712  -0.77247
 Alpha  occ. eigenvalues --   -0.72356  -0.71461  -0.70643  -0.65198  -0.64922
 Alpha  occ. eigenvalues --   -0.64077  -0.62268  -0.60049  -0.58482  -0.56720
 Alpha  occ. eigenvalues --   -0.55428  -0.54381  -0.53256  -0.53009  -0.51857
 Alpha  occ. eigenvalues --   -0.51530  -0.49223  -0.49101  -0.48910  -0.47046
 Alpha  occ. eigenvalues --   -0.45756  -0.45258  -0.44831  -0.44482  -0.42887
 Alpha  occ. eigenvalues --   -0.37510  -0.36518
 Alpha virt. eigenvalues --    0.04790   0.11134   0.16280   0.20903   0.23570
 Alpha virt. eigenvalues --    0.24604   0.26994   0.27450   0.28049   0.28785
 Alpha virt. eigenvalues --    0.29101   0.30740   0.31641   0.32427   0.32591

 Mulliken charges:
               1
     1  C   -0.170308
     2  C   -0.218633
     3  C   -0.170571
     4  C    0.157342
     5  C   -0.171180
     6  C   -0.218821
     7  H    0.226368
     8  H    0.224107
     9  H    0.275937
    10  H    0.277388
    11  H    0.224488
    12  N    0.494283
    13  O   -0.466547
    14  O   -0.457847
    15  C   -0.296786
    16  C   -0.300520
    17  C   -0.474937
    18  H    0.144859
    19  H    0.145100
    20  H    0.150820
    21  H    0.158727
    22  H    0.152814
    23  H    0.152611
    24  H    0.158865
    25  C   -0.310401
    26  C   -0.294347
    27  C   -0.485532
    28  H    0.145715
    29  H    0.178039
    30  H    0.146518
    31  H    0.143933
    32  H    0.174714
    33  H    0.153804
    34  H    0.149995
 Sum of Mulliken charges =  -0.00000

 Dipole moment (field-independent basis, Debye):
    X=              4.2693    Y=              0.7910    Z=             -3.0856  Tot=              5.3267
 Quadrupole moment (field-independent basis, Debye-Ang):
   XX=            -75.4025   YY=            -92.4414   ZZ=            -98.0774
   XY=             -1.2594   XZ=             -7.6230   YZ=             -0.0207

 Normal termination of Gaussian 16 at Wed May  5 17:28:03 2021.
