 Gaussian 16, Revision A.03,
 Gaussian 16:  EM64L-G16RevA.03 25-Dec-2016

 -------------
 #p 6-31g* mp2
 -------------

 ------------------------------------------------------
 Input file generated by CHIRIPA (05-May-2021 14:51:14)
 ------------------------------------------------------
 Symbolic Z-matrix:
 Charge =  0 Multiplicity = 1

                         Standard orientation:
 ---------------------------------------------------------------------
 Center     Atomic      Atomic             Coordinates (Angstroms)
 Number     Number       Type             X           Y           Z
 ---------------------------------------------------------------------
      1          6           0       -2.718399   -0.069372   -0.472388
      2          6           0       -4.169731    0.186945   -0.879722
      3          6           0       -4.303665    1.295962   -1.923722
      4          1           0       -2.284867    0.860434   -0.079378
      5          1           0       -2.135281   -0.333021   -1.365617
      6          1           0       -4.750233    0.448682    0.014217
      7          1           0       -4.599916   -0.743628   -1.271630
      8          1           0       -3.749016    1.039041   -2.831993
      9          1           0       -3.900187    2.238126   -1.538841
     10          1           0       -5.349361    1.462618   -2.200498
     11          6           0       -2.568221   -1.175342    0.570687
     12          6           0       -1.116888   -1.431659    0.978020
     13          6           0       -0.982954   -2.540676    2.022021
     14          1           0       -3.151338   -0.911692    1.463915
     15          1           0       -3.001752   -2.105148    0.177676
     16          1           0       -0.686703   -0.501086    1.369928
     17          1           0       -0.536386   -1.693396    0.084081
     18          1           0       -1.386432   -3.482840    1.637139
     19          1           0       -1.537603   -2.283755    2.930292
     20          1           0        0.062742   -2.707332    2.298797
     21          6           0        3.281781    0.221827   -0.173094
     22          6           0        3.233492   -0.615978   -1.451270
     23          6           0        4.517999   -1.411576   -1.685488
     24          1           0        4.136598    0.909941   -0.225375
     25          1           0        3.465542   -0.440341    0.684320
     26          1           0        3.048498    0.047404   -2.305856
     27          1           0        2.378577   -1.302045   -1.396024
     28          1           0        4.704447   -2.096321   -0.851843
     29          1           0        5.378174   -0.739205   -1.766845
     30          1           0        4.461805   -2.003296   -2.604493
     31          6           0        2.004838    1.022887    0.074796
     32          6           0        2.053128    1.860693    1.352972
     33          6           0        0.768620    2.656290    1.587189
     34          1           0        1.821077    1.685055   -0.782620
     35          1           0        1.150022    0.334773    0.127076
     36          1           0        2.908042    2.546758    1.297725
     37          1           0        2.238121    1.197309    2.207557
     38          1           0       -0.091555    1.983919    1.668547
     39          1           0        0.582172    3.341035    0.753544
     40          1           0        0.824814    3.248009    2.506194
 ---------------------------------------------------------------------

 SCF Done:  E(RHF) =  -470.732613845     A.U. after   11 cycles
 E2 =    -0.1584364648D+01 EUMP2 =    -0.47231697849313D+03

 The electronic state is 1-A.
 Alpha  occ. eigenvalues --  -11.21701 -11.21618 -11.21577 -11.21570 -11.21456
 Alpha  occ. eigenvalues --  -11.21385 -11.21325 -11.21200 -11.21162 -11.21097
 Alpha  occ. eigenvalues --  -11.21072 -11.21053  -1.08503  -1.08363  -1.03599
 Alpha  occ. eigenvalues --   -1.03501  -0.96030  -0.95950  -0.87051  -0.86968
 Alpha  occ. eigenvalues --   -0.79724  -0.79544  -0.78435  -0.78042  -0.65184
 Alpha  occ. eigenvalues --   -0.64969  -0.61101  -0.60810  -0.59420  -0.59297
 Alpha  occ. eigenvalues --   -0.57662  -0.57546  -0.55313  -0.55245  -0.52735
 Alpha  occ. eigenvalues --   -0.52656  -0.52474  -0.52364  -0.49972  -0.49911
 Alpha  occ. eigenvalues --   -0.48161  -0.47860  -0.46832  -0.46532  -0.46220
 Alpha  occ. eigenvalues --   -0.45738  -0.45680  -0.45029  -0.43829  -0.43738
 Alpha virt. eigenvalues --    0.20377   0.22552   0.23469   0.24482   0.25335
 Alpha virt. eigenvalues --    0.26078   0.26943   0.27897   0.28598   0.29616
 Alpha virt. eigenvalues --    0.30520   0.31639   0.31800   0.31961   0.32101

 Mulliken charges:
               1
     1  C   -0.301316
     2  C   -0.299567
     3  C   -0.475785
     4  H    0.152178
     5  H    0.149980
     6  H    0.151993
     7  H    0.151971
     8  H    0.155254
     9  H    0.155586
    10  H    0.160253
    11  C   -0.297298
    12  C   -0.309969
    13  C   -0.474946
    14  H    0.149582
    15  H    0.149908
    16  H    0.159472
    17  H    0.153342
    18  H    0.155665
    19  H    0.155588
    20  H    0.159951
    21  C   -0.297425
    22  C   -0.300323
    23  C   -0.475627
    24  H    0.149211
    25  H    0.148816
    26  H    0.151923
    27  H    0.151829
    28  H    0.155087
    29  H    0.155250
    30  H    0.159987
    31  C   -0.308445
    32  C   -0.299202
    33  C   -0.480781
    34  H    0.148592
    35  H    0.162154
    36  H    0.151947
    37  H    0.151292
    38  H    0.157897
    39  H    0.155629
    40  H    0.160348
 Sum of Mulliken charges =  -0.00000

 Dipole moment (field-independent basis, Debye):
    X=             -0.0538    Y=             -0.0203    Z=              0.0008  Tot=              0.0575
 Quadrupole moment (field-independent basis, Debye-Ang):
   XX=            -85.5320   YY=            -84.7248   ZZ=            -84.6218
   XY=              0.9842   XZ=             -0.2025   YZ=              0.4566

 Normal termination of Gaussian 16 at Thu May  6 05:36:28 2021.
