 Gaussian 16, Revision A.03,
 Gaussian 16:  EM64L-G16RevA.03 25-Dec-2016

 -------------
 #p 6-31g* mp2
 -------------

 ------------------------------------------------------
 Input file generated by CHIRIPA (05-May-2021 14:55:18)
 ------------------------------------------------------
 Symbolic Z-matrix:
 Charge =  0 Multiplicity = 1

                         Standard orientation:
 ---------------------------------------------------------------------
 Center     Atomic      Atomic             Coordinates (Angstroms)
 Number     Number       Type             X           Y           Z
 ---------------------------------------------------------------------
      1          6           0        3.007608   -2.410888    0.377402
      2          6           0        2.512238   -1.804043   -0.781421
      3          6           0        2.604137   -0.419571   -0.952712
      4          6           0        3.200169    0.331039    0.059523
      5          6           0        3.703088   -0.244226    1.225470
      6          6           0        3.600407   -1.630419    1.375389
      7          1           0        2.932031   -3.487047    0.502164
      8          1           0        2.051362   -2.407669   -1.558127
      9          1           0        2.228905    0.076124   -1.839789
     10          1           0        4.157237    0.383802    1.982270
     11          1           0        3.985985   -2.098988    2.276398
     12          7           0        3.303166    1.797628   -0.110503
     13          8           0        3.832725    2.436709    0.796018
     14          8           0        2.852384    2.280289   -1.147070
     15          6           0       -4.581180    0.006967    0.446494
     16          6           0       -5.961571    0.419077   -0.066020
     17          6           0       -6.964275    0.658174    1.063233
     18          1           0       -4.678844   -0.904996    1.051251
     19          1           0       -4.198941    0.788027    1.118234
     20          1           0       -6.340497   -0.361886   -0.737681
     21          1           0       -5.860583    1.330057   -0.669785
     22          1           0       -6.611856    1.452066    1.729669
     23          1           0       -7.094496   -0.249491    1.661387
     24          1           0       -7.944324    0.951763    0.674427
     25          6           0       -3.567798   -0.235646   -0.670610
     26          6           0       -2.187406   -0.647756   -0.158095
     27          6           0       -1.184702   -0.886852   -1.287348
     28          1           0       -3.950036   -1.016706   -1.342349
     29          1           0       -3.470133    0.676318   -1.275366
     30          1           0       -2.288395   -1.558736    0.445669
     31          1           0       -1.808481    0.133208    0.513566
     32          1           0       -1.054481    0.020813   -1.885502
     33          1           0       -1.537122   -1.680744   -1.953784
     34          1           0       -0.204654   -1.180441   -0.898542
 ---------------------------------------------------------------------

 SCF Done:  E(RHF) =  -669.534688049     A.U. after   15 cycles
 E2 =    -0.2092305252D+01 EUMP2 =    -0.67162699330120D+03

 The electronic state is 1-A.
 Alpha  occ. eigenvalues --  -20.60792 -20.60787 -15.85847 -11.31219 -11.27796
 Alpha  occ. eigenvalues --  -11.27783 -11.27544 -11.26809 -11.26784 -11.21773
 Alpha  occ. eigenvalues --  -11.21631 -11.21482 -11.21413 -11.21287 -11.21087
 Alpha  occ. eigenvalues --   -1.59868  -1.39421  -1.19411  -1.08798  -1.08518
 Alpha  occ. eigenvalues --   -1.04825  -1.03640  -0.96110  -0.95626  -0.87140
 Alpha  occ. eigenvalues --   -0.86203  -0.82464  -0.79718  -0.78325  -0.77502
 Alpha  occ. eigenvalues --   -0.72065  -0.71192  -0.70505  -0.65147  -0.65061
 Alpha  occ. eigenvalues --   -0.64809  -0.62176  -0.61036  -0.59506  -0.57731
 Alpha  occ. eigenvalues --   -0.55393  -0.55304  -0.53466  -0.52899  -0.52638
 Alpha  occ. eigenvalues --   -0.52370  -0.50041  -0.48825  -0.48818  -0.48025
 Alpha  occ. eigenvalues --   -0.46734  -0.45871  -0.45784  -0.44824  -0.43918
 Alpha  occ. eigenvalues --   -0.37391  -0.36310
 Alpha virt. eigenvalues --    0.05018   0.11186   0.16413   0.21154   0.22833
 Alpha virt. eigenvalues --    0.24300   0.26415   0.26635   0.27467   0.28074
 Alpha virt. eigenvalues --    0.28798   0.30405   0.31388   0.31802   0.32304

 Mulliken charges:
               1
     1  C   -0.171613
     2  C   -0.221470
     3  C   -0.167946
     4  C    0.158249
     5  C   -0.170976
     6  C   -0.218646
     7  H    0.226022
     8  H    0.226427
     9  H    0.277800
    10  H    0.275785
    11  H    0.223649
    12  N    0.488137
    13  O   -0.460416
    14  O   -0.460283
    15  C   -0.298525
    16  C   -0.299814
    17  C   -0.475806
    18  H    0.148464
    19  H    0.151105
    20  H    0.151280
    21  H    0.153188
    22  H    0.156012
    23  H    0.154511
    24  H    0.160527
    25  C   -0.298871
    26  C   -0.297573
    27  C   -0.488169
    28  H    0.148272
    29  H    0.152133
    30  H    0.149618
    31  H    0.155307
    32  H    0.158208
    33  H    0.151076
    34  H    0.164339
 Sum of Mulliken charges =  -0.00000

 Dipole moment (field-independent basis, Debye):
    X=             -0.3201    Y=             -5.1259    Z=              0.6301  Tot=              5.1744
 Quadrupole moment (field-independent basis, Debye-Ang):
   XX=            -97.2569   YY=            -97.9071   ZZ=            -91.4462
   XY=            -16.4287   XZ=              4.7717   YZ=              0.0597

 Normal termination of Gaussian 16 at Wed May  5 15:48:01 2021.
