 Gaussian 16, Revision A.03,
 Gaussian 16:  EM64L-G16RevA.03 25-Dec-2016

 -------------
 #p 6-31g* mp2
 -------------

 ------------------------------------------------------
 Input file generated by CHIRIPA (05-May-2021 14:55:23)
 ------------------------------------------------------
 Symbolic Z-matrix:
 Charge =  0 Multiplicity = 1

                         Standard orientation:
 ---------------------------------------------------------------------
 Center     Atomic      Atomic             Coordinates (Angstroms)
 Number     Number       Type             X           Y           Z
 ---------------------------------------------------------------------
      1          6           0        4.395987   -2.126459    0.496847
      2          6           0        3.669648   -1.474006    1.498475
      3          6           0        2.932174   -0.322999    1.205451
      4          6           0        2.943375    0.150178   -0.105758
      5          6           0        3.656995   -0.477526   -1.125573
      6          6           0        4.387357   -1.627017   -0.809677
      7          1           0        4.966112   -3.019999    0.733359
      8          1           0        3.674519   -1.859620    2.514016
      9          1           0        2.361000    0.201829    1.961582
     10          1           0        3.632845   -0.069320   -2.128669
     11          1           0        4.950512   -2.131653   -1.589577
     12          7           0        2.166408    1.367895   -0.428076
     13          8           0        2.192566    1.764665   -1.591058
     14          8           0        1.545976    1.902514    0.488375
     15          6           0       -4.378858   -0.497928    0.325701
     16          6           0       -4.850022   -1.451052   -0.773181
     17          6           0       -5.744244   -2.571186   -0.240773
     18          1           0       -3.836157   -1.070044    1.090622
     19          1           0       -5.255754   -0.062528    0.824576
     20          1           0       -3.972493   -1.883468   -1.270751
     21          1           0       -5.391498   -0.876571   -1.535671
     22          1           0       -6.637128   -2.156556    0.238227
     23          1           0       -5.210061   -3.169175    0.504652
     24          1           0       -6.069596   -3.240781   -1.043051
     25          6           0       -3.483998    0.627249   -0.190954
     26          6           0       -3.012834    1.580374    0.907929
     27          6           0       -2.118612    2.700508    0.375521
     28          1           0       -2.607103    0.191850   -0.689829
     29          1           0       -4.026698    1.199366   -0.955874
     30          1           0       -2.471358    1.005892    1.670418
     31          1           0       -3.890362    2.012790    1.405499
     32          1           0       -2.652794    3.298497   -0.369905
     33          1           0       -1.225727    2.285878   -0.103479
     34          1           0       -1.793261    3.370103    1.177797
 ---------------------------------------------------------------------

 SCF Done:  E(RHF) =  -669.535996960     A.U. after   15 cycles
 E2 =    -0.2090947849D+01 EUMP2 =    -0.67162694480944D+03

 The electronic state is 1-A.
 Alpha  occ. eigenvalues --  -20.60965 -20.60952 -15.85987 -11.31313 -11.27876
 Alpha  occ. eigenvalues --  -11.27872 -11.27613 -11.26882 -11.26872 -11.21210
 Alpha  occ. eigenvalues --  -11.20866 -11.20790 -11.20653 -11.20591 -11.19519
 Alpha  occ. eigenvalues --   -1.60023  -1.39578  -1.19481  -1.08885  -1.07769
 Alpha  occ. eigenvalues --   -1.04877  -1.02769  -0.95727  -0.95186  -0.86278
 Alpha  occ. eigenvalues --   -0.86195  -0.82557  -0.78869  -0.77612  -0.77544
 Alpha  occ. eigenvalues --   -0.72202  -0.71342  -0.70588  -0.65135  -0.64879
 Alpha  occ. eigenvalues --   -0.64409  -0.62223  -0.60165  -0.58635  -0.56798
 Alpha  occ. eigenvalues --   -0.55382  -0.54471  -0.53209  -0.52967  -0.51863
 Alpha  occ. eigenvalues --   -0.51614  -0.49290  -0.48964  -0.48805  -0.47157
 Alpha  occ. eigenvalues --   -0.45932  -0.45127  -0.45063  -0.44805  -0.43034
 Alpha  occ. eigenvalues --   -0.37460  -0.36478
 Alpha virt. eigenvalues --    0.04889   0.11177   0.16380   0.21314   0.23461
 Alpha virt. eigenvalues --    0.25134   0.27219   0.27278   0.28106   0.28192
 Alpha virt. eigenvalues --    0.28928   0.30874   0.32151   0.32379   0.32496

 Mulliken charges:
               1
     1  C   -0.170572
     2  C   -0.218567
     3  C   -0.170964
     4  C    0.158143
     5  C   -0.170808
     6  C   -0.218579
     7  H    0.226086
     8  H    0.223912
     9  H    0.275911
    10  H    0.275956
    11  H    0.223913
    12  N    0.487521
    13  O   -0.458999
    14  O   -0.458608
    15  C   -0.297297
    16  C   -0.298958
    17  C   -0.475162
    18  H    0.146770
    19  H    0.148484
    20  H    0.150634
    21  H    0.152077
    22  H    0.154880
    23  H    0.153412
    24  H    0.158736
    25  C   -0.297389
    26  C   -0.299441
    27  C   -0.478319
    28  H    0.148998
    29  H    0.149141
    30  H    0.148047
    31  H    0.146938
    32  H    0.148479
    33  H    0.176256
    34  H    0.159370
 Sum of Mulliken charges =  -0.00000

 Dipole moment (field-independent basis, Debye):
    X=              3.0394    Y=             -4.2381    Z=              1.0950  Tot=              5.3290
 Quadrupole moment (field-independent basis, Debye-Ang):
   XX=            -79.4881   YY=            -97.2400   ZZ=            -90.6115
   XY=            -13.7385   XZ=              1.8735   YZ=              0.9627

 Normal termination of Gaussian 16 at Thu May  6 17:38:06 2021.
