 Gaussian 16, Revision A.03,
 Gaussian 16:  EM64L-G16RevA.03 25-Dec-2016

 -------------
 #p 6-31g* mp2
 -------------

 ------------------------------------------------------
 Input file generated by CHIRIPA (05-May-2021 14:51:13)
 ------------------------------------------------------
 Symbolic Z-matrix:
 Charge =  0 Multiplicity = 1

                         Standard orientation:
 ---------------------------------------------------------------------
 Center     Atomic      Atomic             Coordinates (Angstroms)
 Number     Number       Type             X           Y           Z
 ---------------------------------------------------------------------
      1          6           0       -2.949718   -0.350727   -0.743197
      2          6           0       -4.112516   -0.981926    0.023271
      3          6           0       -4.512264   -2.349917   -0.530440
      4          1           0       -3.226864   -0.252689   -1.801744
      5          1           0       -2.085505   -1.028429   -0.707830
      6          1           0       -4.973841   -0.302613   -0.012357
      7          1           0       -3.832642   -1.078297    1.080153
      8          1           0       -3.669713   -3.047162   -0.479879
      9          1           0       -4.817396   -2.267071   -1.578597
     10          1           0       -5.345214   -2.782953    0.032175
     11          6           0       -2.538549    1.017190   -0.201467
     12          6           0       -1.375750    1.648389   -0.967935
     13          6           0       -0.976002    3.016380   -0.414224
     14          1           0       -3.402761    1.694892   -0.236834
     15          1           0       -2.261403    0.919152    0.857081
     16          1           0       -1.655625    1.744760   -2.024817
     17          1           0       -0.514425    0.969076   -0.932307
     18          1           0       -0.670870    2.933534    0.633933
     19          1           0       -1.818554    3.713625   -0.464785
     20          1           0       -0.143053    3.449416   -0.976838
     21          6           0        2.066467   -0.050545    0.682781
     22          6           0        1.698498   -0.372747    2.131494
     23          6           0        0.340065    0.199513    2.537662
     24          1           0        2.070437    1.039499    0.545911
     25          1           0        1.286963   -0.446316    0.017097
     26          1           0        2.479159    0.022307    2.794153
     27          1           0        1.695591   -1.462145    2.264980
     28          1           0       -0.453833   -0.203614    1.900626
     29          1           0        0.334188    1.289271    2.432807
     30          1           0        0.096933   -0.042630    3.576947
     31          6           0        3.421800   -0.615918    0.261883
     32          6           0        3.789768   -0.293717   -1.186831
     33          6           0        5.148201   -0.865976   -1.592999
     34          1           0        4.201304   -0.220147    0.927566
     35          1           0        3.417829   -1.705962    0.398753
     36          1           0        3.792675    0.795682   -1.320316
     37          1           0        3.009107   -0.688769   -1.849489
     38          1           0        5.154078   -1.955734   -1.488143
     39          1           0        5.942099   -0.462849   -0.955963
     40          1           0        5.391333   -0.623832   -2.632283
 ---------------------------------------------------------------------

 SCF Done:  E(RHF) =  -470.732342889     A.U. after   11 cycles
 E2 =    -0.1584978058D+01 EUMP2 =    -0.47231732094671D+03

 The electronic state is 1-A.
 Alpha  occ. eigenvalues --  -11.21691 -11.21639 -11.21588 -11.21471 -11.21458
 Alpha  occ. eigenvalues --  -11.21408 -11.21368 -11.21239 -11.21167 -11.21098
 Alpha  occ. eigenvalues --  -11.21067 -11.20991  -1.08518  -1.08361  -1.03617
 Alpha  occ. eigenvalues --   -1.03456  -0.96060  -0.95928  -0.87079  -0.86947
 Alpha  occ. eigenvalues --   -0.79675  -0.79543  -0.78344  -0.78171  -0.65222
 Alpha  occ. eigenvalues --   -0.64959  -0.61002  -0.60912  -0.59386  -0.59304
 Alpha  occ. eigenvalues --   -0.57678  -0.57528  -0.55523  -0.55070  -0.52746
 Alpha  occ. eigenvalues --   -0.52633  -0.52510  -0.52347  -0.50100  -0.49792
 Alpha  occ. eigenvalues --   -0.48127  -0.47761  -0.46753  -0.46553  -0.46068
 Alpha  occ. eigenvalues --   -0.45803  -0.45563  -0.45321  -0.43853  -0.43725
 Alpha virt. eigenvalues --    0.19956   0.22968   0.23192   0.24683   0.25256
 Alpha virt. eigenvalues --    0.25894   0.26423   0.28076   0.28744   0.29486
 Alpha virt. eigenvalues --    0.30709   0.31308   0.31846   0.31941   0.32342

 Mulliken charges:
               1
     1  C   -0.299226
     2  C   -0.299644
     3  C   -0.475606
     4  H    0.149918
     5  H    0.147781
     6  H    0.152270
     7  H    0.151811
     8  H    0.154782
     9  H    0.155197
    10  H    0.160276
    11  C   -0.303584
    12  C   -0.305433
    13  C   -0.478419
    14  H    0.149413
    15  H    0.155550
    16  H    0.151149
    17  H    0.159325
    18  H    0.157675
    19  H    0.154722
    20  H    0.159361
    21  C   -0.303358
    22  C   -0.299559
    23  C   -0.483010
    24  H    0.151977
    25  H    0.152341
    26  H    0.152399
    27  H    0.151980
    28  H    0.159932
    29  H    0.157906
    30  H    0.160855
    31  C   -0.297739
    32  C   -0.299872
    33  C   -0.475731
    34  H    0.149802
    35  H    0.149648
    36  H    0.152161
    37  H    0.151983
    38  H    0.155222
    39  H    0.155266
    40  H    0.160480
 Sum of Mulliken charges =  -0.00000

 Dipole moment (field-independent basis, Debye):
    X=              0.0500    Y=             -0.0089    Z=              0.0340  Tot=              0.0611
 Quadrupole moment (field-independent basis, Debye-Ang):
   XX=            -85.2147   YY=            -85.0480   ZZ=            -84.5469
   XY=              0.0541   XZ=              0.8349   YZ=             -0.4139

 Normal termination of Gaussian 16 at Wed May  5 18:21:15 2021.
