 Gaussian 16, Revision A.03,
 Gaussian 16:  EM64L-G16RevA.03 25-Dec-2016

 -------------
 #p 6-31g* mp2
 -------------

 ------------------------------------------------------
 Input file generated by CHIRIPA (05-May-2021 14:55:22)
 ------------------------------------------------------
 Symbolic Z-matrix:
 Charge =  0 Multiplicity = 1

                         Standard orientation:
 ---------------------------------------------------------------------
 Center     Atomic      Atomic             Coordinates (Angstroms)
 Number     Number       Type             X           Y           Z
 ---------------------------------------------------------------------
      1          6           0        3.709253    1.151937    1.216875
      2          6           0        4.114684    0.478576    0.059838
      3          6           0        3.283254   -0.475221   -0.534758
      4          6           0        2.047445   -0.732013    0.056954
      5          6           0        1.615213   -0.077809    1.209553
      6          6           0        2.463009    0.872088    1.787034
      7          1           0        4.361485    1.891355    1.672123
      8          1           0        5.081992    0.693873   -0.385142
      9          1           0        3.572161   -1.011234   -1.430660
     10          1           0        0.645247   -0.313895    1.630084
     11          1           0        2.145530    1.393486    2.685586
     12          7           0        1.158585   -1.739691   -0.563459
     13          8           0        0.074652   -1.947800   -0.022702
     14          8           0        1.562659   -2.302319   -1.578747
     15          6           0       -2.539082    1.425204   -0.344685
     16          6           0       -1.192144    1.423270   -1.068383
     17          6           0       -0.666711    2.832588   -1.343220
     18          1           0       -3.271162    1.979952   -0.947395
     19          1           0       -2.437167    1.970934    0.603570
     20          1           0       -1.296224    0.876517   -2.014345
     21          1           0       -0.463234    0.868299   -0.463970
     22          1           0       -0.534556    3.383911   -0.406641
     23          1           0       -1.372280    3.392175   -1.965824
     24          1           0        0.297108    2.807791   -1.861195
     25          6           0       -3.077404    0.023590   -0.062882
     26          6           0       -4.424342    0.025524    0.660817
     27          6           0       -4.949775   -1.383794    0.935654
     28          1           0       -3.179319   -0.522139   -1.011137
     29          1           0       -2.345324   -0.531157    0.539828
     30          1           0       -5.153252    0.580495    0.056404
     31          1           0       -4.320262    0.572277    1.606778
     32          1           0       -4.244206   -1.943381    1.558257
     33          1           0       -5.081930   -1.935117   -0.000926
     34          1           0       -5.913594   -1.358997    1.453629
 ---------------------------------------------------------------------

 SCF Done:  E(RHF) =  -669.534769964     A.U. after   15 cycles
 E2 =    -0.2094652853D+01 EUMP2 =    -0.67162942281741D+03

 The electronic state is 1-A.
 Alpha  occ. eigenvalues --  -20.60944 -20.60925 -15.85950 -11.31295 -11.27875
 Alpha  occ. eigenvalues --  -11.27861 -11.27601 -11.26879 -11.26865 -11.21124
 Alpha  occ. eigenvalues --  -11.20972 -11.20898 -11.20861 -11.20467 -11.20407
 Alpha  occ. eigenvalues --   -1.59987  -1.39548  -1.19480  -1.08872  -1.07838
 Alpha  occ. eigenvalues --   -1.04882  -1.03020  -0.95714  -0.95459  -0.86487
 Alpha  occ. eigenvalues --   -0.86276  -0.82552  -0.79104  -0.77775  -0.77430
 Alpha  occ. eigenvalues --   -0.72188  -0.71300  -0.70590  -0.65144  -0.64903
 Alpha  occ. eigenvalues --   -0.64464  -0.62229  -0.60446  -0.58846  -0.57064
 Alpha  occ. eigenvalues --   -0.55376  -0.54772  -0.53201  -0.52969  -0.52191
 Alpha  occ. eigenvalues --   -0.51869  -0.49410  -0.48976  -0.48936  -0.47418
 Alpha  occ. eigenvalues --   -0.46195  -0.45505  -0.45098  -0.44411  -0.43229
 Alpha  occ. eigenvalues --   -0.37414  -0.36442
 Alpha virt. eigenvalues --    0.04897   0.11075   0.16394   0.20920   0.23237
 Alpha virt. eigenvalues --    0.24774   0.26164   0.27549   0.27623   0.28254
 Alpha virt. eigenvalues --    0.29133   0.31258   0.31853   0.32032   0.32437

 Mulliken charges:
               1
     1  C   -0.170373
     2  C   -0.218390
     3  C   -0.170932
     4  C    0.161288
     5  C   -0.174767
     6  C   -0.218258
     7  H    0.226213
     8  H    0.223962
     9  H    0.275949
    10  H    0.275746
    11  H    0.224042
    12  N    0.492597
    13  O   -0.461242
    14  O   -0.458698
    15  C   -0.298047
    16  C   -0.304744
    17  C   -0.473911
    18  H    0.147845
    19  H    0.141585
    20  H    0.157008
    21  H    0.152236
    22  H    0.149547
    23  H    0.155139
    24  H    0.157728
    25  C   -0.303477
    26  C   -0.299444
    27  C   -0.474745
    28  H    0.154393
    29  H    0.165511
    30  H    0.149026
    31  H    0.146110
    32  H    0.157396
    33  H    0.157431
    34  H    0.156275
 Sum of Mulliken charges =  -0.00000

 Dipole moment (field-independent basis, Debye):
    X=              3.3050    Y=              3.3190    Z=              2.1314  Tot=              5.1461
 Quadrupole moment (field-independent basis, Debye-Ang):
   XX=            -80.3471   YY=           -101.8552   ZZ=            -91.5909
   XY=              4.4475   XZ=              2.7966   YZ=             -0.2867

 Normal termination of Gaussian 16 at Thu May  6 19:12:19 2021.
