 Gaussian 16, Revision A.03,
 Gaussian 16:  EM64L-G16RevA.03 25-Dec-2016

 -------------
 #p 6-31g* mp2
 -------------

 ------------------------------------------------------
 Input file generated by CHIRIPA (05-May-2021 14:55:22)
 ------------------------------------------------------
 Symbolic Z-matrix:
 Charge =  0 Multiplicity = 1

                         Standard orientation:
 ---------------------------------------------------------------------
 Center     Atomic      Atomic             Coordinates (Angstroms)
 Number     Number       Type             X           Y           Z
 ---------------------------------------------------------------------
      1          6           0       -2.356103    1.879337    1.622414
      2          6           0       -1.528419    1.941678    0.496549
      3          6           0       -1.507167    0.893191   -0.427990
      4          6           0       -2.330145   -0.207464   -0.194418
      5          6           0       -3.165675   -0.299034    0.917695
      6          6           0       -3.170653    0.761151    1.829030
      7          1           0       -2.366291    2.698370    2.335490
      8          1           0       -0.894772    2.808834    0.333525
      9          1           0       -0.876009    0.915461   -1.308082
     10          1           0       -3.786195   -1.176538    1.053194
     11          1           0       -3.814450    0.710011    2.702503
     12          7           0       -2.316261   -1.323642   -1.166196
     13          8           0       -3.050702   -2.282278   -0.937614
     14          8           0       -1.571200   -1.218731   -2.138058
     15          6           0        2.761505   -0.695136    0.129317
     16          6           0        3.725624   -1.532464    0.970354
     17          6           0        3.263813   -2.981009    1.132337
     18          1           0        1.766796   -0.714436    0.595287
     19          1           0        2.651912   -1.158917   -0.860779
     20          1           0        3.834439   -1.066480    1.958096
     21          1           0        4.718199   -1.511012    0.502431
     22          1           0        3.173159   -3.467919    0.155965
     23          1           0        2.284378   -3.020862    1.619901
     24          1           0        3.967613   -3.561541    1.736909
     25          6           0        3.209524    0.755307   -0.041620
     26          6           0        2.245405    1.592635   -0.882656
     27          6           0        2.707216    3.041180   -1.044640
     28          1           0        3.319118    1.219088    0.948477
     29          1           0        4.204233    0.774607   -0.507589
     30          1           0        1.252830    1.571182   -0.414733
     31          1           0        2.136590    1.126651   -1.870399
     32          1           0        3.686652    3.081033   -1.532203
     33          1           0        2.797871    3.528089   -0.068267
     34          1           0        2.003416    3.621712   -1.649212
 ---------------------------------------------------------------------

 SCF Done:  E(RHF) =  -669.534731061     A.U. after   15 cycles
 E2 =    -0.2093117594D+01 EUMP2 =    -0.67162784865468D+03

 The electronic state is 1-A.
 Alpha  occ. eigenvalues --  -20.60767 -20.60762 -15.85822 -11.31198 -11.27787
 Alpha  occ. eigenvalues --  -11.27737 -11.27531 -11.26799 -11.26778 -11.22044
 Alpha  occ. eigenvalues --  -11.21628 -11.21621 -11.21568 -11.21361 -11.20916
 Alpha  occ. eigenvalues --   -1.59841  -1.39394  -1.19388  -1.08776  -1.08607
 Alpha  occ. eigenvalues --   -1.04804  -1.03733  -0.96163  -0.95607  -0.87180
 Alpha  occ. eigenvalues --   -0.86183  -0.82457  -0.79855  -0.78401  -0.77455
 Alpha  occ. eigenvalues --   -0.72040  -0.71165  -0.70492  -0.65295  -0.65008
 Alpha  occ. eigenvalues --   -0.64788  -0.62215  -0.61081  -0.59555  -0.57767
 Alpha  occ. eigenvalues --   -0.55443  -0.55283  -0.53158  -0.52914  -0.52844
 Alpha  occ. eigenvalues --   -0.52562  -0.50098  -0.48800  -0.48795  -0.48118
 Alpha  occ. eigenvalues --   -0.46868  -0.45921  -0.45810  -0.44792  -0.43962
 Alpha  occ. eigenvalues --   -0.37371  -0.36334
 Alpha virt. eigenvalues --    0.05011   0.11225   0.16366   0.20539   0.22935
 Alpha virt. eigenvalues --    0.23975   0.26298   0.26449   0.27304   0.28280
 Alpha virt. eigenvalues --    0.29301   0.30404   0.31413   0.31497   0.31868

 Mulliken charges:
               1
     1  C   -0.171385
     2  C   -0.220968
     3  C   -0.170150
     4  C    0.155974
     5  C   -0.171038
     6  C   -0.218856
     7  H    0.225789
     8  H    0.225607
     9  H    0.280733
    10  H    0.275723
    11  H    0.223547
    12  N    0.488254
    13  O   -0.460543
    14  O   -0.460118
    15  C   -0.300536
    16  C   -0.299932
    17  C   -0.475913
    18  H    0.149528
    19  H    0.156465
    20  H    0.149805
    21  H    0.151954
    22  H    0.159112
    23  H    0.155584
    24  H    0.159511
    25  C   -0.296740
    26  C   -0.310717
    27  C   -0.476555
    28  H    0.147638
    29  H    0.151475
    30  H    0.148229
    31  H    0.158479
    32  H    0.160227
    33  H    0.153215
    34  H    0.156602
 Sum of Mulliken charges =  -0.00000

 Dipole moment (field-independent basis, Debye):
    X=             -0.0093    Y=              3.8234    Z=              3.3759  Tot=              5.1005
 Quadrupole moment (field-independent basis, Debye-Ang):
   XX=            -92.1941   YY=            -96.9245   ZZ=            -94.3825
   XY=             -7.8552   XZ=            -10.9069   YZ=             -2.4374

 Normal termination of Gaussian 16 at Thu May  6 12:33:50 2021.
