 Gaussian 16, Revision A.03,
 Gaussian 16:  EM64L-G16RevA.03 25-Dec-2016

 -------------
 #p 6-31g* mp2
 -------------

 ------------------------------------------------------
 Input file generated by CHIRIPA (05-May-2021 14:51:09)
 ------------------------------------------------------
 Symbolic Z-matrix:
 Charge =  0 Multiplicity = 1

                         Standard orientation:
 ---------------------------------------------------------------------
 Center     Atomic      Atomic             Coordinates (Angstroms)
 Number     Number       Type             X           Y           Z
 ---------------------------------------------------------------------
      1          6           0        3.264998   -0.577700   -0.098599
      2          6           0        4.130426   -1.825397   -0.278244
      3          6           0        3.316378   -3.119240   -0.245267
      4          1           0        2.724537   -0.648332    0.855266
      5          1           0        2.502081   -0.552236   -0.888982
      6          1           0        4.892356   -1.847776    0.511426
      7          1           0        4.669036   -1.751697   -1.231702
      8          1           0        2.566550   -3.123050   -1.042980
      9          1           0        2.791138   -3.219675    0.710053
     10          1           0        3.954769   -3.998644   -0.375526
     11          6           0        4.064488    0.723684   -0.129294
     12          6           0        3.199059    1.971380    0.050350
     13          6           0        4.013108    3.265224    0.017374
     14          1           0        4.827404    0.698220    0.661089
     15          1           0        4.604949    0.794316   -1.083159
     16          1           0        2.660449    1.897680    1.003809
     17          1           0        2.437130    1.993759   -0.739320
     18          1           0        4.538347    3.365658   -0.937946
     19          1           0        4.762935    3.269034    0.815086
     20          1           0        3.374717    4.144627    0.147632
     21          6           0       -4.223652    0.324345   -0.222471
     22          6           0       -5.621936   -0.203189    0.100780
     23          6           0       -6.729437    0.602043   -0.579542
     24          1           0       -4.155576    1.376809    0.085150
     25          1           0       -4.075278    0.306659   -1.311079
     26          1           0       -5.767117   -0.185811    1.188547
     27          1           0       -5.686629   -1.254574   -0.207470
     28          1           0       -6.612559    0.574879   -1.667754
     29          1           0       -6.693505    1.649716   -0.263804
     30          1           0       -7.720666    0.207772   -0.334847
     31          6           0       -3.105834   -0.470328    0.450364
     32          6           0       -1.707549    0.057206    0.127113
     33          6           0       -0.600049   -0.748026    0.807436
     34          1           0       -3.254208   -0.452643    1.538972
     35          1           0       -3.173909   -1.522793    0.142744
     36          1           0       -1.642857    1.108592    0.435364
     37          1           0       -1.562368    0.039827   -0.960654
     38          1           0       -0.635981   -1.795700    0.491697
     39          1           0       -0.716927   -0.720863    1.895647
     40          1           0        0.391180   -0.353755    0.562740
 ---------------------------------------------------------------------

 SCF Done:  E(RHF) =  -470.732724769     A.U. after   11 cycles
 E2 =    -0.1583181547D+01 EUMP2 =    -0.47231590631613D+03

 The electronic state is 1-A.
 Alpha  occ. eigenvalues --  -11.21635 -11.21603 -11.21571 -11.21520 -11.21415
 Alpha  occ. eigenvalues --  -11.21354 -11.21351 -11.21292 -11.21094 -11.21052
 Alpha  occ. eigenvalues --  -11.21048 -11.20867  -1.08460  -1.08370  -1.03543
 Alpha  occ. eigenvalues --   -1.03461  -0.96008  -0.95896  -0.87029  -0.86912
 Alpha  occ. eigenvalues --   -0.79637  -0.79518  -0.78291  -0.78179  -0.65084
 Alpha  occ. eigenvalues --   -0.65004  -0.60936  -0.60862  -0.59397  -0.59280
 Alpha  occ. eigenvalues --   -0.57723  -0.57410  -0.55280  -0.55193  -0.52833
 Alpha  occ. eigenvalues --   -0.52634  -0.52400  -0.52201  -0.49932  -0.49853
 Alpha  occ. eigenvalues --   -0.47941  -0.47842  -0.46640  -0.46569  -0.45796
 Alpha  occ. eigenvalues --   -0.45742  -0.45722  -0.45656  -0.43813  -0.43583
 Alpha virt. eigenvalues --    0.22060   0.23110   0.24056   0.24136   0.26156
 Alpha virt. eigenvalues --    0.26542   0.26709   0.27391   0.27906   0.29309
 Alpha virt. eigenvalues --    0.31301   0.31379   0.31472   0.31779   0.32128

 Mulliken charges:
               1
     1  C   -0.303586
     2  C   -0.298903
     3  C   -0.476019
     4  H    0.154107
     5  H    0.150891
     6  H    0.151842
     7  H    0.151731
     8  H    0.155155
     9  H    0.156202
    10  H    0.160072
    11  C   -0.297560
    12  C   -0.301228
    13  C   -0.475578
    14  H    0.149508
    15  H    0.149592
    16  H    0.152443
    17  H    0.152191
    18  H    0.155325
    19  H    0.155309
    20  H    0.160393
    21  C   -0.298133
    22  C   -0.299564
    23  C   -0.475656
    24  H    0.149478
    25  H    0.149270
    26  H    0.151848
    27  H    0.151876
    28  H    0.155089
    29  H    0.155106
    30  H    0.160141
    31  C   -0.298305
    32  C   -0.298956
    33  C   -0.485133
    34  H    0.149291
    35  H    0.149459
    36  H    0.151558
    37  H    0.150878
    38  H    0.154478
    39  H    0.153132
    40  H    0.172255
 Sum of Mulliken charges =  -0.00000

 Dipole moment (field-independent basis, Debye):
    X=              0.0710    Y=              0.0023    Z=             -0.0008  Tot=              0.0710
 Quadrupole moment (field-independent basis, Debye-Ang):
   XX=            -85.8749   YY=            -85.6690   ZZ=            -83.2706
   XY=             -0.0651   XZ=             -0.2454   YZ=              0.6715

 Normal termination of Gaussian 16 at Wed May  5 16:39:13 2021.
