 Gaussian 16, Revision A.03,
 Gaussian 16:  EM64L-G16RevA.03 25-Dec-2016

 -------------
 #p 6-31g* mp2
 -------------

 ------------------------------------------------------
 Input file generated by CHIRIPA (05-May-2021 14:51:10)
 ------------------------------------------------------
 Symbolic Z-matrix:
 Charge =  0 Multiplicity = 1

                         Standard orientation:
 ---------------------------------------------------------------------
 Center     Atomic      Atomic             Coordinates (Angstroms)
 Number     Number       Type             X           Y           Z
 ---------------------------------------------------------------------
      1          6           0        2.030878    1.056487    0.211322
      2          6           0        2.530976    1.677794   -1.093233
      3          6           0        2.216793    3.170648   -1.195567
      4          1           0        0.946078    1.210657    0.291227
      5          1           0        2.485278    1.586761    1.059689
      6          1           0        2.076840    1.145609   -1.938901
      7          1           0        3.614682    1.521959   -1.170133
      8          1           0        2.683170    3.719865   -0.371277
      9          1           0        1.136591    3.341377   -1.144413
     10          1           0        2.583100    3.594469   -2.135808
     11          6           0        2.337500   -0.435497    0.328356
     12          6           0        1.837402   -1.056804    1.632911
     13          6           0        2.151585   -2.549657    1.735245
     14          1           0        1.883101   -0.965771   -0.520011
     15          1           0        3.422300   -0.589667    0.248450
     16          1           0        0.753697   -0.900969    1.709811
     17          1           0        2.291538   -0.524619    2.478579
     18          1           0        3.231787   -2.720386    1.684091
     19          1           0        1.685208   -3.098875    0.910955
     20          1           0        1.785278   -2.973479    2.675486
     21          6           0       -2.257610   -0.945871   -0.687378
     22          6           0       -0.918825   -1.553502   -1.107408
     23          6           0       -1.082214   -2.824072   -1.942122
     24          1           0       -2.828003   -1.690889   -0.115936
     25          1           0       -2.848715   -0.721762   -1.586135
     26          1           0       -0.329858   -1.775120   -0.208175
     27          1           0       -0.351473   -0.806886   -1.677751
     28          1           0       -1.647943   -2.614692   -2.855748
     29          1           0       -1.626205   -3.588428   -1.377822
     30          1           0       -0.112846   -3.241708   -2.231541
     31          6           0       -2.110768    0.324881    0.147700
     32          6           0       -3.449553    0.932511    0.567730
     33          6           0       -3.286164    2.203082    1.402444
     34          1           0       -1.519664    0.100771    1.046458
     35          1           0       -1.540376    1.069899   -0.423742
     36          1           0       -4.016906    0.185896    1.138074
     37          1           0       -4.038520    1.154130   -0.331503
     38          1           0       -2.742173    2.967438    0.838144
     39          1           0       -2.720436    1.993702    2.316071
     40          1           0       -4.255534    2.620718    1.691863
 ---------------------------------------------------------------------

 SCF Done:  E(RHF) =  -470.730884249     A.U. after   11 cycles
 E2 =    -0.1587044965D+01 EUMP2 =    -0.47231792921423D+03

 The electronic state is 1-A.
 Alpha  occ. eigenvalues --  -11.21680 -11.21645 -11.21557 -11.21557 -11.21511
 Alpha  occ. eigenvalues --  -11.21446 -11.21243 -11.21178 -11.21157 -11.21125
 Alpha  occ. eigenvalues --  -11.21082 -11.21057  -1.08600  -1.08302  -1.03652
 Alpha  occ. eigenvalues --   -1.03475  -0.96071  -0.95936  -0.87098  -0.86946
 Alpha  occ. eigenvalues --   -0.79738  -0.79561  -0.78435  -0.78126  -0.65317
 Alpha  occ. eigenvalues --   -0.64926  -0.61269  -0.60710  -0.59404  -0.59298
 Alpha  occ. eigenvalues --   -0.57720  -0.57522  -0.55365  -0.55234  -0.52753
 Alpha  occ. eigenvalues --   -0.52648  -0.52506  -0.52366  -0.50009  -0.49927
 Alpha  occ. eigenvalues --   -0.48115  -0.47860  -0.46717  -0.46688  -0.46400
 Alpha  occ. eigenvalues --   -0.45699  -0.45475  -0.45072  -0.43865  -0.43714
 Alpha virt. eigenvalues --    0.20252   0.22169   0.22971   0.23907   0.25463
 Alpha virt. eigenvalues --    0.26073   0.27091   0.27365   0.28801   0.30525
 Alpha virt. eigenvalues --    0.30959   0.31123   0.31522   0.31926   0.32115

 Mulliken charges:
               1
     1  C   -0.305463
     2  C   -0.300480
     3  C   -0.475484
     4  H    0.158289
     5  H    0.148792
     6  H    0.151329
     7  H    0.151941
     8  H    0.155484
     9  H    0.154079
    10  H    0.159989
    11  C   -0.302264
    12  C   -0.308222
    13  C   -0.477696
    14  H    0.156784
    15  H    0.148896
    16  H    0.155130
    17  H    0.153519
    18  H    0.155969
    19  H    0.156030
    20  H    0.159907
    21  C   -0.296922
    22  C   -0.311496
    23  C   -0.476250
    24  H    0.149774
    25  H    0.149660
    26  H    0.163564
    27  H    0.153227
    28  H    0.155647
    29  H    0.155668
    30  H    0.160283
    31  C   -0.306378
    32  C   -0.299020
    33  C   -0.476009
    34  H    0.154464
    35  H    0.151257
    36  H    0.152262
    37  H    0.152268
    38  H    0.155144
    39  H    0.155620
    40  H    0.160706
 Sum of Mulliken charges =  -0.00000

 Dipole moment (field-independent basis, Debye):
    X=             -0.0621    Y=             -0.0184    Z=              0.0016  Tot=              0.0648
 Quadrupole moment (field-independent basis, Debye-Ang):
   XX=            -84.0848   YY=            -86.4858   ZZ=            -84.3346
   XY=              0.3594   XZ=              0.3555   YZ=             -0.6653

 Normal termination of Gaussian 16 at Thu May  6 02:14:28 2021.
