 Gaussian 16, Revision A.03,
 Gaussian 16:  EM64L-G16RevA.03 25-Dec-2016

 -------------
 #p 6-31g* mp2
 -------------

 ------------------------------------------------------
 Input file generated by CHIRIPA (05-May-2021 14:55:24)
 ------------------------------------------------------
 Symbolic Z-matrix:
 Charge =  0 Multiplicity = 1

                         Standard orientation:
 ---------------------------------------------------------------------
 Center     Atomic      Atomic             Coordinates (Angstroms)
 Number     Number       Type             X           Y           Z
 ---------------------------------------------------------------------
      1          6           0        1.307547   -1.738921    1.183444
      2          6           0        0.891740   -0.610478    0.469132
      3          6           0        1.826505    0.209625   -0.169769
      4          6           0        3.175108   -0.129876   -0.073330
      5          6           0        3.620640   -1.247440    0.630830
      6          6           0        2.668271   -2.053246    1.261875
      7          1           0        0.574562   -2.370444    1.676707
      8          1           0       -0.164357   -0.363934    0.406529
      9          1           0        1.532178    1.089167   -0.729408
     10          1           0        4.680349   -1.467547    0.675405
     11          1           0        2.994083   -2.928987    1.815924
     12          7           0        4.174019    0.730763   -0.745548
     13          8           0        5.356282    0.409998   -0.645531
     14          8           0        3.755790    1.709800   -1.359720
     15          6           0       -4.336477   -0.075441   -0.461399
     16          6           0       -4.058248   -1.576205   -0.370400
     17          6           0       -5.032953   -2.409680   -1.202905
     18          1           0       -5.365220    0.121069   -0.129712
     19          1           0       -4.282099    0.237357   -1.513348
     20          1           0       -4.111770   -1.885816    0.681214
     21          1           0       -3.029984   -1.769143   -0.702161
     22          1           0       -4.974603   -2.129194   -2.259561
     23          1           0       -6.062535   -2.246529   -0.868326
     24          1           0       -4.815875   -3.479452   -1.123376
     25          6           0       -3.370338    0.771043    0.365503
     26          6           0       -3.648569    2.271806    0.274503
     27          6           0       -2.673863    3.105281    1.107008
     28          1           0       -3.424717    0.458245    1.417453
     29          1           0       -2.341596    0.574532    0.033816
     30          1           0       -4.676832    2.464745    0.606265
     31          1           0       -3.595046    2.581418   -0.777111
     32          1           0       -1.644281    2.942131    0.772431
     33          1           0       -2.732213    2.824796    2.163665
     34          1           0       -2.890941    4.175054    1.027480
 ---------------------------------------------------------------------

 SCF Done:  E(RHF) =  -669.535605180     A.U. after   15 cycles
 E2 =    -0.2091290304D+01 EUMP2 =    -0.67162689548433D+03

 The electronic state is 1-A.
 Alpha  occ. eigenvalues --  -20.60732 -20.60727 -15.85785 -11.31143 -11.27710
 Alpha  occ. eigenvalues --  -11.27705 -11.27441 -11.26725 -11.26681 -11.22439
 Alpha  occ. eigenvalues --  -11.22400 -11.22295 -11.22163 -11.21718 -11.21694
 Alpha  occ. eigenvalues --   -1.59807  -1.39361  -1.19311  -1.09259  -1.08706
 Alpha  occ. eigenvalues --   -1.04714  -1.04264  -0.96709  -0.95544  -0.87719
 Alpha  occ. eigenvalues --   -0.86112  -0.82379  -0.80334  -0.79116  -0.77424
 Alpha  occ. eigenvalues --   -0.72003  -0.71130  -0.70419  -0.65917  -0.64962
 Alpha  occ. eigenvalues --   -0.64705  -0.62077  -0.61646  -0.60077  -0.58327
 Alpha  occ. eigenvalues --   -0.55999  -0.55211  -0.53366  -0.53169  -0.53043
 Alpha  occ. eigenvalues --   -0.52784  -0.50643  -0.48768  -0.48759  -0.48642
 Alpha  occ. eigenvalues --   -0.47371  -0.46616  -0.46542  -0.44768  -0.44549
 Alpha  occ. eigenvalues --   -0.37290  -0.36317
 Alpha virt. eigenvalues --    0.05106   0.11327   0.16597   0.19223   0.22676
 Alpha virt. eigenvalues --    0.23536   0.24506   0.26247   0.27100   0.28233
 Alpha virt. eigenvalues --    0.29313   0.30728   0.31109   0.31217   0.31672

 Mulliken charges:
               1
     1  C   -0.173329
     2  C   -0.227350
     3  C   -0.174150
     4  C    0.158817
     5  C   -0.171270
     6  C   -0.218444
     7  H    0.226593
     8  H    0.236837
     9  H    0.274907
    10  H    0.275415
    11  H    0.223180
    12  N    0.488139
    13  O   -0.460633
    14  O   -0.460600
    15  C   -0.297913
    16  C   -0.300779
    17  C   -0.475926
    18  H    0.153361
    19  H    0.152611
    20  H    0.150759
    21  H    0.147450
    22  H    0.157674
    23  H    0.157367
    24  H    0.161177
    25  C   -0.304948
    26  C   -0.300018
    27  C   -0.475728
    28  H    0.150010
    29  H    0.143736
    30  H    0.155289
    31  H    0.154809
    32  H    0.152062
    33  H    0.155897
    34  H    0.164998
 Sum of Mulliken charges =  -0.00000

 Dipole moment (field-independent basis, Debye):
    X=             -3.7630    Y=             -2.9751    Z=              2.3601  Tot=              5.3461
 Quadrupole moment (field-independent basis, Debye-Ang):
   XX=           -113.7093   YY=            -92.8084   ZZ=            -94.9006
   XY=            -12.4004   XZ=              8.4977   YZ=             -1.6677

 Normal termination of Gaussian 16 at Thu May  6 11:02:37 2021.
