 Gaussian 16, Revision A.03,
 Gaussian 16:  EM64L-G16RevA.03 25-Dec-2016

 -------------
 #p 6-31g* mp2
 -------------

 ------------------------------------------------------
 Input file generated by CHIRIPA (05-May-2021 14:51:13)
 ------------------------------------------------------
 Symbolic Z-matrix:
 Charge =  0 Multiplicity = 1

                         Standard orientation:
 ---------------------------------------------------------------------
 Center     Atomic      Atomic             Coordinates (Angstroms)
 Number     Number       Type             X           Y           Z
 ---------------------------------------------------------------------
      1          6           0        3.143533   -0.629240    0.162426
      2          6           0        3.441218    0.869111    0.096749
      3          6           0        4.830063    1.219880    0.631412
      4          1           0        3.234003   -0.969307    1.203154
      5          1           0        3.906535   -1.173081   -0.411560
      6          1           0        2.677092    1.410070    0.669540
      7          1           0        3.349841    1.205689   -0.943915
      8          1           0        5.605961    0.706169    0.054624
      9          1           0        4.929389    0.911711    1.677246
     10          1           0        5.021944    2.295925    0.575113
     11          6           0        1.758776   -0.995620   -0.368555
     12          6           0        1.461090   -2.493971   -0.302879
     13          6           0        0.072245   -2.844740   -0.837542
     14          1           0        0.995774   -0.451779    0.205430
     15          1           0        1.668305   -0.655553   -1.409283
     16          1           0        1.552467   -2.830549    0.737785
     17          1           0        2.225217   -3.034930   -0.875669
     18          1           0       -0.027080   -2.536571   -1.883375
     19          1           0       -0.703653   -2.331029   -0.260753
     20          1           0       -0.119636   -3.920784   -0.781243
     21          6           0       -2.790800    0.170402   -0.133312
     22          6           0       -2.958390   -0.870178    0.974430
     23          6           0       -3.639434   -2.149032    0.486059
     24          1           0       -3.777370    0.414927   -0.550244
     25          1           0       -2.204968   -0.268019   -0.953057
     26          1           0       -3.542555   -0.429472    1.792443
     27          1           0       -1.971326   -1.112111    1.388903
     28          1           0       -3.056026   -2.614402   -0.314982
     29          1           0       -4.636181   -1.927884    0.090852
     30          1           0       -3.749132   -2.879138    1.294002
     31          6           0       -2.111508    1.454457    0.339442
     32          6           0       -1.943918    2.495038   -0.768300
     33          6           0       -1.262875    3.773892   -0.279929
     34          1           0       -2.697340    1.892879    1.159187
     35          1           0       -1.124939    1.209932    0.756374
     36          1           0       -2.930982    2.736971   -1.182773
     37          1           0       -1.359754    2.054331   -1.586314
     38          1           0       -0.266127    3.552744    0.115278
     39          1           0       -1.846283    4.239262    0.521111
     40          1           0       -1.153176    4.503997   -1.087871
 ---------------------------------------------------------------------

 SCF Done:  E(RHF) =  -470.732313077     A.U. after   11 cycles
 E2 =    -0.1585029216D+01 EUMP2 =    -0.47231734229284D+03

 The electronic state is 1-A.
 Alpha  occ. eigenvalues --  -11.21662 -11.21658 -11.21621 -11.21579 -11.21480
 Alpha  occ. eigenvalues --  -11.21417 -11.21390 -11.21326 -11.21109 -11.21070
 Alpha  occ. eigenvalues --  -11.21053 -11.21009  -1.08518  -1.08409  -1.03627
 Alpha  occ. eigenvalues --   -1.03490  -0.96069  -0.95934  -0.87063  -0.86977
 Alpha  occ. eigenvalues --   -0.79668  -0.79578  -0.78321  -0.78236  -0.65378
 Alpha  occ. eigenvalues --   -0.64879  -0.61318  -0.60675  -0.59396  -0.59335
 Alpha  occ. eigenvalues --   -0.57628  -0.57574  -0.55573  -0.55008  -0.52730
 Alpha  occ. eigenvalues --   -0.52660  -0.52472  -0.52339  -0.49959  -0.49902
 Alpha  occ. eigenvalues --   -0.48082  -0.47782  -0.46682  -0.46638  -0.46107
 Alpha  occ. eigenvalues --   -0.45874  -0.45623  -0.45407  -0.43839  -0.43770
 Alpha virt. eigenvalues --    0.19524   0.22557   0.23667   0.24902   0.25251
 Alpha virt. eigenvalues --    0.26030   0.27181   0.27703   0.28802   0.29969
 Alpha virt. eigenvalues --    0.30887   0.31030   0.31516   0.31791   0.32571

 Mulliken charges:
               1
     1  C   -0.298125
     2  C   -0.299917
     3  C   -0.475758
     4  H    0.149870
     5  H    0.150041
     6  H    0.151337
     7  H    0.152188
     8  H    0.155372
     9  H    0.155351
    10  H    0.160572
    11  C   -0.303581
    12  C   -0.299411
    13  C   -0.486056
    14  H    0.153175
    15  H    0.149612
    16  H    0.151907
    17  H    0.152212
    18  H    0.154539
    19  H    0.167990
    20  H    0.160603
    21  C   -0.300851
    22  C   -0.304431
    23  C   -0.479538
    24  H    0.150044
    25  H    0.152812
    26  H    0.153866
    27  H    0.150732
    28  H    0.160503
    29  H    0.155366
    30  H    0.160023
    31  C   -0.301149
    32  C   -0.299538
    33  C   -0.475983
    34  H    0.149440
    35  H    0.151660
    36  H    0.151820
    37  H    0.152682
    38  H    0.155434
    39  H    0.154953
    40  H    0.160231
 Sum of Mulliken charges =  -0.00000

 Dipole moment (field-independent basis, Debye):
    X=              0.0074    Y=             -0.0162    Z=             -0.0178  Tot=              0.0252
 Quadrupole moment (field-independent basis, Debye-Ang):
   XX=            -84.9124   YY=            -85.7503   ZZ=            -84.0279
   XY=             -1.2412   XZ=             -0.9630   YZ=             -0.1484

 Normal termination of Gaussian 16 at Thu May  6 03:58:36 2021.
