 Gaussian 16, Revision A.03,
 Gaussian 16:  EM64L-G16RevA.03 25-Dec-2016

 -------------
 #p 6-31g* mp2
 -------------

 ------------------------------------------------------
 Input file generated by CHIRIPA (05-May-2021 14:55:21)
 ------------------------------------------------------
 Symbolic Z-matrix:
 Charge =  0 Multiplicity = 1

                         Standard orientation:
 ---------------------------------------------------------------------
 Center     Atomic      Atomic             Coordinates (Angstroms)
 Number     Number       Type             X           Y           Z
 ---------------------------------------------------------------------
      1          6           0        3.522698    1.424622    1.504098
      2          6           0        4.328191    0.546348    0.771747
      3          6           0        3.752476   -0.427337   -0.049860
      4          6           0        2.361652   -0.494848   -0.115747
      5          6           0        1.532259    0.365812    0.601652
      6          6           0        2.129759    1.331715    1.416867
      7          1           0        3.978389    2.177981    2.139859
      8          1           0        5.410244    0.616184    0.837547
      9          1           0        4.352360   -1.119960   -0.627639
     10          1           0        0.456543    0.271779    0.515570
     11          1           0        1.501718    2.012463    1.984486
     12          7           0        1.740637   -1.521525   -0.982162
     13          8           0        0.512848   -1.560388   -1.022910
     14          8           0        2.493434   -2.267931   -1.604104
     15          6           0       -2.547881    0.803304   -0.293029
     16          6           0       -2.909107    2.153408   -0.913290
     17          6           0       -1.686133    2.914738   -1.425642
     18          1           0       -1.841493    0.963683    0.532949
     19          1           0       -2.021687    0.193359   -1.040345
     20          1           0       -3.435685    2.760100   -0.165456
     21          1           0       -3.614865    1.989813   -1.737764
     22          1           0       -1.162481    2.332395   -2.190668
     23          1           0       -0.982281    3.107058   -0.609427
     24          1           0       -1.967259    3.876926   -1.864987
     25          6           0       -3.759965    0.030332    0.223785
     26          6           0       -3.398740   -1.319771    0.844046
     27          6           0       -4.621713   -2.081102    1.356397
     28          1           0       -4.286159    0.640278    0.971101
     29          1           0       -4.466353   -0.130046   -0.602193
     30          1           0       -2.692981   -1.156176    1.668520
     31          1           0       -2.872162   -1.926463    0.096212
     32          1           0       -5.325565   -2.273421    0.540182
     33          1           0       -5.145366   -1.498758    2.121424
     34          1           0       -4.340588   -3.043289    1.795743
 ---------------------------------------------------------------------

 SCF Done:  E(RHF) =  -669.535889860     A.U. after   15 cycles
 E2 =    -0.2092486872D+01 EUMP2 =    -0.67162837673220D+03

 The electronic state is 1-A.
 Alpha  occ. eigenvalues --  -20.60815 -20.60808 -15.85856 -11.31150 -11.27740
 Alpha  occ. eigenvalues --  -11.27666 -11.27481 -11.26743 -11.26727 -11.21571
 Alpha  occ. eigenvalues --  -11.21266 -11.21168 -11.21156 -11.21109 -11.20711
 Alpha  occ. eigenvalues --   -1.59881  -1.39436  -1.19331  -1.08743  -1.08247
 Alpha  occ. eigenvalues --   -1.04727  -1.03339  -0.95820  -0.95582  -0.86836
 Alpha  occ. eigenvalues --   -0.86129  -0.82420  -0.79410  -0.78122  -0.77401
 Alpha  occ. eigenvalues --   -0.72077  -0.71197  -0.70448  -0.65017  -0.64874
 Alpha  occ. eigenvalues --   -0.64713  -0.62084  -0.60731  -0.59186  -0.57415
 Alpha  occ. eigenvalues --   -0.55258  -0.55102  -0.53061  -0.52859  -0.52494
 Alpha  occ. eigenvalues --   -0.52218  -0.49767  -0.48841  -0.48833  -0.47716
 Alpha  occ. eigenvalues --   -0.46431  -0.45618  -0.45415  -0.44834  -0.43598
 Alpha  occ. eigenvalues --   -0.37319  -0.36324
 Alpha virt. eigenvalues --    0.05037   0.11316   0.16512   0.20345   0.23205
 Alpha virt. eigenvalues --    0.24307   0.25357   0.26982   0.27674   0.28205
 Alpha virt. eigenvalues --    0.29679   0.30847   0.31760   0.31893   0.32283

 Mulliken charges:
               1
     1  C   -0.170204
     2  C   -0.219319
     3  C   -0.169858
     4  C    0.156107
     5  C   -0.178329
     6  C   -0.222730
     7  H    0.225505
     8  H    0.223297
     9  H    0.275359
    10  H    0.291217
    11  H    0.222936
    12  N    0.489122
    13  O   -0.463244
    14  O   -0.460025
    15  C   -0.307800
    16  C   -0.298789
    17  C   -0.475967
    18  H    0.133493
    19  H    0.173267
    20  H    0.149399
    21  H    0.154903
    22  H    0.160851
    23  H    0.145973
    24  H    0.160659
    25  C   -0.297228
    26  C   -0.302053
    27  C   -0.475770
    28  H    0.145831
    29  H    0.151441
    30  H    0.145891
    31  H    0.167574
    32  H    0.155517
    33  H    0.151943
    34  H    0.161031
 Sum of Mulliken charges =  -0.00000

 Dipole moment (field-independent basis, Debye):
    X=              2.1643    Y=              3.4609    Z=              2.8650  Tot=              4.9871
 Quadrupole moment (field-independent basis, Debye-Ang):
   XX=            -81.0092   YY=            -98.9281   ZZ=            -95.1667
   XY=              5.7168   XZ=              6.6463   YZ=             -0.6797

 Normal termination of Gaussian 16 at Wed May  5 20:36:58 2021.
