 Gaussian 16, Revision A.03,
 Gaussian 16:  EM64L-G16RevA.03 25-Dec-2016

 -------------
 #p 6-31g* mp2
 -------------

 ------------------------------------------------------
 Input file generated by CHIRIPA (05-May-2021 14:51:11)
 ------------------------------------------------------
 Symbolic Z-matrix:
 Charge =  0 Multiplicity = 1

                         Standard orientation:
 ---------------------------------------------------------------------
 Center     Atomic      Atomic             Coordinates (Angstroms)
 Number     Number       Type             X           Y           Z
 ---------------------------------------------------------------------
      1          6           0       -2.500486   -0.592330   -0.488087
      2          6           0       -3.710922   -1.234868    0.190128
      3          6           0       -3.640080   -2.762162    0.202374
      4          1           0       -2.424565   -0.965568   -1.518560
      5          1           0       -1.585750   -0.913753    0.028963
      6          1           0       -4.623204   -0.911231   -0.327189
      7          1           0       -3.784082   -0.859911    1.219045
      8          1           0       -2.746733   -3.102107    0.736199
      9          1           0       -3.590623   -3.153718   -0.818821
     10          1           0       -4.515239   -3.200740    0.691868
     11          6           0       -2.556786    0.934154   -0.508198
     12          6           0       -1.346350    1.576692   -1.186412
     13          6           0       -1.417192    3.103985   -1.198658
     14          1           0       -3.471522    1.255576   -1.025247
     15          1           0       -2.632707    1.307392    0.522275
     16          1           0       -1.273190    1.201735   -2.215330
     17          1           0       -0.434068    1.253054   -0.669096
     18          1           0       -1.466649    3.495542   -0.177464
     19          1           0       -2.310539    3.443930   -1.732483
     20          1           0       -0.542033    3.542563   -1.688153
     21          6           0        1.941233    0.198330    0.817594
     22          6           0        1.971705    0.178660    2.346212
     23          6           0        0.790102    0.921422    2.970643
     24          1           0        1.936839    1.240715    0.470666
     25          1           0        1.000145   -0.250501    0.470755
     26          1           0        2.913068    0.626137    2.690036
     27          1           0        1.976219   -0.863800    2.689538
     28          1           0       -0.157259    0.471800    2.656083
     29          1           0        0.784913    1.970203    2.656584
     30          1           0        0.831724    0.894886    4.063997
     31          6           0        3.116039   -0.540153    0.178690
     32          6           0        3.085568   -0.520483   -1.349927
     33          6           0        4.267169   -1.263246   -1.974358
     34          1           0        4.057127   -0.091323    0.525530
     35          1           0        3.120432   -1.582539    0.525618
     36          1           0        3.081053    0.521977   -1.693253
     37          1           0        2.144205   -0.967961   -1.693751
     38          1           0        4.272359   -2.312027   -1.660299
     39          1           0        5.214531   -0.813624   -1.659798
     40          1           0        4.225548   -1.236710   -3.067711
 ---------------------------------------------------------------------

 SCF Done:  E(RHF) =  -470.732783276     A.U. after   11 cycles
 E2 =    -0.1584386511D+01 EUMP2 =    -0.47231716978674D+03

 The electronic state is 1-A.
 Alpha  occ. eigenvalues --  -11.21686 -11.21620 -11.21614 -11.21468 -11.21418
 Alpha  occ. eigenvalues --  -11.21404 -11.21399 -11.21302 -11.21175 -11.21093
 Alpha  occ. eigenvalues --  -11.21087 -11.20994  -1.08516  -1.08383  -1.03591
 Alpha  occ. eigenvalues --   -1.03481  -0.96045  -0.95948  -0.87062  -0.86962
 Alpha  occ. eigenvalues --   -0.79675  -0.79549  -0.78483  -0.78056  -0.65218
 Alpha  occ. eigenvalues --   -0.64952  -0.60982  -0.60896  -0.59408  -0.59314
 Alpha  occ. eigenvalues --   -0.57667  -0.57549  -0.55332  -0.55242  -0.52737
 Alpha  occ. eigenvalues --   -0.52644  -0.52488  -0.52361  -0.49990  -0.49895
 Alpha  occ. eigenvalues --   -0.48054  -0.47845  -0.46755  -0.46685  -0.46287
 Alpha  occ. eigenvalues --   -0.45765  -0.45719  -0.44965  -0.43844  -0.43740
 Alpha virt. eigenvalues --    0.19931   0.23183   0.23698   0.24544   0.25023
 Alpha virt. eigenvalues --    0.26310   0.26596   0.28229   0.28511   0.30038
 Alpha virt. eigenvalues --    0.31100   0.31288   0.31712   0.32018   0.32382

 Mulliken charges:
               1
     1  C   -0.302900
     2  C   -0.299496
     3  C   -0.475652
     4  H    0.149752
     5  H    0.151562
     6  H    0.152368
     7  H    0.151933
     8  H    0.154621
     9  H    0.155213
    10  H    0.160440
    11  C   -0.298084
    12  C   -0.309773
    13  C   -0.475387
    14  H    0.149219
    15  H    0.149938
    16  H    0.150600
    17  H    0.164660
    18  H    0.154811
    19  H    0.154693
    20  H    0.159307
    21  C   -0.308051
    22  C   -0.298747
    23  C   -0.477690
    24  H    0.151357
    25  H    0.157130
    26  H    0.152406
    27  H    0.151948
    28  H    0.155304
    29  H    0.155626
    30  H    0.161063
    31  C   -0.297202
    32  C   -0.300363
    33  C   -0.475699
    34  H    0.149651
    35  H    0.149612
    36  H    0.152088
    37  H    0.152914
    38  H    0.155224
    39  H    0.155154
    40  H    0.160451
 Sum of Mulliken charges =  -0.00000

 Dipole moment (field-independent basis, Debye):
    X=              0.0566    Y=             -0.0163    Z=              0.0203  Tot=              0.0623
 Quadrupole moment (field-independent basis, Debye-Ang):
   XX=            -84.8891   YY=            -85.5946   ZZ=            -84.3425
   XY=              0.8456   XZ=              0.9108   YZ=             -0.1065

 Normal termination of Gaussian 16 at Thu May  6 03:52:16 2021.
