 Gaussian 16, Revision A.03,
 Gaussian 16:  EM64L-G16RevA.03 25-Dec-2016

 -------------
 #p 6-31g* mp2
 -------------

 ------------------------------------------------------
 Input file generated by CHIRIPA (05-May-2021 14:51:14)
 ------------------------------------------------------
 Symbolic Z-matrix:
 Charge =  0 Multiplicity = 1

                         Standard orientation:
 ---------------------------------------------------------------------
 Center     Atomic      Atomic             Coordinates (Angstroms)
 Number     Number       Type             X           Y           Z
 ---------------------------------------------------------------------
      1          6           0       -2.059043   -0.536990   -0.257418
      2          6           0       -2.731133   -1.909495   -0.207319
      3          6           0       -1.784888   -3.045641   -0.596659
      4          1           0       -1.671402   -0.362360   -1.270425
      5          1           0       -1.189407   -0.537566    0.414242
      6          1           0       -3.600055   -1.905893   -0.877824
      7          1           0       -3.117388   -2.080796    0.805637
      8          1           0       -0.923454   -3.077907    0.078243
      9          1           0       -1.408864   -2.902009   -1.614783
     10          1           0       -2.285875   -4.017780   -0.554020
     11          6           0       -2.992271    0.609016    0.129214
     12          6           0       -2.320181    1.981521    0.079115
     13          6           0       -3.266426    3.117667    0.468455
     14          1           0       -3.861907    0.609592   -0.542446
     15          1           0       -3.379912    0.434387    1.142221
     16          1           0       -1.933926    2.152823   -0.933841
     17          1           0       -1.451259    1.977919    0.749620
     18          1           0       -3.642450    2.974036    1.486579
     19          1           0       -4.127860    3.149933   -0.206447
     20          1           0       -2.765439    4.089806    0.425816
     21          6           0        2.645497    0.552540   -0.407784
     22          6           0        2.919493    1.868308    0.321370
     23          6           0        3.157265    3.036392   -0.636149
     24          1           0        3.494209    0.321911   -1.066149
     25          1           0        1.769589    0.677945   -1.059283
     26          1           0        3.793790    1.740052    0.972346
     27          1           0        2.070116    2.095734    0.978219
     28          1           0        2.283730    3.192921   -1.277268
     29          1           0        4.017198    2.835217   -1.283176
     30          1           0        3.351153    3.967034   -0.093771
     31          6           0        2.405817   -0.624565    0.535987
     32          6           0        2.131821   -1.940335   -0.193165
     33          6           0        1.894049   -3.108418    0.764352
     34          1           0        3.281725   -0.749972    1.187488
     35          1           0        1.557105   -0.393937    1.194353
     36          1           0        2.981198   -2.167760   -0.850016
     37          1           0        1.257524   -1.812077   -0.844141
     38          1           0        1.034116   -2.907243    1.411380
     39          1           0        2.767584   -3.264946    1.405473
     40          1           0        1.700161   -4.039060    0.221976
 ---------------------------------------------------------------------

 SCF Done:  E(RHF) =  -470.732660372     A.U. after   11 cycles
 E2 =    -0.1584733303D+01 EUMP2 =    -0.47231739367572D+03

 The electronic state is 1-A.
 Alpha  occ. eigenvalues --  -11.21678 -11.21630 -11.21580 -11.21531 -11.21481
 Alpha  occ. eigenvalues --  -11.21420 -11.21377 -11.21315 -11.21121 -11.21073
 Alpha  occ. eigenvalues --  -11.21049 -11.20997  -1.08508  -1.08388  -1.03611
 Alpha  occ. eigenvalues --   -1.03472  -0.96077  -0.95911  -0.87087  -0.86932
 Alpha  occ. eigenvalues --   -0.79640  -0.79569  -0.78323  -0.78209  -0.65259
 Alpha  occ. eigenvalues --   -0.64920  -0.61209  -0.60739  -0.59380  -0.59319
 Alpha  occ. eigenvalues --   -0.57687  -0.57527  -0.55595  -0.55002  -0.52719
 Alpha  occ. eigenvalues --   -0.52654  -0.52399  -0.52383  -0.50192  -0.49641
 Alpha  occ. eigenvalues --   -0.48046  -0.47779  -0.46774  -0.46484  -0.46046
 Alpha  occ. eigenvalues --   -0.45918  -0.45536  -0.45498  -0.43836  -0.43753
 Alpha virt. eigenvalues --    0.19591   0.22389   0.23676   0.24643   0.25547
 Alpha virt. eigenvalues --    0.25881   0.26706   0.28240   0.28642   0.30008
 Alpha virt. eigenvalues --    0.30853   0.31025   0.31760   0.32040   0.32264

 Mulliken charges:
               1
     1  C   -0.302702
     2  C   -0.299264
     3  C   -0.484728
     4  H    0.149526
     5  H    0.152483
     6  H    0.151954
     7  H    0.151663
     8  H    0.167364
     9  H    0.154532
    10  H    0.159976
    11  C   -0.298260
    12  C   -0.300104
    13  C   -0.475757
    14  H    0.150090
    15  H    0.149907
    16  H    0.151756
    17  H    0.151608
    18  H    0.155377
    19  H    0.155451
    20  H    0.160576
    21  C   -0.298906
    22  C   -0.299768
    23  C   -0.475712
    24  H    0.149425
    25  H    0.150969
    26  H    0.151725
    27  H    0.151845
    28  H    0.155460
    29  H    0.155036
    30  H    0.160080
    31  C   -0.299241
    32  C   -0.304596
    33  C   -0.478933
    34  H    0.149362
    35  H    0.149690
    36  H    0.151950
    37  H    0.158108
    38  H    0.153683
    39  H    0.156481
    40  H    0.161896
 Sum of Mulliken charges =  -0.00000

 Dipole moment (field-independent basis, Debye):
    X=             -0.0141    Y=             -0.0156    Z=             -0.0098  Tot=              0.0232
 Quadrupole moment (field-independent basis, Debye-Ang):
   XX=            -84.0887   YY=            -86.4155   ZZ=            -84.2256
   XY=              0.0241   XZ=              0.4629   YZ=              0.1811

 Normal termination of Gaussian 16 at Thu May  6 04:01:37 2021.
