 Gaussian 16, Revision A.03,
 Gaussian 16:  EM64L-G16RevA.03 25-Dec-2016

 -------------
 #p 6-31g* mp2
 -------------

 ------------------------------------------------------
 Input file generated by CHIRIPA (05-May-2021 14:51:13)
 ------------------------------------------------------
 Symbolic Z-matrix:
 Charge =  0 Multiplicity = 1

                         Standard orientation:
 ---------------------------------------------------------------------
 Center     Atomic      Atomic             Coordinates (Angstroms)
 Number     Number       Type             X           Y           Z
 ---------------------------------------------------------------------
      1          6           0        3.181262   -0.420929   -0.016912
      2          6           0        2.330228   -0.700863    1.222186
      3          6           0        0.835402   -0.772345    0.908846
      4          1           0        2.854986    0.524199   -0.472128
      5          1           0        2.999290   -1.206561   -0.763279
      6          1           0        2.514792    0.084307    1.966538
      7          1           0        2.658695   -1.645339    1.674615
      8          1           0        0.631187   -1.567648    0.184698
      9          1           0        0.486467    0.171825    0.478279
     10          1           0        0.245742   -0.973282    1.808727
     11          6           0        4.677893   -0.346563    0.280229
     12          6           0        5.528927   -0.066629   -0.958869
     13          6           0        7.023752    0.004853   -0.645529
     14          1           0        4.859864    0.439069    1.026596
     15          1           0        5.004168   -1.291691    0.735445
     16          1           0        5.200460    0.877847   -1.411298
     17          1           0        5.344362   -0.851799   -1.703221
     18          1           0        7.372688   -0.939317   -0.214963
     19          1           0        7.227967    0.800156    0.078619
     20          1           0        7.613412    0.205790   -1.545410
     21          6           0       -3.693378    1.107769   -0.073070
     22          6           0       -2.175792    1.241855    0.057077
     23          6           0       -1.718652    2.696260    0.173365
     24          1           0       -4.030674    1.671173   -0.953838
     25          1           0       -4.171865    1.574889    0.798849
     26          1           0       -1.700262    0.773401   -0.814150
     27          1           0       -1.842048    0.677908    0.937529
     28          1           0       -2.166065    3.171605    1.052267
     29          1           0       -2.023473    3.267640   -0.709363
     30          1           0       -0.630485    2.768925    0.265406
     31          6           0       -4.165776   -0.340277   -0.190246
     32          6           0       -5.683362   -0.474363   -0.320394
     33          6           0       -6.140503   -1.928768   -0.436682
     34          1           0       -3.687289   -0.807397   -1.062166
     35          1           0       -3.828481   -0.903681    0.690522
     36          1           0       -6.017107    0.089584   -1.200845
     37          1           0       -6.158892   -0.005908    0.550834
     38          1           0       -5.835681   -2.500148    0.446047
     39          1           0       -5.693090   -2.404113   -1.315584
     40          1           0       -7.228669   -2.001434   -0.528722
 ---------------------------------------------------------------------

 SCF Done:  E(RHF) =  -470.732322035     A.U. after   11 cycles
 E2 =    -0.1583176806D+01 EUMP2 =    -0.47231549884062D+03

 The electronic state is 1-A.
 Alpha  occ. eigenvalues --  -11.21594 -11.21568 -11.21551 -11.21487 -11.21391
 Alpha  occ. eigenvalues --  -11.21351 -11.21332 -11.21290 -11.21079 -11.21065
 Alpha  occ. eigenvalues --  -11.21046 -11.20960  -1.08421  -1.08375  -1.03557
 Alpha  occ. eigenvalues --   -1.03448  -0.96008  -0.95903  -0.87015  -0.86932
 Alpha  occ. eigenvalues --   -0.79746  -0.79410  -0.78280  -0.78125  -0.65055
 Alpha  occ. eigenvalues --   -0.65006  -0.60973  -0.60861  -0.59355  -0.59313
 Alpha  occ. eigenvalues --   -0.57713  -0.57453  -0.55262  -0.55181  -0.52705
 Alpha  occ. eigenvalues --   -0.52630  -0.52368  -0.52364  -0.49941  -0.49855
 Alpha  occ. eigenvalues --   -0.48055  -0.47697  -0.46663  -0.46522  -0.45872
 Alpha  occ. eigenvalues --   -0.45709  -0.45656  -0.45517  -0.43776  -0.43705
 Alpha virt. eigenvalues --    0.21900   0.23026   0.23523   0.25038   0.26073
 Alpha virt. eigenvalues --    0.26504   0.26745   0.27336   0.27849   0.29199
 Alpha virt. eigenvalues --    0.30423   0.31063   0.31538   0.31853   0.32534

 Mulliken charges:
               1
     1  C   -0.298333
     2  C   -0.300010
     3  C   -0.480475
     4  H    0.149195
     5  H    0.149429
     6  H    0.151392
     7  H    0.151389
     8  H    0.154650
     9  H    0.165133
    10  H    0.158451
    11  C   -0.298212
    12  C   -0.299631
    13  C   -0.475692
    14  H    0.149471
    15  H    0.149681
    16  H    0.151886
    17  H    0.151876
    18  H    0.155170
    19  H    0.155178
    20  H    0.160216
    21  C   -0.297624
    22  C   -0.304360
    23  C   -0.477812
    24  H    0.149020
    25  H    0.148985
    26  H    0.152310
    27  H    0.158521
    28  H    0.155442
    29  H    0.155411
    30  H    0.159540
    31  C   -0.298090
    32  C   -0.299609
    33  C   -0.475643
    34  H    0.149516
    35  H    0.149661
    36  H    0.151833
    37  H    0.151779
    38  H    0.155128
    39  H    0.155119
    40  H    0.160108
 Sum of Mulliken charges =  -0.00000

 Dipole moment (field-independent basis, Debye):
    X=             -0.0100    Y=             -0.0050    Z=              0.0005  Tot=              0.0112
 Quadrupole moment (field-independent basis, Debye-Ang):
   XX=            -86.4760   YY=            -84.8452   ZZ=            -83.7481
   XY=             -0.6148   XZ=             -0.2728   YZ=              0.0416

 Normal termination of Gaussian 16 at Wed May  5 18:24:19 2021.
