 Gaussian 16, Revision A.03,
 Gaussian 16:  EM64L-G16RevA.03 25-Dec-2016

 -------------
 #p 6-31g* mp2
 -------------

 ------------------------------------------------------
 Input file generated by CHIRIPA (05-May-2021 14:55:20)
 ------------------------------------------------------
 Symbolic Z-matrix:
 Charge =  0 Multiplicity = 1

                         Standard orientation:
 ---------------------------------------------------------------------
 Center     Atomic      Atomic             Coordinates (Angstroms)
 Number     Number       Type             X           Y           Z
 ---------------------------------------------------------------------
      1          6           0       -3.274746    2.239191    0.626996
      2          6           0       -2.786813    1.363435    1.602442
      3          6           0       -2.286182    0.108439    1.243413
      4          6           0       -2.288545   -0.239892   -0.106383
      5          6           0       -2.767792    0.610553   -1.101549
      6          6           0       -3.263697    1.860622   -0.719512
      7          1           0       -3.661813    3.212188    0.914834
      8          1           0       -2.794157    1.654768    2.648919
      9          1           0       -1.902359   -0.589036    1.978006
     10          1           0       -2.747440    0.292025   -2.136703
     11          1           0       -3.641995    2.538703   -1.479212
     12          7           0       -1.761050   -1.565892   -0.498649
     13          8           0       -1.774134   -1.849038   -1.694598
     14          8           0       -1.344505   -2.296958    0.397269
     15          6           0        3.219751   -0.699115    0.207108
     16          6           0        2.005964   -1.628300    0.243463
     17          6           0        2.380468   -3.078225    0.552102
     18          1           0        3.930547   -1.064173   -0.546846
     19          1           0        3.738412   -0.746831    1.174637
     20          1           0        1.488958   -1.577795   -0.723371
     21          1           0        1.297888   -1.260878    0.997285
     22          1           0        2.876550   -3.149133    1.525485
     23          1           0        3.068706   -3.467849   -0.204947
     24          1           0        1.497847   -3.725058    0.573227
     25          6           0        2.861484    0.753775   -0.100272
     26          6           0        4.075272    1.682958   -0.136628
     27          6           0        3.700768    3.132883   -0.445266
     28          1           0        2.342824    0.801489   -1.067800
     29          1           0        2.150688    1.118832    0.653682
     30          1           0        4.783347    1.315538   -0.890448
     31          1           0        4.592278    1.632453    0.830207
     32          1           0        3.012529    3.522508    0.311783
     33          1           0        3.204685    3.203792   -1.418649
     34          1           0        4.583389    3.779717   -0.466391
 ---------------------------------------------------------------------

 SCF Done:  E(RHF) =  -669.536202946     A.U. after   15 cycles
 E2 =    -0.2092515119D+01 EUMP2 =    -0.67162871806471D+03

 The electronic state is 1-A.
 Alpha  occ. eigenvalues --  -20.60947 -20.60929 -15.85944 -11.31270 -11.27835
 Alpha  occ. eigenvalues --  -11.27827 -11.27567 -11.26841 -11.26830 -11.21345
 Alpha  occ. eigenvalues --  -11.20996 -11.20960 -11.20693 -11.20527 -11.19836
 Alpha  occ. eigenvalues --   -1.59983  -1.39542  -1.19435  -1.08840  -1.07865
 Alpha  occ. eigenvalues --   -1.04833  -1.02869  -0.95689  -0.95333  -0.86370
 Alpha  occ. eigenvalues --   -0.86233  -0.82524  -0.79005  -0.77675  -0.77538
 Alpha  occ. eigenvalues --   -0.72182  -0.71274  -0.70547  -0.65095  -0.64840
 Alpha  occ. eigenvalues --   -0.64509  -0.62184  -0.60282  -0.58752  -0.56887
 Alpha  occ. eigenvalues --   -0.55337  -0.54665  -0.53157  -0.52928  -0.51998
 Alpha  occ. eigenvalues --   -0.51767  -0.49339  -0.48948  -0.48927  -0.47300
 Alpha  occ. eigenvalues --   -0.46078  -0.45409  -0.45084  -0.44612  -0.43118
 Alpha  occ. eigenvalues --   -0.37408  -0.36432
 Alpha virt. eigenvalues --    0.04925   0.11189   0.16404   0.21286   0.23317
 Alpha virt. eigenvalues --    0.24945   0.26820   0.27352   0.27653   0.28429
 Alpha virt. eigenvalues --    0.28730   0.30720   0.31636   0.32109   0.32694

 Mulliken charges:
               1
     1  C   -0.170461
     2  C   -0.218584
     3  C   -0.171262
     4  C    0.159561
     5  C   -0.170742
     6  C   -0.218369
     7  H    0.225960
     8  H    0.223667
     9  H    0.275610
    10  H    0.275639
    11  H    0.223787
    12  N    0.489361
    13  O   -0.459899
    14  O   -0.458043
    15  C   -0.298570
    16  C   -0.297333
    17  C   -0.479118
    18  H    0.148574
    19  H    0.146167
    20  H    0.156145
    21  H    0.149625
    22  H    0.147375
    23  H    0.150425
    24  H    0.178301
    25  C   -0.297304
    26  C   -0.298818
    27  C   -0.475011
    28  H    0.148884
    29  H    0.145039
    30  H    0.152547
    31  H    0.151021
    32  H    0.152322
    33  H    0.154266
    34  H    0.159240
 Sum of Mulliken charges =  -0.00000

 Dipole moment (field-independent basis, Debye):
    X=             -2.1041    Y=              4.5338    Z=              1.3389  Tot=              5.1744
 Quadrupole moment (field-independent basis, Debye-Ang):
   XX=            -87.5252   YY=            -98.4033   ZZ=            -89.5858
   XY=            -10.6992   XZ=             -2.1930   YZ=             -1.4667

 Normal termination of Gaussian 16 at Thu May  6 10:52:26 2021.
