 Gaussian 16, Revision A.03,
 Gaussian 16:  EM64L-G16RevA.03 25-Dec-2016

 -------------
 #p 6-31g* mp2
 -------------

 ------------------------------------------------------
 Input file generated by CHIRIPA (05-May-2021 14:57:22)
 ------------------------------------------------------
 Symbolic Z-matrix:
 Charge =  0 Multiplicity = 1

                         Standard orientation:
 ---------------------------------------------------------------------
 Center     Atomic      Atomic             Coordinates (Angstroms)
 Number     Number       Type             X           Y           Z
 ---------------------------------------------------------------------
      1          6           0       -1.825310   -2.152150    0.719545
      2          6           0       -2.197308   -1.270557    1.739807
      3          6           0       -2.940767   -0.122548    1.450166
      4          6           0       -3.296812    0.114007    0.123304
      5          6           0       -2.941303   -0.745251   -0.915242
      6          6           0       -2.197838   -1.887150   -0.602392
      7          1           0       -1.247771   -3.041577    0.953560
      8          1           0       -1.909395   -1.473818    2.767346
      9          1           0       -3.242098    0.576799    2.220576
     10          1           0       -3.243038   -0.515859   -1.930010
     11          1           0       -1.910339   -2.570041   -1.396779
     12          7           0       -4.083882    1.326119   -0.195611
     13          8           0       -4.385122    1.511922   -1.372628
     14          8           0       -4.384644    2.067416    0.737479
     15          6           0        5.237071    1.378982    0.463433
     16          6           0        5.273938   -0.018178    0.407689
     17          6           0        4.133051   -0.745020    0.054669
     18          6           0        2.966976   -0.039260   -0.237670
     19          6           0        2.898619    1.352300   -0.190986
     20          6           0        4.051620    2.058563    0.164444
     21          1           0        6.128045    1.935617    0.738604
     22          1           0        6.193186   -0.548602    0.639375
     23          1           0        4.133687   -1.827065    0.003701
     24          1           0        1.967629    1.853105   -0.427350
     25          1           0        4.020063    3.143572    0.206917
     26          7           0        1.752757   -0.797843   -0.612672
     27          8           0        0.737802   -0.152472   -0.865656
     28          8           0        1.838999   -2.023426   -0.646515
 ---------------------------------------------------------------------

 SCF Done:  E(RHF) =  -868.338968905     A.U. after   16 cycles
 E2 =    -0.2600193742D+01 EUMP2 =    -0.87093916264693D+03

 The electronic state is 1-A.
 Alpha  occ. eigenvalues --  -20.61433 -20.61374 -20.59766 -20.59750 -15.86427
 Alpha  occ. eigenvalues --  -15.84800 -11.31615 -11.29819 -11.28183 -11.28130
 Alpha  occ. eigenvalues --  -11.27867 -11.27148 -11.27107 -11.26418 -11.26266
 Alpha  occ. eigenvalues --  -11.25954 -11.25394 -11.25171  -1.60475  -1.58843
 Alpha  occ. eigenvalues --   -1.40032  -1.38407  -1.19772  -1.17931  -1.09202
 Alpha  occ. eigenvalues --   -1.07391  -1.05143  -1.03304  -0.96067  -0.94295
 Alpha  occ. eigenvalues --   -0.86550  -0.84732  -0.82902  -0.81162  -0.77971
 Alpha  occ. eigenvalues --   -0.76260  -0.72666  -0.71787  -0.71037  -0.70873
 Alpha  occ. eigenvalues --   -0.70156  -0.69061  -0.65424  -0.65142  -0.63609
 Alpha  occ. eigenvalues --   -0.63349  -0.62489  -0.60704  -0.55654  -0.53808
 Alpha  occ. eigenvalues --   -0.53490  -0.53230  -0.51714  -0.51437  -0.49437
 Alpha  occ. eigenvalues --   -0.49299  -0.47804  -0.47757  -0.45465  -0.43892
 Alpha  occ. eigenvalues --   -0.37747  -0.36740  -0.35822  -0.34807
 Alpha virt. eigenvalues --    0.04535   0.06276   0.10917   0.12800   0.16073
 Alpha virt. eigenvalues --    0.17880   0.21097   0.22780   0.27020   0.27979
 Alpha virt. eigenvalues --    0.28630   0.29660   0.30676   0.32191   0.32315

 Mulliken charges:
               1
     1  C   -0.165528
     2  C   -0.220809
     3  C   -0.173698
     4  C    0.158066
     5  C   -0.167431
     6  C   -0.196650
     7  H    0.226078
     8  H    0.215836
     9  H    0.268669
    10  H    0.271072
    11  H    0.224528
    12  N    0.487917
    13  O   -0.463445
    14  O   -0.466430
    15  C   -0.170210
    16  C   -0.218651
    17  C   -0.171446
    18  C    0.157551
    19  C   -0.170795
    20  C   -0.218695
    21  H    0.227239
    22  H    0.224145
    23  H    0.274130
    24  H    0.278448
    25  H    0.226154
    26  N    0.488530
    27  O   -0.455203
    28  O   -0.469372
 Sum of Mulliken charges =  -0.00000

 Dipole moment (field-independent basis, Debye):
    X=              7.4430    Y=             -1.6639    Z=              2.2431  Tot=              7.9497
 Quadrupole moment (field-independent basis, Debye-Ang):
   XX=            -98.6894   YY=           -102.7120   ZZ=           -101.7265
   XY=             20.7176   XZ=              0.5043   YZ=             -0.0043

 Normal termination of Gaussian 16 at Thu May  6 04:57:23 2021.
