 Gaussian 16, Revision A.03,
 Gaussian 16:  EM64L-G16RevA.03 25-Dec-2016

 -------------
 #p 6-31g* mp2
 -------------

 ------------------------------------------------------
 Input file generated by CHIRIPA (05-May-2021 14:53:16)
 ------------------------------------------------------
 Symbolic Z-matrix:
 Charge =  0 Multiplicity = 1

                         Standard orientation:
 ---------------------------------------------------------------------
 Center     Atomic      Atomic             Coordinates (Angstroms)
 Number     Number       Type             X           Y           Z
 ---------------------------------------------------------------------
      1          6           0       -4.706670   -0.456444    0.339257
      2          6           0       -6.104061   -0.622757   -0.258758
      3          6           0       -6.952052   -1.646924    0.496085
      4          1           0       -4.196224   -1.429270    0.338355
      5          1           0       -4.799379   -0.153082    1.391289
      6          1           0       -6.008737   -0.924373   -1.309737
      7          1           0       -6.611169    0.350616   -0.256608
      8          1           0       -7.076751   -1.348009    1.541886
      9          1           0       -6.470897   -2.630242    0.482774
     10          1           0       -7.946944   -1.750003    0.051761
     11          6           0       -3.846958    0.564087   -0.404477
     12          6           0       -2.449567    0.730399    0.193538
     13          6           0       -1.601577    1.754567   -0.561304
     14          1           0       -3.754249    0.260724   -1.456509
     15          1           0       -4.357404    1.536912   -0.403575
     16          1           0       -1.942460   -0.242974    0.191388
     17          1           0       -2.544891    1.032015    1.244517
     18          1           0       -2.082731    2.737884   -0.547993
     19          1           0       -1.476877    1.455651   -1.607106
     20          1           0       -0.606684    1.857645   -0.116980
     21          6           0        2.143491    2.168692    0.234996
     22          6           0        2.774089    1.605828    1.349470
     23          6           0        3.440711    0.381390    1.244997
     24          6           0        3.457057   -0.255775    0.005221
     25          6           0        2.838219    0.279428   -1.123446
     26          6           0        2.177509    1.504867   -0.995735
     27          1           0        1.627939    3.120253    0.325179
     28          1           0        2.749293    2.119123    2.306526
     29          1           0        3.937232   -0.076944    2.091647
     30          1           0        2.880039   -0.255857   -2.064264
     31          1           0        1.688651    1.939627   -1.862941
     32          7           0        4.159651   -1.552561   -0.117681
     33          8           0        4.159614   -2.093972   -1.221089
     34          8           0        4.697078   -2.003016    0.891725
 ---------------------------------------------------------------------

 SCF Done:  E(RHF) =  -669.534616125     A.U. after   15 cycles
 E2 =    -0.2092265714D+01 EUMP2 =    -0.67162688183908D+03

 The electronic state is 1-A.
 Alpha  occ. eigenvalues --  -20.60789 -20.60784 -15.85842 -11.31222 -11.27784
 Alpha  occ. eigenvalues --  -11.27767 -11.27510 -11.26813 -11.26781 -11.22057
 Alpha  occ. eigenvalues --  -11.21820 -11.21745 -11.21672 -11.21630 -11.21236
 Alpha  occ. eigenvalues --   -1.59864  -1.39417  -1.19398  -1.08814  -1.08749
 Alpha  occ. eigenvalues --   -1.04796  -1.03888  -0.96366  -0.95623  -0.87395
 Alpha  occ. eigenvalues --   -0.86188  -0.82451  -0.79963  -0.78558  -0.77491
 Alpha  occ. eigenvalues --   -0.72061  -0.71187  -0.70519  -0.65391  -0.65052
 Alpha  occ. eigenvalues --   -0.64798  -0.62142  -0.61283  -0.59769  -0.57974
 Alpha  occ. eigenvalues --   -0.55655  -0.55299  -0.53517  -0.52930  -0.52824
 Alpha  occ. eigenvalues --   -0.52571  -0.50295  -0.48820  -0.48814  -0.48271
 Alpha  occ. eigenvalues --   -0.46980  -0.46106  -0.46018  -0.44820  -0.44162
 Alpha  occ. eigenvalues --   -0.37300  -0.36377
 Alpha virt. eigenvalues --    0.04994   0.11218   0.16410   0.21008   0.22619
 Alpha virt. eigenvalues --    0.24139   0.26192   0.26654   0.27248   0.27706
 Alpha virt. eigenvalues --    0.28627   0.30202   0.31247   0.31708   0.32389

 Mulliken charges:
               1
     1  C   -0.298723
     2  C   -0.299864
     3  C   -0.475941
     4  H    0.151363
     5  H    0.149503
     6  H    0.152395
     7  H    0.151606
     8  H    0.155223
     9  H    0.156234
    10  H    0.160848
    11  C   -0.298739
    12  C   -0.298126
    13  C   -0.484275
    14  H    0.149951
    15  H    0.149105
    16  H    0.155629
    17  H    0.151441
    18  H    0.152769
    19  H    0.152531
    20  H    0.162947
    21  C   -0.174360
    22  C   -0.219343
    23  C   -0.171135
    24  C    0.158816
    25  C   -0.172158
    26  C   -0.213901
    27  H    0.227574
    28  H    0.223793
    29  H    0.275744
    30  H    0.275641
    31  H    0.226044
    32  N    0.488038
    33  O   -0.460332
    34  O   -0.460300
 Sum of Mulliken charges =  -0.00000

 Dipole moment (field-independent basis, Debye):
    X=             -2.4849    Y=              4.5205    Z=              0.4527  Tot=              5.1783
 Quadrupole moment (field-independent basis, Debye-Ang):
   XX=           -112.5831   YY=            -97.8444   ZZ=            -89.9291
   XY=             16.0667   XZ=              2.9259   YZ=              0.9856

 Normal termination of Gaussian 16 at Thu May  6 15:34:20 2021.
