 Gaussian 16, Revision A.03,
 Gaussian 16:  EM64L-G16RevA.03 25-Dec-2016

 -------------
 #p 6-31g* mp2
 -------------

 ------------------------------------------------------
 Input file generated by CHIRIPA (05-May-2021 14:55:25)
 ------------------------------------------------------
 Symbolic Z-matrix:
 Charge =  0 Multiplicity = 1

                         Standard orientation:
 ---------------------------------------------------------------------
 Center     Atomic      Atomic             Coordinates (Angstroms)
 Number     Number       Type             X           Y           Z
 ---------------------------------------------------------------------
      1          6           0       -1.139935   -2.149930    1.527308
      2          6           0       -1.814168   -2.340552    0.316691
      3          6           0       -2.240348   -1.244218   -0.438934
      4          6           0       -1.974372    0.034574    0.048137
      5          6           0       -1.304898    0.257035    1.250471
      6          6           0       -0.887896   -0.854030    1.989519
      7          1           0       -0.812433   -3.007310    2.107857
      8          1           0       -2.011279   -3.345824   -0.044725
      9          1           0       -2.764330   -1.363079   -1.379537
     10          1           0       -1.122893    1.271172    1.584864
     11          1           0       -0.364488   -0.702980    2.929346
     12          7           0       -2.420691    1.203011   -0.743035
     13          8           0       -2.174135    2.319470   -0.292072
     14          8           0       -3.008622    0.980249   -1.799137
     15          6           0        2.092117   -0.465108   -0.376345
     16          6           0        3.074103   -1.582309   -0.730676
     17          6           0        2.376973   -2.911180   -1.023778
     18          1           0        1.499097   -0.770097    0.496727
     19          1           0        1.382965   -0.333201   -1.205259
     20          1           0        3.782048   -1.711132    0.098079
     21          1           0        3.664986   -1.274547   -1.602889
     22          1           0        1.683890   -2.805371   -1.864637
     23          1           0        1.801617   -3.244436   -0.154005
     24          1           0        3.097580   -3.695779   -1.274753
     25          6           0        2.773964    0.869585   -0.080697
     26          6           0        1.791978    1.986786    0.273635
     27          6           0        2.489108    3.315656    0.566737
     28          1           0        3.483115    0.737677    0.748218
     29          1           0        3.366984    1.174574   -0.953768
     30          1           0        1.201095    1.679024    1.145848
     31          1           0        1.084033    2.115608   -0.555119
     32          1           0        3.064464    3.648913   -0.303037
     33          1           0        3.182191    3.209848    1.407595
     34          1           0        1.768501    4.100255    0.817712
 ---------------------------------------------------------------------

 SCF Done:  E(RHF) =  -669.533556991     A.U. after   15 cycles
 E2 =    -0.2096463641D+01 EUMP2 =    -0.67163002063198D+03

 The electronic state is 1-A.
 Alpha  occ. eigenvalues --  -20.60866 -20.60848 -15.85896 -11.31238 -11.27830
 Alpha  occ. eigenvalues --  -11.27782 -11.27571 -11.26834 -11.26797 -11.21743
 Alpha  occ. eigenvalues --  -11.21527 -11.21377 -11.21369 -11.21268 -11.20916
 Alpha  occ. eigenvalues --   -1.59924  -1.39477  -1.19432  -1.08831  -1.08455
 Alpha  occ. eigenvalues --   -1.04841  -1.03578  -0.96022  -0.95664  -0.87055
 Alpha  occ. eigenvalues --   -0.86229  -0.82500  -0.79669  -0.78317  -0.77511
 Alpha  occ. eigenvalues --   -0.72118  -0.71237  -0.70550  -0.65168  -0.65046
 Alpha  occ. eigenvalues --   -0.64840  -0.62213  -0.60977  -0.59385  -0.57636
 Alpha  occ. eigenvalues --   -0.55343  -0.55338  -0.53344  -0.52947  -0.52656
 Alpha  occ. eigenvalues --   -0.52419  -0.49991  -0.48881  -0.48876  -0.47965
 Alpha  occ. eigenvalues --   -0.46705  -0.45770  -0.45726  -0.44819  -0.43799
 Alpha  occ. eigenvalues --   -0.37360  -0.36280
 Alpha virt. eigenvalues --    0.04952   0.11122   0.16326   0.20763   0.23054
 Alpha virt. eigenvalues --    0.23854   0.26221   0.26787   0.27670   0.27849
 Alpha virt. eigenvalues --    0.28487   0.30654   0.31596   0.31691   0.32058

 Mulliken charges:
               1
     1  C   -0.168829
     2  C   -0.216387
     3  C   -0.171373
     4  C    0.159111
     5  C   -0.163475
     6  C   -0.224082
     7  H    0.226020
     8  H    0.224283
     9  H    0.275775
    10  H    0.277701
    11  H    0.223538
    12  N    0.487680
    13  O   -0.459741
    14  O   -0.460157
    15  C   -0.305006
    16  C   -0.298999
    17  C   -0.474019
    18  H    0.155223
    19  H    0.149745
    20  H    0.149449
    21  H    0.153235
    22  H    0.155675
    23  H    0.147843
    24  H    0.159696
    25  C   -0.297791
    26  C   -0.300141
    27  C   -0.476159
    28  H    0.145788
    29  H    0.150941
    30  H    0.139119
    31  H    0.162134
    32  H    0.156836
    33  H    0.151304
    34  H    0.165062
 Sum of Mulliken charges =  -0.00000

 Dipole moment (field-independent basis, Debye):
    X=              1.4103    Y=             -4.0297    Z=              2.7308  Tot=              5.0680
 Quadrupole moment (field-independent basis, Debye-Ang):
   XX=           -101.4494   YY=            -94.5107   ZZ=            -91.5845
   XY=              9.4231   XZ=             -4.1216   YZ=              1.6284

 Normal termination of Gaussian 16 at Wed May  5 17:40:13 2021.
