 Gaussian 16, Revision A.03,
 Gaussian 16:  EM64L-G16RevA.03 25-Dec-2016

 -------------
 #p 6-31g* mp2
 -------------

 ------------------------------------------------------
 Input file generated by CHIRIPA (05-May-2021 14:57:21)
 ------------------------------------------------------
 Symbolic Z-matrix:
 Charge =  0 Multiplicity = 1

                         Standard orientation:
 ---------------------------------------------------------------------
 Center     Atomic      Atomic             Coordinates (Angstroms)
 Number     Number       Type             X           Y           Z
 ---------------------------------------------------------------------
      1          6           0        1.185747   -1.163596    2.158047
      2          6           0        1.792738   -2.008844    1.223362
      3          6           0        2.565714   -1.480584    0.185095
      4          6           0        2.711327   -0.096160    0.111227
      5          6           0        2.119237    0.772099    1.027112
      6          6           0        1.350642    0.221736    2.057117
      7          1           0        0.586982   -1.582546    2.961389
      8          1           0        1.666405   -3.085098    1.299277
      9          1           0        3.046807   -2.111902   -0.552065
     10          1           0        2.263373    1.840885    0.925424
     11          1           0        0.880417    0.880583    2.781585
     12          7           0        3.527323    0.474785   -0.983566
     13          8           0        3.640242    1.697907   -1.026682
     14          8           0        4.038530   -0.311641   -1.777820
     15          6           0       -2.046814    2.602019    0.226416
     16          6           0       -3.359271    2.132853    0.344154
     17          6           0       -3.664499    0.798514    0.059686
     18          6           0       -2.628083   -0.042902   -0.341749
     19          6           0       -1.310590    0.394650   -0.468443
     20          6           0       -1.028458    1.732953   -0.178793
     21          1           0       -1.818677    3.640105    0.449410
     22          1           0       -4.152157    2.805521    0.658633
     23          1           0       -4.671859    0.408928    0.142551
     24          1           0       -0.541451   -0.299732   -0.784159
     25          1           0       -0.008275    2.094548   -0.271100
     26          7           0       -2.938989   -1.457605   -0.645646
     27          8           0       -2.007965   -2.178770   -0.997429
     28          8           0       -4.107814   -1.818495   -0.526301
 ---------------------------------------------------------------------

 SCF Done:  E(RHF) =  -868.336748501     A.U. after   16 cycles
 E2 =    -0.2604008706D+01 EUMP2 =    -0.87094075720634D+03

 The electronic state is 1-A.
 Alpha  occ. eigenvalues --  -20.61367 -20.61327 -20.61058 -20.61045 -15.86399
 Alpha  occ. eigenvalues --  -15.86103 -11.31804 -11.31381 -11.28348 -11.28204
 Alpha  occ. eigenvalues --  -11.27957 -11.27891 -11.27887 -11.27683 -11.27307
 Alpha  occ. eigenvalues --  -11.27183 -11.26965 -11.26864  -1.60426  -1.60133
 Alpha  occ. eigenvalues --   -1.39978  -1.39686  -1.19943  -1.19551  -1.09280
 Alpha  occ. eigenvalues --   -1.08978  -1.05344  -1.04898  -0.96128  -0.95818
 Alpha  occ. eigenvalues --   -0.86686  -0.86343  -0.82950  -0.82640  -0.78040
 Alpha  occ. eigenvalues --   -0.77695  -0.72599  -0.72325  -0.71768  -0.71460
 Alpha  occ. eigenvalues --   -0.70963  -0.70667  -0.65539  -0.65285  -0.65206
 Alpha  occ. eigenvalues --   -0.64915  -0.62680  -0.62261  -0.55714  -0.55490
 Alpha  occ. eigenvalues --   -0.53857  -0.53379  -0.53023  -0.52974  -0.49376
 Alpha  occ. eigenvalues --   -0.49352  -0.49079  -0.49073  -0.45369  -0.45110
 Alpha  occ. eigenvalues --   -0.37985  -0.37654  -0.37243  -0.35909
 Alpha virt. eigenvalues --    0.04411   0.04865   0.10611   0.11071   0.15839
 Alpha virt. eigenvalues --    0.16567   0.20444   0.21695   0.25869   0.27386
 Alpha virt. eigenvalues --    0.27826   0.28503   0.30096   0.31304   0.31796

 Mulliken charges:
               1
     1  C   -0.172287
     2  C   -0.212462
     3  C   -0.173839
     4  C    0.156111
     5  C   -0.188242
     6  C   -0.210186
     7  H    0.230454
     8  H    0.232198
     9  H    0.280104
    10  H    0.270953
    11  H    0.224316
    12  N    0.488329
    13  O   -0.464304
    14  O   -0.454782
    15  C   -0.174236
    16  C   -0.219325
    17  C   -0.172090
    18  C    0.154764
    19  C   -0.169248
    20  C   -0.221034
    21  H    0.225669
    22  H    0.223404
    23  H    0.275184
    24  H    0.278719
    25  H    0.226491
    26  N    0.487738
    27  O   -0.461879
    28  O   -0.460523
 Sum of Mulliken charges =  -0.00000

 Dipole moment (field-independent basis, Debye):
    X=             -1.6406    Y=              2.6652    Z=              5.0115  Tot=              5.9084
 Quadrupole moment (field-independent basis, Debye-Ang):
   XX=           -122.3034   YY=           -100.8874   ZZ=           -104.9554
   XY=            -20.9271   XZ=              5.4160   YZ=             -0.6323

 Normal termination of Gaussian 16 at Thu May  6 17:47:31 2021.
