 Gaussian 16, Revision A.03,
 Gaussian 16:  EM64L-G16RevA.03 25-Dec-2016

 -------------
 #p 6-31g* mp2
 -------------

 ------------------------------------------------------
 Input file generated by CHIRIPA (05-May-2021 14:55:19)
 ------------------------------------------------------
 Symbolic Z-matrix:
 Charge =  0 Multiplicity = 1

                         Standard orientation:
 ---------------------------------------------------------------------
 Center     Atomic      Atomic             Coordinates (Angstroms)
 Number     Number       Type             X           Y           Z
 ---------------------------------------------------------------------
      1          6           0        4.062638    0.776313    0.778031
      2          6           0        3.206256    0.191528    1.716731
      3          6           0        2.136779   -0.607359    1.301342
      4          6           0        1.952194   -0.801246   -0.066732
      5          6           0        2.788127   -0.232294   -1.026315
      6          6           0        3.851213    0.562912   -0.588088
      7          1           0        4.890950    1.395478    1.109586
      8          1           0        3.368041    0.355525    2.778322
      9          1           0        1.458531   -1.072156    2.006581
     10          1           0        2.601452   -0.414029   -2.077763
     11          1           0        4.514690    1.015799   -1.319345
     12          7           0        0.823370   -1.645043   -0.518575
     13          8           0        0.682195   -1.800447   -1.729589
     14          8           0        0.101148   -2.135031    0.346841
     15          6           0       -2.304754    1.274594   -0.472838
     16          6           0       -1.016642    1.769542    0.185781
     17          6           0       -0.162671    2.622416   -0.752907
     18          1           0       -2.050523    0.693005   -1.369536
     19          1           0       -2.888469    2.139779   -0.816534
     20          1           0       -0.436183    0.903730    0.529367
     21          1           0       -1.273963    2.349859    1.081121
     22          1           0       -0.719774    3.503948   -1.086280
     23          1           0        0.122768    2.049601   -1.641170
     24          1           0        0.753217    2.965626   -0.261771
     25          6           0       -3.169136    0.420581    0.453031
     26          6           0       -4.457247   -0.074366   -0.205588
     27          6           0       -5.311218   -0.927240    0.733100
     28          1           0       -2.585420   -0.444604    0.796727
     29          1           0       -3.423367    1.002171    1.349728
     30          1           0       -4.199926   -0.654685   -1.100929
     31          1           0       -5.037707    0.791446   -0.549175
     32          1           0       -5.596656   -0.354426    1.621362
     33          1           0       -4.754116   -1.808773    1.066473
     34          1           0       -6.227107   -1.270451    0.241963
 ---------------------------------------------------------------------

 SCF Done:  E(RHF) =  -669.536049345     A.U. after   15 cycles
 E2 =    -0.2094333639D+01 EUMP2 =    -0.67163038298470D+03

 The electronic state is 1-A.
 Alpha  occ. eigenvalues --  -20.61029 -20.61023 -15.86034 -11.31297 -11.27866
 Alpha  occ. eigenvalues --  -11.27854 -11.27597 -11.26866 -11.26856 -11.21211
 Alpha  occ. eigenvalues --  -11.20854 -11.20769 -11.20701 -11.20477 -11.20301
 Alpha  occ. eigenvalues --   -1.60076  -1.39633  -1.19477  -1.08893  -1.07748
 Alpha  occ. eigenvalues --   -1.04863  -1.02945  -0.95739  -0.95384  -0.86421
 Alpha  occ. eigenvalues --   -0.86262  -0.82573  -0.79032  -0.77645  -0.77516
 Alpha  occ. eigenvalues --   -0.72261  -0.71421  -0.70586  -0.65134  -0.64866
 Alpha  occ. eigenvalues --   -0.64345  -0.62212  -0.60359  -0.58793  -0.57003
 Alpha  occ. eigenvalues --   -0.55372  -0.54716  -0.53119  -0.52955  -0.52119
 Alpha  occ. eigenvalues --   -0.51817  -0.49344  -0.49027  -0.49017  -0.47348
 Alpha  occ. eigenvalues --   -0.46122  -0.45343  -0.45068  -0.44590  -0.43156
 Alpha  occ. eigenvalues --   -0.37407  -0.36426
 Alpha virt. eigenvalues --    0.04860   0.11101   0.16352   0.21274   0.23273
 Alpha virt. eigenvalues --    0.24755   0.27017   0.27146   0.28124   0.28411
 Alpha virt. eigenvalues --    0.28515   0.30835   0.31828   0.31971   0.32220

 Mulliken charges:
               1
     1  C   -0.170918
     2  C   -0.217658
     3  C   -0.172457
     4  C    0.158809
     5  C   -0.169891
     6  C   -0.218007
     7  H    0.226176
     8  H    0.224114
     9  H    0.275825
    10  H    0.275676
    11  H    0.224117
    12  N    0.490779
    13  O   -0.458801
    14  O   -0.460198
    15  C   -0.299577
    16  C   -0.303943
    17  C   -0.475734
    18  H    0.157603
    19  H    0.145946
    20  H    0.150637
    21  H    0.149150
    22  H    0.154413
    23  H    0.154637
    24  H    0.156002
    25  C   -0.304155
    26  C   -0.299433
    27  C   -0.476287
    28  H    0.165982
    29  H    0.143328
    30  H    0.157247
    31  H    0.147430
    32  H    0.151353
    33  H    0.159896
    34  H    0.157937
 Sum of Mulliken charges =  -0.00000

 Dipole moment (field-independent basis, Debye):
    X=              4.1365    Y=              2.7748    Z=              1.5488  Tot=              5.2162
 Quadrupole moment (field-independent basis, Debye-Ang):
   XX=            -80.0558   YY=           -100.2153   ZZ=            -90.6545
   XY=              2.5224   XZ=              1.8779   YZ=             -1.6772

 Normal termination of Gaussian 16 at Thu May  6 04:29:16 2021.
