 Gaussian 16, Revision A.03,
 Gaussian 16:  EM64L-G16RevA.03 25-Dec-2016

 -------------
 #p 6-31g* mp2
 -------------

 ------------------------------------------------------
 Input file generated by CHIRIPA (05-May-2021 14:55:20)
 ------------------------------------------------------
 Symbolic Z-matrix:
 Charge =  0 Multiplicity = 1

                         Standard orientation:
 ---------------------------------------------------------------------
 Center     Atomic      Atomic             Coordinates (Angstroms)
 Number     Number       Type             X           Y           Z
 ---------------------------------------------------------------------
      1          6           0       -3.762379   -2.304583    0.711523
      2          6           0       -2.482318   -2.319604    0.147839
      3          6           0       -1.918106   -1.147325   -0.363997
      4          6           0       -2.665321    0.027521   -0.295473
      5          6           0       -3.943025    0.074664    0.259991
      6          6           0       -4.487369   -1.109604    0.765704
      7          1           0       -4.192955   -3.219894    1.106752
      8          1           0       -1.916979   -3.246184    0.104417
      9          1           0       -0.929197   -1.130561   -0.805808
     10          1           0       -4.482326    1.013666    0.289104
     11          1           0       -5.481698   -1.094963    1.202900
     12          7           0       -2.078532    1.274906   -0.834090
     13          8           0       -2.757308    2.296996   -0.761755
     14          8           0       -0.950941    1.206898   -1.318395
     15          6           0        3.161702    0.630707    0.795186
     16          6           0        2.479175    1.880629    0.238556
     17          6           0        1.735709    2.675919    1.312132
     18          1           0        2.407047   -0.010061    1.271482
     19          1           0        3.864610    0.926738    1.586186
     20          1           0        1.778777    1.582458   -0.552111
     21          1           0        3.235512    2.518406   -0.236638
     22          1           0        2.425652    3.001614    2.097309
     23          1           0        0.960639    2.060348    1.780044
     24          1           0        1.255242    3.565207    0.892397
     25          6           0        3.909098   -0.174866   -0.266029
     26          6           0        4.591624   -1.424788    0.290602
     27          6           0        5.335090   -2.220077   -0.782975
     28          1           0        3.206189   -0.470897   -1.057029
     29          1           0        4.663752    0.465902   -0.742324
     30          1           0        3.835286   -2.062564    0.765795
     31          1           0        5.292021   -1.126616    1.081268
     32          1           0        6.110160   -1.604506   -1.250887
     33          1           0        4.645147   -2.545772   -1.568151
     34          1           0        5.815557   -3.109365   -0.363239
 ---------------------------------------------------------------------

 SCF Done:  E(RHF) =  -669.536139154     A.U. after   15 cycles
 E2 =    -0.2091304727D+01 EUMP2 =    -0.67162744388092D+03

 The electronic state is 1-A.
 Alpha  occ. eigenvalues --  -20.60956 -20.60950 -15.85990 -11.31309 -11.27877
 Alpha  occ. eigenvalues --  -11.27866 -11.27606 -11.26879 -11.26869 -11.21376
 Alpha  occ. eigenvalues --  -11.20957 -11.20920 -11.20774 -11.20485 -11.20109
 Alpha  occ. eigenvalues --   -1.60013  -1.39570  -1.19477  -1.08880  -1.07883
 Alpha  occ. eigenvalues --   -1.04873  -1.02921  -0.95724  -0.95410  -0.86436
 Alpha  occ. eigenvalues --   -0.86274  -0.82560  -0.79026  -0.77675  -0.77573
 Alpha  occ. eigenvalues --   -0.72218  -0.71327  -0.70586  -0.65137  -0.64876
 Alpha  occ. eigenvalues --   -0.64519  -0.62222  -0.60312  -0.58807  -0.56983
 Alpha  occ. eigenvalues --   -0.55376  -0.54721  -0.53204  -0.52965  -0.52094
 Alpha  occ. eigenvalues --   -0.51833  -0.49392  -0.48975  -0.48965  -0.47333
 Alpha  occ. eigenvalues --   -0.46081  -0.45247  -0.45185  -0.44762  -0.43191
 Alpha  occ. eigenvalues --   -0.37453  -0.36475
 Alpha virt. eigenvalues --    0.04894   0.11176   0.16366   0.21120   0.23163
 Alpha virt. eigenvalues --    0.24839   0.26616   0.27413   0.27850   0.28388
 Alpha virt. eigenvalues --    0.28838   0.30939   0.31854   0.32193   0.32691

 Mulliken charges:
               1
     1  C   -0.170596
     2  C   -0.218461
     3  C   -0.170867
     4  C    0.158076
     5  C   -0.170698
     6  C   -0.218506
     7  H    0.226113
     8  H    0.223913
     9  H    0.275063
    10  H    0.275983
    11  H    0.223936
    12  N    0.491600
    13  O   -0.458577
    14  O   -0.463437
    15  C   -0.296838
    16  C   -0.309493
    17  C   -0.472429
    18  H    0.143296
    19  H    0.146608
    20  H    0.176997
    21  H    0.148214
    22  H    0.148598
    23  H    0.149178
    24  H    0.167237
    25  C   -0.297857
    26  C   -0.298545
    27  C   -0.475109
    28  H    0.148998
    29  H    0.150431
    30  H    0.147275
    31  H    0.151883
    32  H    0.156216
    33  H    0.153472
    34  H    0.158328
 Sum of Mulliken charges =  -0.00000

 Dipole moment (field-independent basis, Debye):
    X=             -2.2949    Y=             -4.3037    Z=              1.7720  Tot=              5.1893
 Quadrupole moment (field-independent basis, Debye-Ang):
   XX=            -80.5335   YY=            -94.3507   ZZ=            -97.0301
   XY=             10.4893   XZ=             -5.6156   YZ=              1.4343

 Normal termination of Gaussian 16 at Thu May  6 01:22:51 2021.
