 Gaussian 16, Revision A.03,
 Gaussian 16:  EM64L-G16RevA.03 25-Dec-2016

 -------------
 #p 6-31g* mp2
 -------------

 ------------------------------------------------------
 Input file generated by CHIRIPA (05-May-2021 14:57:22)
 ------------------------------------------------------
 Symbolic Z-matrix:
 Charge =  0 Multiplicity = 1

                         Standard orientation:
 ---------------------------------------------------------------------
 Center     Atomic      Atomic             Coordinates (Angstroms)
 Number     Number       Type             X           Y           Z
 ---------------------------------------------------------------------
      1          6           0       -2.184787    2.090868   -0.517456
      2          6           0       -1.897580    0.960470   -1.289617
      3          6           0       -2.565366   -0.245800   -1.058266
      4          6           0       -3.518759   -0.286272   -0.042050
      5          6           0       -3.827102    0.822736    0.744280
      6          6           0       -3.146935    2.018521    0.495242
      7          1           0       -1.661226    3.023855   -0.704045
      8          1           0       -1.150846    1.013732   -2.076761
      9          1           0       -2.362600   -1.136125   -1.641040
     10          1           0       -4.576569    0.738837    1.521889
     11          1           0       -3.372036    2.894810    1.096485
     12          7           0       -4.232268   -1.557746    0.212233
     13          8           0       -5.067914   -1.567395    1.113476
     14          8           0       -3.942359   -2.520603   -0.494519
     15          6           0        1.555950    1.797194    0.051257
     16          6           0        2.178436    1.461198    1.257962
     17          6           0        3.201937    0.509309    1.287950
     18          6           0        3.579553   -0.089612    0.087121
     19          6           0        2.978643    0.223845   -1.131051
     20          6           0        1.957333    1.178536   -1.137303
     21          1           0        0.761721    2.537732    0.037180
     22          1           0        1.868779    1.940041    2.182553
     23          1           0        3.700864    0.230394    2.208111
     24          1           0        3.309049   -0.270510   -2.036514
     25          1           0        1.475686    1.437503   -2.075918
     26          7           0        4.661928   -1.098816    0.106304
     27          8           0        4.976266   -1.612096   -0.965317
     28          8           0        5.175461   -1.357443    1.192598
 ---------------------------------------------------------------------

 SCF Done:  E(RHF) =  -868.335198375     A.U. after   16 cycles
 E2 =    -0.2601866726D+01 EUMP2 =    -0.87093706510066D+03

 The electronic state is 1-A.
 Alpha  occ. eigenvalues --  -20.61302 -20.61294 -20.61137 -20.61130 -15.86360
 Alpha  occ. eigenvalues --  -15.86199 -11.31935 -11.31704 -11.28502 -11.28498
 Alpha  occ. eigenvalues --  -11.28429 -11.28352 -11.28288 -11.28169 -11.27676
 Alpha  occ. eigenvalues --  -11.27622 -11.27475 -11.27327  -1.60371  -1.60209
 Alpha  occ. eigenvalues --   -1.39918  -1.39759  -1.20142  -1.19919  -1.09553
 Alpha  occ. eigenvalues --   -1.09291  -1.05568  -1.05353  -0.96349  -0.96089
 Alpha  occ. eigenvalues --   -0.87014  -0.86735  -0.83166  -0.82923  -0.78138
 Alpha  occ. eigenvalues --   -0.77936  -0.72579  -0.72416  -0.71695  -0.71546
 Alpha  occ. eigenvalues --   -0.71534  -0.70892  -0.65837  -0.65769  -0.65568
 Alpha  occ. eigenvalues --   -0.65250  -0.62952  -0.62643  -0.56425  -0.55714
 Alpha  occ. eigenvalues --   -0.53978  -0.53747  -0.53538  -0.53396  -0.49355
 Alpha  occ. eigenvalues --   -0.49316  -0.49185  -0.49158  -0.45276  -0.45133
 Alpha  occ. eigenvalues --   -0.38445  -0.37736  -0.37135  -0.36844
 Alpha virt. eigenvalues --    0.04291   0.04670   0.10150   0.10943   0.15568
 Alpha virt. eigenvalues --    0.16090   0.18091   0.22314   0.24236   0.25511
 Alpha virt. eigenvalues --    0.27781   0.28937   0.30313   0.31439   0.32821

 Mulliken charges:
               1
     1  C   -0.177998
     2  C   -0.212697
     3  C   -0.169775
     4  C    0.160163
     5  C   -0.170155
     6  C   -0.218684
     7  H    0.218410
     8  H    0.218719
     9  H    0.278962
    10  H    0.278144
    11  H    0.224505
    12  N    0.487852
    13  O   -0.458443
    14  O   -0.457389
    15  C   -0.163398
    16  C   -0.219389
    17  C   -0.168809
    18  C    0.158988
    19  C   -0.169824
    20  C   -0.222067
    21  H    0.217803
    22  H    0.224613
    23  H    0.278071
    24  H    0.276934
    25  H    0.215011
    26  N    0.488092
    27  O   -0.459277
    28  O   -0.458362
 Sum of Mulliken charges =  -0.00000

 Dipole moment (field-independent basis, Debye):
    X=             -1.3559    Y=              7.7735    Z=             -0.8021  Tot=              7.9316
 Quadrupole moment (field-independent basis, Debye-Ang):
   XX=           -148.5129   YY=           -108.6352   ZZ=            -97.4965
   XY=             -4.5576   XZ=              0.9036   YZ=              3.2313

 Normal termination of Gaussian 16 at Wed May  5 19:20:31 2021.
