 Gaussian 16, Revision A.03,
 Gaussian 16:  EM64L-G16RevA.03 25-Dec-2016

 -------------
 #p 6-31g* mp2
 -------------

 ------------------------------------------------------
 Input file generated by CHIRIPA (05-May-2021 14:51:09)
 ------------------------------------------------------
 Symbolic Z-matrix:
 Charge =  0 Multiplicity = 1

                         Standard orientation:
 ---------------------------------------------------------------------
 Center     Atomic      Atomic             Coordinates (Angstroms)
 Number     Number       Type             X           Y           Z
 ---------------------------------------------------------------------
      1          6           0        3.711857   -0.527727   -0.367282
      2          6           0        5.186416   -0.124946   -0.405079
      3          6           0        5.844213   -0.415578   -1.754386
      4          1           0        3.624894   -1.598720   -0.596098
      5          1           0        3.172569    0.006435   -1.161784
      6          1           0        5.722499   -0.658661    0.390144
      7          1           0        5.269896    0.945171   -0.175958
      8          1           0        5.335258    0.128911   -2.556320
      9          1           0        5.790433   -1.484035   -1.987001
     10          1           0        6.897981   -0.119929   -1.759273
     11          6           0        3.040400   -0.243390    0.975113
     12          6           0        1.565841   -0.646170    1.012910
     13          6           0        0.908044   -0.355538    2.362217
     14          1           0        3.579689   -0.777552    1.769615
     15          1           0        3.127364    0.827603    1.203929
     16          1           0        1.482362   -1.716288    0.783789
     17          1           0        1.029759   -0.112455    0.217687
     18          1           0        0.961825    0.712918    2.594832
     19          1           0        1.416999   -0.900027    3.164151
     20          1           0       -0.145724   -0.651188    2.367104
     21          6           0       -3.884717   -0.085114    0.017391
     22          6           0       -4.801706   -0.770308   -0.996328
     23          6           0       -5.813673   -1.708754   -0.338275
     24          1           0       -3.352836   -0.851434    0.597738
     25          1           0       -4.498100    0.479402    0.733265
     26          1           0       -4.186701   -1.332239   -1.710904
     27          1           0       -5.331322   -0.002267   -1.574459
     28          1           0       -6.451578   -1.158325    0.360801
     29          1           0       -5.300453   -2.495854    0.223581
     30          1           0       -6.458973   -2.187909   -1.081146
     31          6           0       -2.867541    0.856231   -0.625221
     32          6           0       -1.950552    1.541425    0.388497
     33          6           0       -0.938584    2.479871   -0.269557
     34          1           0       -2.254157    0.291715   -1.341096
     35          1           0       -3.399422    1.622550   -1.205568
     36          1           0       -1.420935    0.773383    0.966628
     37          1           0       -2.565556    2.103356    1.103073
     38          1           0       -1.451804    3.266970   -0.831412
     39          1           0       -0.300679    1.929442   -0.968632
     40          1           0       -0.293284    2.959026    0.473315
 ---------------------------------------------------------------------

 SCF Done:  E(RHF) =  -470.732674609     A.U. after   11 cycles
 E2 =    -0.1583815918D+01 EUMP2 =    -0.47231649052688D+03

 The electronic state is 1-A.
 Alpha  occ. eigenvalues --  -11.21626 -11.21611 -11.21596 -11.21510 -11.21425
 Alpha  occ. eigenvalues --  -11.21393 -11.21365 -11.21330 -11.21110 -11.21097
 Alpha  occ. eigenvalues --  -11.21078 -11.21067  -1.08470  -1.08399  -1.03613
 Alpha  occ. eigenvalues --   -1.03466  -0.96042  -0.95948  -0.87049  -0.86973
 Alpha  occ. eigenvalues --   -0.79651  -0.79551  -0.78266  -0.78230  -0.65242
 Alpha  occ. eigenvalues --   -0.64932  -0.61279  -0.60667  -0.59442  -0.59252
 Alpha  occ. eigenvalues --   -0.57657  -0.57546  -0.55400  -0.55135  -0.52749
 Alpha  occ. eigenvalues --   -0.52655  -0.52465  -0.52373  -0.50038  -0.49838
 Alpha  occ. eigenvalues --   -0.47967  -0.47868  -0.46681  -0.46537  -0.45823
 Alpha  occ. eigenvalues --   -0.45776  -0.45681  -0.45669  -0.43804  -0.43759
 Alpha virt. eigenvalues --    0.20254   0.23062   0.23689   0.24642   0.26002
 Alpha virt. eigenvalues --    0.26200   0.26675   0.27770   0.28101   0.29326
 Alpha virt. eigenvalues --    0.30468   0.31255   0.31763   0.32357   0.32458

 Mulliken charges:
               1
     1  C   -0.298334
     2  C   -0.299700
     3  C   -0.475746
     4  H    0.149558
     5  H    0.149326
     6  H    0.151950
     7  H    0.152151
     8  H    0.155267
     9  H    0.155122
    10  H    0.160326
    11  C   -0.297900
    12  C   -0.305659
    13  C   -0.478585
    14  H    0.149611
    15  H    0.150053
    16  H    0.151633
    17  H    0.157654
    18  H    0.156427
    19  H    0.156466
    20  H    0.160387
    21  C   -0.298257
    22  C   -0.299637
    23  C   -0.475716
    24  H    0.148937
    25  H    0.149623
    26  H    0.151997
    27  H    0.151999
    28  H    0.155180
    29  H    0.155142
    30  H    0.160244
    31  C   -0.297837
    32  C   -0.309699
    33  C   -0.476586
    34  H    0.149123
    35  H    0.149386
    36  H    0.164453
    37  H    0.151666
    38  H    0.155461
    39  H    0.154729
    40  H    0.159783
 Sum of Mulliken charges =  -0.00000

 Dipole moment (field-independent basis, Debye):
    X=              0.0176    Y=             -0.0023    Z=              0.0190  Tot=              0.0260
 Quadrupole moment (field-independent basis, Debye-Ang):
   XX=            -85.3095   YY=            -83.8877   ZZ=            -85.6214
   XY=             -1.2116   XZ=              0.8447   YZ=             -0.1287

 Normal termination of Gaussian 16 at Wed May  5 16:37:56 2021.
