 Gaussian 16, Revision A.03,
 Gaussian 16:  EM64L-G16RevA.03 25-Dec-2016

 -------------
 #p 6-31g* mp2
 -------------

 ------------------------------------------------------
 Input file generated by CHIRIPA (05-May-2021 14:53:16)
 ------------------------------------------------------
 Symbolic Z-matrix:
 Charge =  0 Multiplicity = 1

                         Standard orientation:
 ---------------------------------------------------------------------
 Center     Atomic      Atomic             Coordinates (Angstroms)
 Number     Number       Type             X           Y           Z
 ---------------------------------------------------------------------
      1          6           0        4.056923   -0.482387   -0.133615
      2          6           0        5.510669   -0.811598   -0.474534
      3          6           0        5.855606   -2.281826   -0.235277
      4          1           0        3.866352   -0.738844    0.917508
      5          1           0        3.393335   -1.118348   -0.735778
      6          1           0        6.171300   -0.174234    0.127089
      7          1           0        5.697853   -0.554150   -1.524914
      8          1           0        5.220646   -2.930957   -0.846877
      9          1           0        5.696782   -2.548883    0.814512
     10          1           0        6.899542   -2.495118   -0.485407
     11          6           0        3.696864    0.983678   -0.367580
     12          6           0        2.243117    1.312889   -0.026661
     13          6           0        1.898180    2.783116   -0.265918
     14          1           0        4.360451    1.619639    0.234583
     15          1           0        3.887434    1.240134   -1.418702
     16          1           0        2.055933    1.055440    1.023719
     17          1           0        1.582486    0.675525   -0.628284
     18          1           0        2.057004    3.050174   -1.315707
     19          1           0        2.533141    3.432248    0.345682
     20          1           0        0.854245    2.996408   -0.015788
     21          6           0       -5.090719   -0.782626   -1.134695
     22          6           0       -4.605233    0.529171   -1.138184
     23          6           0       -3.463624    0.865700   -0.404681
     24          6           0       -2.829487   -0.139086    0.324404
     25          6           0       -3.288781   -1.455059    0.347933
     26          6           0       -4.432105   -1.768816   -0.392955
     27          1           0       -5.978215   -1.035204   -1.707366
     28          1           0       -5.114681    1.297115   -1.713311
     29          1           0       -3.066240    1.873310   -0.389689
     30          1           0       -2.759444   -2.198928    0.930924
     31          1           0       -4.806883   -2.788406   -0.388390
     32          7           0       -1.620008    0.205128    1.104841
     33          8           0       -1.079479   -0.698372    1.738997
     34          8           0       -1.235451    1.371903    1.067613
 ---------------------------------------------------------------------

 SCF Done:  E(RHF) =  -669.536252743     A.U. after   15 cycles
 E2 =    -0.2091557718D+01 EUMP2 =    -0.67162781046056D+03

 The electronic state is 1-A.
 Alpha  occ. eigenvalues --  -20.60969 -20.60960 -15.85991 -11.31307 -11.27869
 Alpha  occ. eigenvalues --  -11.27864 -11.27605 -11.26874 -11.26864 -11.20883
 Alpha  occ. eigenvalues --  -11.20474 -11.20451 -11.20286 -11.20104 -11.19597
 Alpha  occ. eigenvalues --   -1.60015  -1.39574  -1.19473  -1.08879  -1.07403
 Alpha  occ. eigenvalues --   -1.04869  -1.02456  -0.95725  -0.94933  -0.86270
 Alpha  occ. eigenvalues --   -0.85971  -0.82557  -0.78555  -0.77610  -0.77154
 Alpha  occ. eigenvalues --   -0.72220  -0.71324  -0.70582  -0.65131  -0.64871
 Alpha  occ. eigenvalues --   -0.64050  -0.62216  -0.59874  -0.58325  -0.56488
 Alpha  occ. eigenvalues --   -0.55371  -0.54263  -0.53199  -0.52960  -0.51617
 Alpha  occ. eigenvalues --   -0.51363  -0.48970  -0.48958  -0.48925  -0.46851
 Alpha  occ. eigenvalues --   -0.45612  -0.44968  -0.44704  -0.44602  -0.42710
 Alpha  occ. eigenvalues --   -0.37451  -0.36469
 Alpha virt. eigenvalues --    0.04894   0.11186   0.16375   0.21290   0.23803
 Alpha virt. eigenvalues --    0.25357   0.27225   0.27617   0.28013   0.28533
 Alpha virt. eigenvalues --    0.29121   0.30829   0.32160   0.32348   0.32684

 Mulliken charges:
               1
     1  C   -0.297193
     2  C   -0.298762
     3  C   -0.474996
     4  H    0.152933
     5  H    0.147178
     6  H    0.150856
     7  H    0.149420
     8  H    0.153510
     9  H    0.155548
    10  H    0.157532
    11  C   -0.298699
    12  C   -0.293895
    13  C   -0.481833
    14  H    0.146881
    15  H    0.144124
    16  H    0.166637
    17  H    0.144563
    18  H    0.144243
    19  H    0.149605
    20  H    0.177443
    21  C   -0.170582
    22  C   -0.218552
    23  C   -0.170555
    24  C    0.157954
    25  C   -0.170708
    26  C   -0.218590
    27  H    0.226050
    28  H    0.223919
    29  H    0.275590
    30  H    0.275950
    31  H    0.223877
    32  N    0.491659
    33  O   -0.458746
    34  O   -0.462361
 Sum of Mulliken charges =  -0.00000

 Dipole moment (field-independent basis, Debye):
    X=             -4.6063    Y=             -1.2429    Z=             -2.5716  Tot=              5.4199
 Quadrupole moment (field-independent basis, Debye-Ang):
   XX=            -72.4884   YY=            -91.3209   ZZ=            -95.9906
   XY=              4.1027   XZ=              7.5189   YZ=             -1.1619

 Normal termination of Gaussian 16 at Wed May  5 21:59:09 2021.
