 Gaussian 16, Revision A.03,
 Gaussian 16:  EM64L-G16RevA.03 25-Dec-2016

 -------------
 #p 6-31g* mp2
 -------------

 ------------------------------------------------------
 Input file generated by CHIRIPA (05-May-2021 14:53:13)
 ------------------------------------------------------
 Symbolic Z-matrix:
 Charge =  0 Multiplicity = 1

                         Standard orientation:
 ---------------------------------------------------------------------
 Center     Atomic      Atomic             Coordinates (Angstroms)
 Number     Number       Type             X           Y           Z
 ---------------------------------------------------------------------
      1          6           0       -4.543866   -0.103746   -0.161253
      2          6           0       -4.686961   -1.614531   -0.348438
      3          6           0       -5.894149   -1.992053   -1.207488
      4          1           0       -5.460449    0.290823    0.298241
      5          1           0       -4.457552    0.374268   -1.146874
      6          1           0       -4.771589   -2.089690    0.637299
      7          1           0       -3.769853   -2.005577   -0.807364
      8          1           0       -5.813186   -1.544793   -2.203482
      9          1           0       -6.820613   -1.629383   -0.750611
     10          1           0       -5.977425   -3.076631   -1.328379
     11          6           0       -3.341583    0.289388    0.695304
     12          6           0       -3.198488    1.800173    0.882489
     13          6           0       -1.991299    2.177695    1.741539
     14          1           0       -3.427896   -0.188625    1.680924
     15          1           0       -2.424999   -0.105180    0.235810
     16          1           0       -4.115595    2.191220    1.341415
     17          1           0       -3.113860    2.275332   -0.103248
     18          1           0       -1.064836    1.815026    1.284661
     19          1           0       -2.072262    1.730435    2.737533
     20          1           0       -1.908023    3.262274    1.862430
     21          6           0        4.598265   -1.682953    1.003022
     22          6           0        5.106986   -0.877010   -0.020785
     23          6           0        4.275093    0.018866   -0.698949
     24          6           0        2.933498    0.083174   -0.325750
     25          6           0        2.396911   -0.706540    0.689984
     26          6           0        3.247233   -1.595299    1.354520
     27          1           0        5.251657   -2.376126    1.524543
     28          1           0        6.155802   -0.942953   -0.295890
     29          1           0        4.642690    0.654506   -1.495349
     30          1           0        1.347042   -0.618366    0.941815
     31          1           0        2.849404   -2.219977    2.149223
     32          7           0        2.043055    1.027832   -1.036477
     33          8           0        0.864787    1.065544   -0.688771
     34          8           0        2.540254    1.712656   -1.927794
 ---------------------------------------------------------------------

 SCF Done:  E(RHF) =  -669.536368455     A.U. after   15 cycles
 E2 =    -0.2091043143D+01 EUMP2 =    -0.67162741159776D+03

 The electronic state is 1-A.
 Alpha  occ. eigenvalues --  -20.60979 -20.60961 -15.86009 -11.31298 -11.27860
 Alpha  occ. eigenvalues --  -11.27856 -11.27595 -11.26863 -11.26853 -11.21166
 Alpha  occ. eigenvalues --  -11.20789 -11.20716 -11.20701 -11.20631 -11.20030
 Alpha  occ. eigenvalues --   -1.60032  -1.39590  -1.19466  -1.08876  -1.07763
 Alpha  occ. eigenvalues --   -1.04859  -1.02842  -0.95724  -0.95295  -0.86320
 Alpha  occ. eigenvalues --   -0.86261  -0.82560  -0.78939  -0.77646  -0.77541
 Alpha  occ. eigenvalues --   -0.72239  -0.71343  -0.70576  -0.65127  -0.64862
 Alpha  occ. eigenvalues --   -0.64375  -0.62207  -0.60214  -0.58697  -0.56913
 Alpha  occ. eigenvalues --   -0.55365  -0.54559  -0.53192  -0.52951  -0.52005
 Alpha  occ. eigenvalues --   -0.51734  -0.49252  -0.48988  -0.48960  -0.47251
 Alpha  occ. eigenvalues --   -0.45965  -0.45128  -0.45040  -0.44924  -0.43112
 Alpha  occ. eigenvalues --   -0.37444  -0.36459
 Alpha virt. eigenvalues --    0.04890   0.11195   0.16377   0.21029   0.23408
 Alpha virt. eigenvalues --    0.24608   0.26404   0.27442   0.27793   0.28479
 Alpha virt. eigenvalues --    0.29037   0.30643   0.31653   0.32336   0.32577

 Mulliken charges:
               1
     1  C   -0.298011
     2  C   -0.299201
     3  C   -0.475355
     4  H    0.147613
     5  H    0.152229
     6  H    0.148967
     7  H    0.151690
     8  H    0.156074
     9  H    0.154359
    10  H    0.158009
    11  C   -0.300419
    12  C   -0.296819
    13  C   -0.486396
    14  H    0.143174
    15  H    0.156173
    16  H    0.146799
    17  H    0.157873
    18  H    0.176612
    19  H    0.145182
    20  H    0.158072
    21  C   -0.170512
    22  C   -0.218585
    23  C   -0.170829
    24  C    0.157928
    25  C   -0.170874
    26  C   -0.218670
    27  H    0.226061
    28  H    0.223833
    29  H    0.275791
    30  H    0.276457
    31  H    0.224187
    32  N    0.493026
    33  O   -0.465928
    34  O   -0.458513
 Sum of Mulliken charges =  -0.00000

 Dipole moment (field-independent basis, Debye):
    X=              3.4017    Y=             -3.2912    Z=              2.3622  Tot=              5.2900
 Quadrupole moment (field-independent basis, Debye-Ang):
   XX=            -74.5929   YY=            -95.8916   ZZ=            -95.3306
   XY=             -8.8763   XZ=              3.3644   YZ=             -0.3805

 Normal termination of Gaussian 16 at Thu May  6 05:46:13 2021.
