 Gaussian 16, Revision A.03,
 Gaussian 16:  EM64L-G16RevA.03 25-Dec-2016

 -------------
 #p 6-31g* mp2
 -------------

 ------------------------------------------------------
 Input file generated by CHIRIPA (05-May-2021 14:51:11)
 ------------------------------------------------------
 Symbolic Z-matrix:
 Charge =  0 Multiplicity = 1

                         Standard orientation:
 ---------------------------------------------------------------------
 Center     Atomic      Atomic             Coordinates (Angstroms)
 Number     Number       Type             X           Y           Z
 ---------------------------------------------------------------------
      1          6           0        2.843704   -0.121128   -0.042277
      2          6           0        2.571568    0.806811   -1.226699
      3          6           0        3.852587    1.368941   -1.843783
      4          1           0        3.410685    0.427360    0.722339
      5          1           0        3.485902   -0.948788   -0.373874
      6          1           0        1.928938    1.631725   -0.893292
      7          1           0        2.005003    0.256106   -1.988502
      8          1           0        4.494793    0.558486   -2.203416
      9          1           0        4.418296    1.941921   -1.101983
     10          1           0        3.634824    2.029617   -2.688737
     11          6           0        1.572849   -0.691047    0.585296
     12          6           0        1.844984   -1.618987    1.769718
     13          6           0        0.563965   -2.181117    2.386802
     14          1           0        0.930650    0.136612    0.916892
     15          1           0        1.005868   -1.239536   -0.179320
     16          1           0        2.411549   -1.068282    2.531521
     17          1           0        2.487614   -2.443901    1.436310
     18          1           0       -0.001744   -2.754097    1.645001
     19          1           0       -0.078240   -1.370661    2.746434
     20          1           0        0.781728   -2.841792    3.231755
     21          6           0       -2.226865    0.054232   -0.949214
     22          6           0       -2.528122   -1.441413   -0.847853
     23          6           0       -2.561961   -2.131393   -2.211882
     24          1           0       -2.984840    0.532208   -1.584793
     25          1           0       -1.261610    0.193251   -1.455526
     26          1           0       -3.491868   -1.577617   -0.340648
     27          1           0       -1.769451   -1.915850   -0.212286
     28          1           0       -1.598795   -2.025044   -2.721396
     29          1           0       -3.330999   -1.684888   -2.850486
     30          1           0       -2.778917   -3.199852   -2.116047
     31          6           0       -2.189687    0.757943    0.406196
     32          6           0       -1.888431    2.253589    0.304834
     33          6           0       -1.854591    2.943569    1.668864
     34          1           0       -3.154942    0.618924    0.912508
     35          1           0       -1.431713    0.279968    1.041774
     36          1           0       -2.647101    2.728027   -0.330732
     37          1           0       -0.924684    2.389792   -0.202371
     38          1           0       -1.085553    2.497064    2.307469
     39          1           0       -2.817757    2.837220    2.178377
     40          1           0       -1.637635    4.012028    1.573029
 ---------------------------------------------------------------------

 SCF Done:  E(RHF) =  -470.732642698     A.U. after   11 cycles
 E2 =    -0.1585725007D+01 EUMP2 =    -0.47231836770567D+03

 The electronic state is 1-A.
 Alpha  occ. eigenvalues --  -11.21707 -11.21696 -11.21576 -11.21529 -11.21500
 Alpha  occ. eigenvalues --  -11.21440 -11.21302 -11.21236 -11.21163 -11.21140
 Alpha  occ. eigenvalues --  -11.21092 -11.21053  -1.08565  -1.08341  -1.03628
 Alpha  occ. eigenvalues --   -1.03500  -0.96075  -0.95943  -0.87091  -0.86964
 Alpha  occ. eigenvalues --   -0.79704  -0.79558  -0.78422  -0.78127  -0.65232
 Alpha  occ. eigenvalues --   -0.64967  -0.61091  -0.60843  -0.59445  -0.59312
 Alpha  occ. eigenvalues --   -0.57689  -0.57555  -0.55362  -0.55245  -0.52761
 Alpha  occ. eigenvalues --   -0.52651  -0.52504  -0.52370  -0.50024  -0.49917
 Alpha  occ. eigenvalues --   -0.48092  -0.47898  -0.46921  -0.46405  -0.46309
 Alpha  occ. eigenvalues --   -0.45806  -0.45569  -0.45138  -0.43878  -0.43731
 Alpha virt. eigenvalues --    0.19464   0.21707   0.22568   0.23789   0.25376
 Alpha virt. eigenvalues --    0.26612   0.27117   0.27812   0.28071   0.29480
 Alpha virt. eigenvalues --    0.30990   0.31409   0.31575   0.32006   0.32264

 Mulliken charges:
               1
     1  C   -0.297802
     2  C   -0.302573
     3  C   -0.475787
     4  H    0.150014
     5  H    0.149934
     6  H    0.153642
     7  H    0.152076
     8  H    0.155530
     9  H    0.155527
    10  H    0.160715
    11  C   -0.305897
    12  C   -0.299846
    13  C   -0.480796
    14  H    0.154734
    15  H    0.152321
    16  H    0.152194
    17  H    0.152309
    18  H    0.158044
    19  H    0.157221
    20  H    0.161089
    21  C   -0.299305
    22  C   -0.305774
    23  C   -0.475585
    24  H    0.149182
    25  H    0.151842
    26  H    0.151866
    27  H    0.157332
    28  H    0.154137
    29  H    0.155365
    30  H    0.159877
    31  C   -0.305443
    32  C   -0.302759
    33  C   -0.475612
    34  H    0.149111
    35  H    0.157937
    36  H    0.152246
    37  H    0.153558
    38  H    0.153500
    39  H    0.155635
    40  H    0.160242
 Sum of Mulliken charges =  -0.00000

 Dipole moment (field-independent basis, Debye):
    X=              0.0562    Y=             -0.0189    Z=              0.0213  Tot=              0.0630
 Quadrupole moment (field-independent basis, Debye-Ang):
   XX=            -84.4676   YY=            -84.7731   ZZ=            -85.5084
   XY=             -0.6803   XZ=              0.4275   YZ=              0.0956

 Normal termination of Gaussian 16 at Wed May  5 15:13:17 2021.
