 Gaussian 16, Revision A.03,
 Gaussian 16:  EM64L-G16RevA.03 25-Dec-2016

 -------------
 #p 6-31g* mp2
 -------------

 ------------------------------------------------------
 Input file generated by CHIRIPA (05-May-2021 14:53:18)
 ------------------------------------------------------
 Symbolic Z-matrix:
 Charge =  0 Multiplicity = 1

                         Standard orientation:
 ---------------------------------------------------------------------
 Center     Atomic      Atomic             Coordinates (Angstroms)
 Number     Number       Type             X           Y           Z
 ---------------------------------------------------------------------
      1          6           0       -4.095077   -0.120024    0.543200
      2          6           0       -5.283615   -0.924743    0.016141
      3          6           0       -5.716141   -2.035975    0.973157
      4          1           0       -3.251093   -0.799870    0.723326
      5          1           0       -4.358952    0.315478    1.516905
      6          1           0       -5.018063   -1.357458   -0.956925
      7          1           0       -6.124807   -0.242875   -0.162932
      8          1           0       -6.007418   -1.618070    1.942236
      9          1           0       -4.894386   -2.738985    1.143732
     10          1           0       -6.567131   -2.598563    0.576709
     11          6           0       -3.651008    0.994562   -0.402436
     12          6           0       -2.462471    1.799281    0.124623
     13          6           0       -2.029944    2.910512   -0.832393
     14          1           0       -3.387134    0.559059   -1.376142
     15          1           0       -4.494993    1.674407   -0.582562
     16          1           0       -1.621278    1.117412    0.303696
     17          1           0       -2.728022    2.231995    1.097688
     18          1           0       -2.851699    3.613523   -1.002969
     19          1           0       -1.738667    2.492607   -1.801472
     20          1           0       -1.178954    3.473100   -0.435945
     21          6           0        5.106243    0.310092    1.215062
     22          6           0        5.208052   -0.178423   -0.091656
     23          6           0        4.062046   -0.542574   -0.804826
     24          6           0        2.824687   -0.404621   -0.177769
     25          6           0        2.690587    0.078936    1.122800
     26          6           0        3.850050    0.436988    1.817057
     27          1           0        6.001714    0.590605    1.761724
     28          1           0        6.182313   -0.278038   -0.561695
     29          1           0        4.112041   -0.923556   -1.817630
     30          1           0        1.705541    0.167008    1.564780
     31          1           0        3.767963    0.816083    2.831746
     32          7           0        1.604339   -0.786903   -0.922760
     33          8           0        0.525920   -0.655885   -0.347881
     34          8           0        1.749355   -1.210315   -2.067457
 ---------------------------------------------------------------------

 SCF Done:  E(RHF) =  -669.536321998     A.U. after   15 cycles
 E2 =    -0.2090995339D+01 EUMP2 =    -0.67162731733653D+03

 The electronic state is 1-A.
 Alpha  occ. eigenvalues --  -20.60989 -20.60977 -15.86022 -11.31313 -11.27874
 Alpha  occ. eigenvalues --  -11.27871 -11.27608 -11.26877 -11.26867 -11.20789
 Alpha  occ. eigenvalues --  -11.20464 -11.20421 -11.20394 -11.20322 -11.20190
 Alpha  occ. eigenvalues --   -1.60046  -1.39603  -1.19480  -1.08889  -1.07455
 Alpha  occ. eigenvalues --   -1.04873  -1.02624  -0.95737  -0.95102  -0.86275
 Alpha  occ. eigenvalues --   -0.86124  -0.82574  -0.78695  -0.77635  -0.77258
 Alpha  occ. eigenvalues --   -0.72252  -0.71357  -0.70590  -0.65140  -0.64876
 Alpha  occ. eigenvalues --   -0.64054  -0.62221  -0.59996  -0.58484  -0.56720
 Alpha  occ. eigenvalues --   -0.55379  -0.54378  -0.53205  -0.52965  -0.51834
 Alpha  occ. eigenvalues --   -0.51538  -0.49063  -0.49007  -0.48968  -0.47027
 Alpha  occ. eigenvalues --   -0.45720  -0.45060  -0.44808  -0.44602  -0.42873
 Alpha  occ. eigenvalues --   -0.37457  -0.36473
 Alpha virt. eigenvalues --    0.04879   0.11182   0.16359   0.21218   0.23828
 Alpha virt. eigenvalues --    0.25099   0.26936   0.27467   0.27994   0.28769
 Alpha virt. eigenvalues --    0.28885   0.30743   0.31878   0.32391   0.32696

 Mulliken charges:
               1
     1  C   -0.299965
     2  C   -0.299275
     3  C   -0.475402
     4  H    0.158058
     5  H    0.144128
     6  H    0.154131
     7  H    0.148946
     8  H    0.152459
     9  H    0.156137
    10  H    0.157907
    11  C   -0.296614
    12  C   -0.309426
    13  C   -0.474610
    14  H    0.155353
    15  H    0.144003
    16  H    0.174286
    17  H    0.143041
    18  H    0.150628
    19  H    0.159594
    20  H    0.153300
    21  C   -0.170524
    22  C   -0.218563
    23  C   -0.170761
    24  C    0.157920
    25  C   -0.170566
    26  C   -0.218576
    27  H    0.226097
    28  H    0.223888
    29  H    0.275841
    30  H    0.275924
    31  H    0.224038
    32  N    0.492788
    33  O   -0.465342
    34  O   -0.458844
 Sum of Mulliken charges =  -0.00000

 Dipole moment (field-independent basis, Debye):
    X=              4.5940    Y=              1.1917    Z=              2.5506  Tot=              5.3880
 Quadrupole moment (field-independent basis, Debye-Ang):
   XX=            -69.9997   YY=            -97.3292   ZZ=            -92.9842
   XY=              0.9059   XZ=              4.5224   YZ=              0.7445

 Normal termination of Gaussian 16 at Thu May  6 17:20:46 2021.
