 Gaussian 16, Revision A.03,
 Gaussian 16:  EM64L-G16RevA.03 25-Dec-2016

 -------------
 #p 6-31g* mp2
 -------------

 ------------------------------------------------------
 Input file generated by CHIRIPA (05-May-2021 14:55:25)
 ------------------------------------------------------
 Symbolic Z-matrix:
 Charge =  0 Multiplicity = 1

                         Standard orientation:
 ---------------------------------------------------------------------
 Center     Atomic      Atomic             Coordinates (Angstroms)
 Number     Number       Type             X           Y           Z
 ---------------------------------------------------------------------
      1          6           0        0.792313    1.092500    2.029511
      2          6           0        1.762960    1.833784    1.347703
      3          6           0        2.571497    1.226731    0.382144
      4          6           0        2.381463   -0.129615    0.122334
      5          6           0        1.422985   -0.895000    0.784751
      6          6           0        0.625717   -0.267129    1.746359
      7          1           0        0.168599    1.572159    2.778046
      8          1           0        1.894565    2.889848    1.565540
      9          1           0        3.330530    1.776938   -0.160589
     10          1           0        1.315233   -1.946067    0.545865
     11          1           0       -0.127305   -0.845301    2.274298
     12          7           0        3.231459   -0.783294   -0.897769
     13          8           0        3.044250   -1.979647   -1.108313
     14          8           0        4.068802   -0.086917   -1.467465
     15          6           0       -2.412227    0.628426   -0.491482
     16          6           0       -3.173821    1.916400   -0.806257
     17          6           0       -2.246400    3.108673   -1.043257
     18          1           0       -1.784594    0.788640    0.395848
     19          1           0       -1.728371    0.402901   -1.321466
     20          1           0       -3.857041    2.138683    0.023452
     21          1           0       -3.799860    1.753043   -1.692827
     22          1           0       -1.573532    2.912140   -1.884223
     23          1           0       -1.631038    3.299971   -0.158193
     24          1           0       -2.811700    4.018845   -1.266601
     25          6           0       -3.325687   -0.572412   -0.252093
     26          6           0       -2.564094   -1.860385    0.062683
     27          6           0       -3.491515   -3.052658    0.299682
     28          1           0       -4.009544   -0.346886    0.577892
     29          1           0       -3.953320   -0.732626   -1.139422
     30          1           0       -1.938055   -1.697028    0.949253
     31          1           0       -1.880873   -2.082668   -0.767026
     32          1           0       -4.106876   -3.243957   -0.585381
     33          1           0       -4.164382   -2.856126    1.140649
     34          1           0       -2.926215   -3.962830    0.523027
 ---------------------------------------------------------------------

 SCF Done:  E(RHF) =  -669.534343633     A.U. after   15 cycles
 E2 =    -0.2094200416D+01 EUMP2 =    -0.67162854404955D+03

 The electronic state is 1-A.
 Alpha  occ. eigenvalues --  -20.60793 -20.60788 -15.85846 -11.31224 -11.27784
 Alpha  occ. eigenvalues --  -11.27767 -11.27537 -11.26821 -11.26788 -11.22186
 Alpha  occ. eigenvalues --  -11.21954 -11.21824 -11.21637 -11.21531 -11.21454
 Alpha  occ. eigenvalues --   -1.59868  -1.39421  -1.19398  -1.08888  -1.08768
 Alpha  occ. eigenvalues --   -1.04801  -1.03972  -0.96396  -0.95628  -0.87415
 Alpha  occ. eigenvalues --   -0.86209  -0.82465  -0.80055  -0.78677  -0.77485
 Alpha  occ. eigenvalues --   -0.72065  -0.71191  -0.70509  -0.65576  -0.65055
 Alpha  occ. eigenvalues --   -0.64766  -0.62179  -0.61359  -0.59762  -0.58016
 Alpha  occ. eigenvalues --   -0.55693  -0.55314  -0.53279  -0.53052  -0.52910
 Alpha  occ. eigenvalues --   -0.52767  -0.50344  -0.48829  -0.48818  -0.48358
 Alpha  occ. eigenvalues --   -0.47091  -0.46180  -0.46122  -0.44823  -0.44201
 Alpha  occ. eigenvalues --   -0.37316  -0.36321
 Alpha virt. eigenvalues --    0.04993   0.11129   0.16372   0.20146   0.22977
 Alpha virt. eigenvalues --    0.23541   0.25729   0.26388   0.27536   0.27995
 Alpha virt. eigenvalues --    0.29133   0.29716   0.31228   0.31526   0.32240

 Mulliken charges:
               1
     1  C   -0.172414
     2  C   -0.217639
     3  C   -0.170806
     4  C    0.158334
     5  C   -0.169800
     6  C   -0.216034
     7  H    0.225616
     8  H    0.223872
     9  H    0.275811
    10  H    0.276323
    11  H    0.225443
    12  N    0.487982
    13  O   -0.460302
    14  O   -0.460320
    15  C   -0.302229
    16  C   -0.299965
    17  C   -0.474485
    18  H    0.150697
    19  H    0.152813
    20  H    0.149460
    21  H    0.153770
    22  H    0.158319
    23  H    0.149226
    24  H    0.160731
    25  C   -0.298484
    26  C   -0.301768
    27  C   -0.475711
    28  H    0.147266
    29  H    0.152562
    30  H    0.140549
    31  H    0.157250
    32  H    0.158854
    33  H    0.154322
    34  H    0.160755
 Sum of Mulliken charges =  -0.00000

 Dipole moment (field-independent basis, Debye):
    X=             -2.9628    Y=              2.2789    Z=              3.5041  Tot=              5.1235
 Quadrupole moment (field-independent basis, Debye-Ang):
   XX=           -108.8894   YY=            -92.6625   ZZ=            -93.4236
   XY=              7.9208   XZ=              8.1352   YZ=             -0.4775

 Normal termination of Gaussian 16 at Wed May  5 20:49:38 2021.
