 Gaussian 16, Revision A.03,
 Gaussian 16:  EM64L-G16RevA.03 25-Dec-2016

 -------------
 #p 6-31g* mp2
 -------------

 ------------------------------------------------------
 Input file generated by CHIRIPA (05-May-2021 14:57:22)
 ------------------------------------------------------
 Symbolic Z-matrix:
 Charge =  0 Multiplicity = 1

                         Standard orientation:
 ---------------------------------------------------------------------
 Center     Atomic      Atomic             Coordinates (Angstroms)
 Number     Number       Type             X           Y           Z
 ---------------------------------------------------------------------
      1          6           0       -4.080381   -2.077813   -0.482522
      2          6           0       -4.338898   -1.492869    0.761476
      3          6           0       -3.783245   -0.253421    1.092481
      4          6           0       -2.970021    0.376076    0.151370
      5          6           0       -2.693719   -0.181021   -1.096264
      6          6           0       -3.260063   -1.421180   -1.405794
      7          1           0       -4.516178   -3.040923   -0.731314
      8          1           0       -4.975591   -2.000533    1.480465
      9          1           0       -3.966849    0.222098    2.048300
     10          1           0       -2.055056    0.349138   -1.792295
     11          1           0       -3.057562   -1.873078   -2.372658
     12          7           0       -2.376117    1.688600    0.490422
     13          8           0       -1.663023    2.222845   -0.356168
     14          8           0       -2.634955    2.158260    1.596343
     15          6           0        5.426188   -0.540473    0.716589
     16          6           0        4.368614   -1.268464    1.271644
     17          6           0        3.057927   -1.065775    0.829416
     18          6           0        2.839914   -0.122950   -0.173998
     19          6           0        3.872509    0.617980   -0.746763
     20          6           0        5.175203    0.398770   -0.289070
     21          1           0        6.441257   -0.704343    1.066129
     22          1           0        4.560568   -1.998542    2.052786
     23          1           0        2.220578   -1.615584    1.241694
     24          1           0        3.649925    1.338903   -1.524032
     25          1           0        5.994578    0.965581   -0.721960
     26          7           0        1.456579    0.100373   -0.650351
     27          8           0        1.290878    0.936792   -1.535555
     28          8           0        0.564216   -0.565234   -0.129494
 ---------------------------------------------------------------------

 SCF Done:  E(RHF) =  -868.338431308     A.U. after   16 cycles
 E2 =    -0.2601108192D+01 EUMP2 =    -0.87093953950030D+03

 The electronic state is 1-A.
 Alpha  occ. eigenvalues --  -20.60744 -20.60653 -20.59268 -20.59168 -15.85708
 Alpha  occ. eigenvalues --  -15.84262 -11.31057 -11.29582 -11.27637 -11.27606
 Alpha  occ. eigenvalues --  -11.27376 -11.26649 -11.26627 -11.26351 -11.26137
 Alpha  occ. eigenvalues --  -11.26110 -11.25373 -11.25235  -1.59737  -1.58292
 Alpha  occ. eigenvalues --   -1.39297  -1.37842  -1.19227  -1.17829  -1.08630
 Alpha  occ. eigenvalues --   -1.07258  -1.04629  -1.03258  -0.95471  -0.94084
 Alpha  occ. eigenvalues --   -0.86030  -0.84667  -0.82305  -0.80931  -0.77351
 Alpha  occ. eigenvalues --   -0.75937  -0.71951  -0.71059  -0.70500  -0.70343
 Alpha  occ. eigenvalues --   -0.69569  -0.69016  -0.64886  -0.64640  -0.63519
 Alpha  occ. eigenvalues --   -0.63320  -0.61978  -0.60612  -0.55143  -0.53858
 Alpha  occ. eigenvalues --   -0.52956  -0.52728  -0.51595  -0.51394  -0.48706
 Alpha  occ. eigenvalues --   -0.48687  -0.47293  -0.47207  -0.44702  -0.43238
 Alpha  occ. eigenvalues --   -0.37206  -0.36229  -0.35845  -0.34804
 Alpha virt. eigenvalues --    0.05185   0.06624   0.11426   0.12844   0.16672
 Alpha virt. eigenvalues --    0.18059   0.21543   0.22712   0.27450   0.28433
 Alpha virt. eigenvalues --    0.28606   0.29669   0.31091   0.32177   0.32674

 Mulliken charges:
               1
     1  C   -0.171135
     2  C   -0.221068
     3  C   -0.172300
     4  C    0.160292
     5  C   -0.149427
     6  C   -0.222272
     7  H    0.218801
     8  H    0.216165
     9  H    0.269984
    10  H    0.284675
    11  H    0.218415
    12  N    0.487853
    13  O   -0.451895
    14  O   -0.472045
    15  C   -0.170650
    16  C   -0.218531
    17  C   -0.170623
    18  C    0.159532
    19  C   -0.169843
    20  C   -0.218600
    21  H    0.225231
    22  H    0.222684
    23  H    0.274501
    24  H    0.277010
    25  H    0.223567
    26  N    0.490843
    27  O   -0.452302
    28  O   -0.468863
 Sum of Mulliken charges =  -0.00000

 Dipole moment (field-independent basis, Debye):
    X=              3.2582    Y=             -5.1938    Z=              0.2197  Tot=              6.1351
 Quadrupole moment (field-independent basis, Debye-Ang):
   XX=            -66.2078   YY=           -107.4103   ZZ=           -100.5241
   XY=             11.3758   XZ=              4.2316   YZ=             -4.3588

 Normal termination of Gaussian 16 at Thu May  6 22:42:07 2021.
