 Gaussian 16, Revision A.03,
 Gaussian 16:  EM64L-G16RevA.03 25-Dec-2016

 -------------
 #p 6-31g* mp2
 -------------

 ------------------------------------------------------
 Input file generated by CHIRIPA (05-May-2021 14:55:21)
 ------------------------------------------------------
 Symbolic Z-matrix:
 Charge =  0 Multiplicity = 1

                         Standard orientation:
 ---------------------------------------------------------------------
 Center     Atomic      Atomic             Coordinates (Angstroms)
 Number     Number       Type             X           Y           Z
 ---------------------------------------------------------------------
      1          6           0        0.695994   -2.860091    0.455139
      2          6           0        0.725701   -1.898811    1.470807
      3          6           0        1.361215   -0.670294    1.267299
      4          6           0        1.959526   -0.435363    0.030318
      5          6           0        1.946848   -1.372924   -1.001238
      6          6           0        1.305588   -2.594548   -0.775472
      7          1           0        0.200080   -3.811755    0.621875
      8          1           0        0.253119   -2.102294    2.427523
      9          1           0        1.399143    0.091708    2.036281
     10          1           0        2.426753   -1.141199   -1.944324
     11          1           0        1.284082   -3.339223   -1.566067
     12          7           0        2.635357    0.861564   -0.196908
     13          8           0        3.155030    1.044153   -1.295652
     14          8           0        2.632605    1.670948    0.728038
     15          6           0       -2.337086    1.574231   -0.260014
     16          6           0       -1.160679    2.303570    0.389692
     17          6           0       -1.117133    3.789875    0.033609
     18          1           0       -2.274652    1.689747   -1.350749
     19          1           0       -3.274783    2.054604    0.052012
     20          1           0       -0.225554    1.821103    0.077631
     21          1           0       -1.225815    2.186142    1.478996
     22          1           0       -2.034012    4.291243    0.360050
     23          1           0       -1.028068    3.924130   -1.049278
     24          1           0       -0.268444    4.291807    0.508635
     25          6           0       -2.394154    0.087497    0.086529
     26          6           0       -3.570560   -0.641842   -0.563178
     27          6           0       -3.614106   -2.128148   -0.207094
     28          1           0       -1.456457   -0.392877   -0.225498
     29          1           0       -2.456587   -0.028020    1.177264
     30          1           0       -3.505424   -0.524414   -1.652482
     31          1           0       -4.505685   -0.159375   -0.251116
     32          1           0       -3.703172   -2.262403    0.875792
     33          1           0       -2.697228   -2.629516   -0.533535
     34          1           0       -4.462796   -2.630080   -0.682121
 ---------------------------------------------------------------------

 SCF Done:  E(RHF) =  -669.535196801     A.U. after   15 cycles
 E2 =    -0.2095322521D+01 EUMP2 =    -0.67163051932198D+03

 The electronic state is 1-A.
 Alpha  occ. eigenvalues --  -20.60918 -20.60901 -15.85934 -11.31276 -11.27862
 Alpha  occ. eigenvalues --  -11.27808 -11.27581 -11.26876 -11.26814 -11.21785
 Alpha  occ. eigenvalues --  -11.21494 -11.21372 -11.21275 -11.21200 -11.20515
 Alpha  occ. eigenvalues --   -1.59975  -1.39528  -1.19462  -1.08858  -1.08379
 Alpha  occ. eigenvalues --   -1.04846  -1.03456  -0.95907  -0.95690  -0.86934
 Alpha  occ. eigenvalues --   -0.86244  -0.82518  -0.79557  -0.78196  -0.77558
 Alpha  occ. eigenvalues --   -0.72161  -0.71312  -0.70549  -0.65114  -0.65013
 Alpha  occ. eigenvalues --   -0.64841  -0.62189  -0.60866  -0.59305  -0.57497
 Alpha  occ. eigenvalues --   -0.55349  -0.55221  -0.53283  -0.52933  -0.52558
 Alpha  occ. eigenvalues --   -0.52334  -0.49881  -0.48932  -0.48920  -0.47866
 Alpha  occ. eigenvalues --   -0.46624  -0.45724  -0.45650  -0.44747  -0.43684
 Alpha  occ. eigenvalues --   -0.37408  -0.36395
 Alpha virt. eigenvalues --    0.04921   0.11145   0.16329   0.21053   0.22955
 Alpha virt. eigenvalues --    0.24190   0.26092   0.26840   0.27597   0.27998
 Alpha virt. eigenvalues --    0.28617   0.30483   0.31322   0.31572   0.32135

 Mulliken charges:
               1
     1  C   -0.170715
     2  C   -0.215558
     3  C   -0.169495
     4  C    0.155051
     5  C   -0.172024
     6  C   -0.219684
     7  H    0.226996
     8  H    0.224173
     9  H    0.276414
    10  H    0.275922
    11  H    0.224091
    12  N    0.489694
    13  O   -0.459048
    14  O   -0.457881
    15  C   -0.298465
    16  C   -0.299262
    17  C   -0.476173
    18  H    0.150005
    19  H    0.148299
    20  H    0.153246
    21  H    0.146600
    22  H    0.151102
    23  H    0.155857
    24  H    0.169721
    25  C   -0.302207
    26  C   -0.298734
    27  C   -0.475637
    28  H    0.157203
    29  H    0.142959
    30  H    0.152570
    31  H    0.152623
    32  H    0.151762
    33  H    0.149871
    34  H    0.160723
 Sum of Mulliken charges =  -0.00000

 Dipole moment (field-independent basis, Debye):
    X=             -2.1915    Y=             -4.5058    Z=              0.8034  Tot=              5.0745
 Quadrupole moment (field-independent basis, Debye-Ang):
   XX=           -104.7004   YY=            -91.8501   ZZ=            -89.8446
   XY=             -8.6353   XZ=             -0.1212   YZ=              1.3342

 Normal termination of Gaussian 16 at Thu May  6 19:09:27 2021.
