 Gaussian 16, Revision A.03,
 Gaussian 16:  EM64L-G16RevA.03 25-Dec-2016

 -------------
 #p 6-31g* mp2
 -------------

 ------------------------------------------------------
 Input file generated by CHIRIPA (05-May-2021 14:57:21)
 ------------------------------------------------------
 Symbolic Z-matrix:
 Charge =  0 Multiplicity = 1

                         Standard orientation:
 ---------------------------------------------------------------------
 Center     Atomic      Atomic             Coordinates (Angstroms)
 Number     Number       Type             X           Y           Z
 ---------------------------------------------------------------------
      1          6           0       -1.428141   -1.729724    0.547276
      2          6           0       -1.993276   -1.700608   -0.731902
      3          6           0       -3.134900   -0.934822   -0.986489
      4          6           0       -3.687835   -0.207055    0.066082
      5          6           0       -3.148081   -0.215583    1.351338
      6          6           0       -2.006327   -0.988426    1.582987
      7          1           0       -0.541249   -2.327346    0.736136
      8          1           0       -1.546388   -2.275311   -1.538160
      9          1           0       -3.592972   -0.894210   -1.967274
     10          1           0       -3.616100    0.367840    2.134915
     11          1           0       -1.569591   -1.009144    2.577410
     12          7           0       -4.896490    0.607384   -0.191296
     13          8           0       -5.364598    1.239657    0.753025
     14          8           0       -5.352840    0.598046   -1.332478
     15          6           0        5.702808   -0.854933    0.071570
     16          6           0        4.535730   -1.578715   -0.194119
     17          6           0        3.303412   -0.926370   -0.296030
     18          6           0        3.274576    0.456930   -0.125910
     19          6           0        4.419927    1.205870    0.139704
     20          6           0        5.641289    0.532603    0.237341
     21          1           0        6.655847   -1.369816    0.149078
     22          1           0        4.580504   -2.656373   -0.323317
     23          1           0        2.384513   -1.462152   -0.500922
     24          1           0        4.343664    2.279292    0.263662
     25          1           0        6.546045    1.097275    0.443762
     26          7           0        1.975776    1.158612   -0.231537
     27          8           0        1.977075    2.378011   -0.077579
     28          8           0        0.981068    0.475907   -0.466285
 ---------------------------------------------------------------------

 SCF Done:  E(RHF) =  -868.337016282     A.U. after   16 cycles
 E2 =    -0.2600322063D+01 EUMP2 =    -0.87093733834484D+03

 The electronic state is 1-A.
 Alpha  occ. eigenvalues --  -20.61344 -20.61324 -20.59900 -20.59895 -15.86377
 Alpha  occ. eigenvalues --  -15.84952 -11.31811 -11.30160 -11.28451 -11.28328
 Alpha  occ. eigenvalues --  -11.28086 -11.27421 -11.27348 -11.26756 -11.26752
 Alpha  occ. eigenvalues --  -11.26562 -11.25767 -11.25756  -1.60408  -1.58977
 Alpha  occ. eigenvalues --   -1.39964  -1.38536  -1.19976  -1.18331  -1.09351
 Alpha  occ. eigenvalues --   -1.07772  -1.05391  -1.03743  -0.96183  -0.94639
 Alpha  occ. eigenvalues --   -0.86782  -0.85173  -0.83016  -0.81493  -0.78070
 Alpha  occ. eigenvalues --   -0.76543  -0.72602  -0.71737  -0.71185  -0.71077
 Alpha  occ. eigenvalues --   -0.70289  -0.69539  -0.65626  -0.65386  -0.64030
 Alpha  occ. eigenvalues --   -0.63809  -0.62748  -0.61133  -0.55863  -0.54344
 Alpha  occ. eigenvalues --   -0.53709  -0.53479  -0.52006  -0.51894  -0.49366
 Alpha  occ. eigenvalues --   -0.49340  -0.47939  -0.47928  -0.45357  -0.43978
 Alpha  occ. eigenvalues --   -0.37942  -0.36997  -0.36222  -0.35299
 Alpha virt. eigenvalues --    0.04445   0.06040   0.10652   0.12341   0.15948
 Alpha virt. eigenvalues --    0.17547   0.20261   0.22034   0.26023   0.27233
 Alpha virt. eigenvalues --    0.28154   0.28984   0.30766   0.31312   0.33119

 Mulliken charges:
               1
     1  C   -0.152533
     2  C   -0.210793
     3  C   -0.168940
     4  C    0.159427
     5  C   -0.168872
     6  C   -0.215442
     7  H    0.213987
     8  H    0.216589
     9  H    0.272575
    10  H    0.272861
    11  H    0.218269
    12  N    0.488391
    13  O   -0.462747
    14  O   -0.462943
    15  C   -0.170713
    16  C   -0.217943
    17  C   -0.172186
    18  C    0.159066
    19  C   -0.170594
    20  C   -0.218015
    21  H    0.227409
    22  H    0.223044
    23  H    0.267359
    24  H    0.277733
    25  H    0.225773
    26  N    0.489937
    27  O   -0.456498
    28  O   -0.464202
 Sum of Mulliken charges =  -0.00000

 Dipole moment (field-independent basis, Debye):
    X=              9.1292    Y=             -5.1813    Z=              1.2679  Tot=             10.5733
 Quadrupole moment (field-independent basis, Debye-Ang):
   XX=           -106.4419   YY=           -102.6892   ZZ=           -101.1675
   XY=              6.0184   XZ=             -1.8575   YZ=              2.6777

 Normal termination of Gaussian 16 at Thu May  6 11:08:38 2021.
