 Gaussian 16, Revision A.03,
 Gaussian 16:  EM64L-G16RevA.03 25-Dec-2016

 -------------
 #p 6-31g* mp2
 -------------

 ------------------------------------------------------
 Input file generated by CHIRIPA (05-May-2021 14:51:13)
 ------------------------------------------------------
 Symbolic Z-matrix:
 Charge =  0 Multiplicity = 1

                         Standard orientation:
 ---------------------------------------------------------------------
 Center     Atomic      Atomic             Coordinates (Angstroms)
 Number     Number       Type             X           Y           Z
 ---------------------------------------------------------------------
      1          6           0        3.266029   -0.109833   -0.184081
      2          6           0        4.708306   -0.309643   -0.650878
      3          6           0        5.095795   -1.784784   -0.758601
      4          1           0        3.132034   -0.597766    0.791066
      5          1           0        2.587869   -0.617895   -0.883628
      6          1           0        5.383458    0.199813    0.048579
      7          1           0        4.838934    0.178987   -1.624938
      8          1           0        4.446047   -2.302699   -1.471477
      9          1           0        4.993665   -2.281754    0.211549
     10          1           0        6.130743   -1.904561   -1.093858
     11          6           0        2.863784    1.359605   -0.071486
     12          6           0        1.421507    1.559415    0.395311
     13          6           0        1.034018    3.034556    0.503033
     14          1           0        3.541945    1.867667    0.628061
     15          1           0        2.997779    1.847538   -1.046633
     16          1           0        1.290879    1.070786    1.369371
     17          1           0        0.746355    1.049959   -0.304146
     18          1           0        1.136148    3.531527   -0.467117
     19          1           0        1.683766    3.552471    1.215909
     20          1           0       -0.000929    3.154333    0.838291
     21          6           0       -2.385539   -0.958273    0.024123
     22          6           0       -1.576859   -1.100672    1.313985
     23          6           0       -0.220187   -1.769426    1.090359
     24          1           0       -2.533815   -1.952205   -0.419791
     25          1           0       -1.803540   -0.374951   -0.702793
     26          1           0       -2.160783   -1.682375    2.038739
     27          1           0       -1.430654   -0.106307    1.754980
     28          1           0        0.384664   -1.187977    0.387029
     29          1           0       -0.349614   -2.772999    0.672401
     30          1           0        0.341187   -1.861140    2.025404
     31          6           0       -3.744274   -0.291499    0.231444
     32          6           0       -4.552955   -0.149100   -1.058417
     33          6           0       -5.909626    0.519653   -0.834792
     34          1           0       -4.326273   -0.874821    0.958360
     35          1           0       -3.595998    0.702433    0.675358
     36          1           0       -4.699159   -1.143465   -1.499412
     37          1           0       -3.969030    0.432603   -1.783172
     38          1           0       -5.780199    1.523227   -0.416834
     39          1           0       -6.514477   -0.061795   -0.131462
     40          1           0       -6.471000    0.611368   -1.769837
 ---------------------------------------------------------------------

 SCF Done:  E(RHF) =  -470.731964255     A.U. after   11 cycles
 E2 =    -0.1584595772D+01 EUMP2 =    -0.47231656002703D+03

 The electronic state is 1-A.
 Alpha  occ. eigenvalues --  -11.21645 -11.21606 -11.21589 -11.21512 -11.21435
 Alpha  occ. eigenvalues --  -11.21378 -11.21366 -11.21318 -11.21128 -11.21061
 Alpha  occ. eigenvalues --  -11.21061 -11.20841  -1.08493  -1.08370  -1.03591
 Alpha  occ. eigenvalues --   -1.03442  -0.96013  -0.95917  -0.87031  -0.86935
 Alpha  occ. eigenvalues --   -0.79662  -0.79544  -0.78346  -0.78149  -0.65127
 Alpha  occ. eigenvalues --   -0.65004  -0.60978  -0.60904  -0.59351  -0.59287
 Alpha  occ. eigenvalues --   -0.57662  -0.57501  -0.55305  -0.55225  -0.52735
 Alpha  occ. eigenvalues --   -0.52609  -0.52432  -0.52323  -0.49954  -0.49899
 Alpha  occ. eigenvalues --   -0.48017  -0.47820  -0.46791  -0.46583  -0.45944
 Alpha  occ. eigenvalues --   -0.45770  -0.45670  -0.45241  -0.43812  -0.43727
 Alpha virt. eigenvalues --    0.20789   0.23031   0.23829   0.24584   0.24965
 Alpha virt. eigenvalues --    0.26257   0.26485   0.27765   0.28549   0.29764
 Alpha virt. eigenvalues --    0.30654   0.30976   0.31710   0.31822   0.32292

 Mulliken charges:
               1
     1  C   -0.301380
     2  C   -0.299420
     3  C   -0.475642
     4  H    0.152380
     5  H    0.150142
     6  H    0.151875
     7  H    0.151761
     8  H    0.155397
     9  H    0.155474
    10  H    0.160151
    11  C   -0.297725
    12  C   -0.305618
    13  C   -0.475328
    14  H    0.149657
    15  H    0.149421
    16  H    0.156595
    17  H    0.153359
    18  H    0.155179
    19  H    0.155495
    20  H    0.159708
    21  C   -0.299961
    22  C   -0.300565
    23  C   -0.482524
    24  H    0.149632
    25  H    0.149747
    26  H    0.151443
    27  H    0.152722
    28  H    0.167356
    29  H    0.153352
    30  H    0.157573
    31  C   -0.298071
    32  C   -0.299624
    33  C   -0.475680
    34  H    0.149602
    35  H    0.149389
    36  H    0.151896
    37  H    0.151711
    38  H    0.155158
    39  H    0.155188
    40  H    0.160174
 Sum of Mulliken charges =  -0.00000

 Dipole moment (field-independent basis, Debye):
    X=              0.0564    Y=              0.0207    Z=             -0.0034  Tot=              0.0602
 Quadrupole moment (field-independent basis, Debye-Ang):
   XX=            -85.7206   YY=            -85.3228   ZZ=            -83.8557
   XY=              1.2758   XZ=              0.3507   YZ=             -0.2033

 Normal termination of Gaussian 16 at Wed May  5 16:53:09 2021.
