 Gaussian 16, Revision A.03,
 Gaussian 16:  EM64L-G16RevA.03 25-Dec-2016

 -------------
 #p 6-31g* mp2
 -------------

 ------------------------------------------------------
 Input file generated by CHIRIPA (05-May-2021 14:51:12)
 ------------------------------------------------------
 Symbolic Z-matrix:
 Charge =  0 Multiplicity = 1

                         Standard orientation:
 ---------------------------------------------------------------------
 Center     Atomic      Atomic             Coordinates (Angstroms)
 Number     Number       Type             X           Y           Z
 ---------------------------------------------------------------------
      1          6           0        2.036881    0.863508   -0.008779
      2          6           0        2.827523    2.170729    0.054811
      3          6           0        2.096803    3.266367    0.831612
      4          1           0        1.060162    1.055395   -0.473691
      5          1           0        1.833534    0.515999    1.013612
      6          1           0        3.030514    2.514946   -0.967405
      7          1           0        3.802550    1.975670    0.519452
      8          1           0        1.907683    2.947489    1.861735
      9          1           0        1.131261    3.489829    0.366430
     10          1           0        2.679811    4.192040    0.864628
     11          6           0        2.754372   -0.241446   -0.782090
     12          6           0        1.963730   -1.548667   -0.845680
     13          6           0        2.694450   -2.644305   -1.622481
     14          1           0        2.957719    0.106063   -1.804480
     15          1           0        3.731091   -0.433334   -0.317178
     16          1           0        0.988703   -1.353608   -1.310320
     17          1           0        1.760739   -1.892884    0.176536
     18          1           0        3.659992   -2.867767   -1.157298
     19          1           0        2.883570   -2.325428   -2.652603
     20          1           0        2.111442   -3.569979   -1.655497
     21          6           0       -2.901308   -0.340990   -0.176249
     22          6           0       -3.399709    1.035496   -0.617688
     23          6           0       -4.410753    0.959064   -1.762127
     24          1           0       -2.446437   -0.852192   -1.035731
     25          1           0       -3.760374   -0.952641    0.132431
     26          1           0       -2.539819    1.644838   -0.924133
     27          1           0       -3.853274    1.543557    0.242991
     28          1           0       -5.286567    0.373691   -1.463983
     29          1           0       -3.965649    0.475547   -2.637738
     30          1           0       -4.753831    1.954211   -2.061862
     31          6           0       -1.889945   -0.281072    0.967117
     32          6           0       -1.391544   -1.657557    1.408556
     33          6           0       -0.380500   -1.581126    2.552996
     34          1           0       -1.030879    0.330579    0.658438
     35          1           0       -2.344816    0.230129    1.826599
     36          1           0       -0.937979   -2.165619    0.547878
     37          1           0       -2.251434   -2.266900    1.715002
     38          1           0       -0.825604   -1.097609    3.428606
     39          1           0        0.495314   -0.995753    2.254851
     40          1           0       -0.037422   -2.576272    2.852730
 ---------------------------------------------------------------------

 SCF Done:  E(RHF) =  -470.732065524     A.U. after   11 cycles
 E2 =    -0.1585597643D+01 EUMP2 =    -0.47231766316700D+03

 The electronic state is 1-A.
 Alpha  occ. eigenvalues --  -11.21673 -11.21659 -11.21591 -11.21500 -11.21479
 Alpha  occ. eigenvalues --  -11.21439 -11.21340 -11.21222 -11.21128 -11.21117
 Alpha  occ. eigenvalues --  -11.21066 -11.21000  -1.08551  -1.08342  -1.03611
 Alpha  occ. eigenvalues --   -1.03471  -0.96054  -0.95937  -0.87069  -0.86954
 Alpha  occ. eigenvalues --   -0.79714  -0.79519  -0.78449  -0.78101  -0.65181
 Alpha  occ. eigenvalues --   -0.65004  -0.61037  -0.60870  -0.59424  -0.59289
 Alpha  occ. eigenvalues --   -0.57690  -0.57534  -0.55416  -0.55179  -0.52735
 Alpha  occ. eigenvalues --   -0.52635  -0.52488  -0.52368  -0.50022  -0.49893
 Alpha  occ. eigenvalues --   -0.48052  -0.47919  -0.46708  -0.46612  -0.46276
 Alpha  occ. eigenvalues --   -0.45667  -0.45631  -0.45126  -0.43858  -0.43722
 Alpha virt. eigenvalues --    0.20305   0.22799   0.23225   0.24009   0.25137
 Alpha virt. eigenvalues --    0.26156   0.26834   0.27848   0.28896   0.30228
 Alpha virt. eigenvalues --    0.30862   0.31347   0.31597   0.31757   0.32317

 Mulliken charges:
               1
     1  C   -0.308325
     2  C   -0.298642
     3  C   -0.476151
     4  H    0.152267
     5  H    0.155713
     6  H    0.152096
     7  H    0.152254
     8  H    0.155719
     9  H    0.155197
    10  H    0.160676
    11  C   -0.297622
    12  C   -0.306675
    13  C   -0.475661
    14  H    0.149644
    15  H    0.149924
    16  H    0.152263
    17  H    0.159236
    18  H    0.155509
    19  H    0.155241
    20  H    0.160435
    21  C   -0.298426
    22  C   -0.299348
    23  C   -0.475619
    24  H    0.148777
    25  H    0.149460
    26  H    0.150552
    27  H    0.152248
    28  H    0.155343
    29  H    0.154888
    30  H    0.160123
    31  C   -0.305894
    32  C   -0.301695
    33  C   -0.482785
    34  H    0.158354
    35  H    0.148878
    36  H    0.155957
    37  H    0.151195
    38  H    0.155013
    39  H    0.160641
    40  H    0.159239
 Sum of Mulliken charges =  -0.00000

 Dipole moment (field-independent basis, Debye):
    X=              0.0708    Y=              0.0157    Z=             -0.0080  Tot=              0.0730
 Quadrupole moment (field-independent basis, Debye-Ang):
   XX=            -84.7084   YY=            -85.4882   ZZ=            -84.6416
   XY=              0.3144   XZ=             -0.4818   YZ=             -0.6248

 Normal termination of Gaussian 16 at Wed May  5 15:18:11 2021.
