 Gaussian 16, Revision A.03,
 Gaussian 16:  EM64L-G16RevA.03 25-Dec-2016

 -------------
 #p 6-31g* mp2
 -------------

 ------------------------------------------------------
 Input file generated by CHIRIPA (05-May-2021 14:57:26)
 ------------------------------------------------------
 Symbolic Z-matrix:
 Charge =  0 Multiplicity = 1

                         Standard orientation:
 ---------------------------------------------------------------------
 Center     Atomic      Atomic             Coordinates (Angstroms)
 Number     Number       Type             X           Y           Z
 ---------------------------------------------------------------------
      1          6           0       -2.246010    2.492022    0.010416
      2          6           0       -3.284985    2.292004   -0.904485
      3          6           0       -3.941440    1.059677   -0.975098
      4          6           0       -3.531302    0.044712   -0.112008
      5          6           0       -2.499653    0.213159    0.810280
      6          6           0       -1.857345    1.453792    0.863375
      7          1           0       -1.741556    3.452549    0.058466
      8          1           0       -3.588946    3.096508   -1.568131
      9          1           0       -4.748875    0.877620   -1.673898
     10          1           0       -2.218969   -0.607766    1.458908
     11          1           0       -1.050788    1.606277    1.574894
     12          7           0       -4.218773   -1.264294   -0.177490
     13          8           0       -3.838597   -2.142476    0.593807
     14          8           0       -5.124770   -1.387324   -0.998873
     15          6           0        1.246315   -0.768680    1.280800
     16          6           0        1.977742    0.373646    1.622306
     17          6           0        3.182317    0.665171    0.975344
     18          6           0        3.627949   -0.211318   -0.012821
     19          6           0        2.921927   -1.357322   -0.375447
     20          6           0        1.719907   -1.629002    0.284769
     21          1           0        0.311565   -0.987434    1.788525
     22          1           0        1.612369    1.043572    2.395447
     23          1           0        3.768608    1.542571    1.219982
     24          1           0        3.311702   -2.006300   -1.150252
     25          1           0        1.153972   -2.516876    0.017483
     26          7           0        4.901826    0.086800   -0.704749
     27          8           0        5.272855   -0.701291   -1.571863
     28          8           0        5.505140    1.102912   -0.366865
 ---------------------------------------------------------------------

 SCF Done:  E(RHF) =  -868.336396780     A.U. after   16 cycles
 E2 =    -0.2601139000D+01 EUMP2 =    -0.87093753577965D+03

 The electronic state is 1-A.
 Alpha  occ. eigenvalues --  -20.61490 -20.61461 -20.61145 -20.61133 -15.86533
 Alpha  occ. eigenvalues --  -15.86199 -11.31938 -11.31658 -11.28612 -11.28429
 Alpha  occ. eigenvalues --  -11.28294 -11.28193 -11.28189 -11.28085 -11.27588
 Alpha  occ. eigenvalues --  -11.27438 -11.27403 -11.27197  -1.60551  -1.60215
 Alpha  occ. eigenvalues --   -1.40106  -1.39766  -1.20099  -1.19854  -1.09473
 Alpha  occ. eigenvalues --   -1.09250  -1.05529  -1.05269  -0.96315  -0.96062
 Alpha  occ. eigenvalues --   -0.86928  -0.86664  -0.83174  -0.82878  -0.78229
 Alpha  occ. eigenvalues --   -0.77898  -0.72752  -0.72417  -0.71875  -0.71540
 Alpha  occ. eigenvalues --   -0.71314  -0.70914  -0.65757  -0.65651  -0.65466
 Alpha  occ. eigenvalues --   -0.65252  -0.62905  -0.62589  -0.56032  -0.55787
 Alpha  occ. eigenvalues --   -0.53887  -0.53680  -0.53470  -0.53348  -0.49516
 Alpha  occ. eigenvalues --   -0.49498  -0.49183  -0.49164  -0.45505  -0.45151
 Alpha  occ. eigenvalues --   -0.38093  -0.37942  -0.36967  -0.36846
 Alpha virt. eigenvalues --    0.04227   0.04732   0.10289   0.10903   0.15653
 Alpha virt. eigenvalues --    0.16256   0.18034   0.22248   0.24500   0.25203
 Alpha virt. eigenvalues --    0.27894   0.29081   0.30605   0.31028   0.33299

 Mulliken charges:
               1
     1  C   -0.170764
     2  C   -0.217531
     3  C   -0.170068
     4  C    0.160259
     5  C   -0.176117
     6  C   -0.212692
     7  H    0.228416
     8  H    0.226908
     9  H    0.277985
    10  H    0.267985
    11  H    0.216705
    12  N    0.488180
    13  O   -0.463561
    14  O   -0.456711
    15  C   -0.168859
    16  C   -0.222880
    17  C   -0.170672
    18  C    0.158858
    19  C   -0.169780
    20  C   -0.219243
    21  H    0.222123
    22  H    0.217138
    23  H    0.275779
    24  H    0.278453
    25  H    0.230740
    26  N    0.487946
    27  O   -0.458176
    28  O   -0.460422
 Sum of Mulliken charges =  -0.00000

 Dipole moment (field-independent basis, Debye):
    X=             -2.0881    Y=              3.5637    Z=              2.3889  Tot=              4.7715
 Quadrupole moment (field-independent basis, Debye-Ang):
   XX=           -152.9921   YY=           -100.2515   ZZ=           -101.9121
   XY=            -20.3757   XZ=             10.9202   YZ=              0.0739

 Normal termination of Gaussian 16 at Thu May  6 00:24:06 2021.
