 Gaussian 16, Revision A.03,
 Gaussian 16:  EM64L-G16RevA.03 25-Dec-2016

 -------------
 #p 6-31g* mp2
 -------------

 ------------------------------------------------------
 Input file generated by CHIRIPA (05-May-2021 14:51:08)
 ------------------------------------------------------
 Symbolic Z-matrix:
 Charge =  0 Multiplicity = 1

                         Standard orientation:
 ---------------------------------------------------------------------
 Center     Atomic      Atomic             Coordinates (Angstroms)
 Number     Number       Type             X           Y           Z
 ---------------------------------------------------------------------
      1          6           0        4.243008   -0.387800    0.079970
      2          6           0        4.999844    0.881154   -0.313653
      3          6           0        6.511299    0.666021   -0.397411
      4          1           0        4.618171   -0.745247    1.048696
      5          1           0        4.461810   -1.178497   -0.651001
      6          1           0        4.778587    1.669634    0.417073
      7          1           0        4.622703    1.235730   -1.281464
      8          1           0        6.750550   -0.101805   -1.140246
      9          1           0        6.907321    0.334565    0.567941
     10          1           0        7.032669    1.585828   -0.680232
     11          6           0        2.730939   -0.188679    0.167875
     12          6           0        1.974103   -1.457633    0.561499
     13          6           0        0.462647   -1.242500    0.645256
     14          1           0        2.512136    0.602018    0.898846
     15          1           0        2.355776    0.168768   -0.800850
     16          1           0        2.351244   -1.812209    1.529309
     17          1           0        2.195359   -2.246113   -0.169228
     18          1           0        0.066626   -0.911044   -0.320096
     19          1           0        0.223397   -0.474674    1.388092
     20          1           0       -0.058722   -2.162307    0.928078
     21          6           0       -3.177231    0.951458   -0.342171
     22          6           0       -3.705793    2.154135    0.440245
     23          6           0       -3.076698    3.473698   -0.007846
     24          1           0       -2.086131    0.897258   -0.225942
     25          1           0       -3.370230    1.105828   -1.412833
     26          1           0       -3.513094    1.996910    1.509245
     27          1           0       -4.795784    2.205367    0.322295
     28          1           0       -3.280386    3.657261   -1.067759
     29          1           0       -1.990409    3.447619    0.125935
     30          1           0       -3.468786    4.320169    0.564530
     31          6           0       -3.796716   -0.374979    0.094326
     32          6           0       -3.268153   -1.577656   -0.688090
     33          6           0       -3.897249   -2.897220   -0.239999
     34          1           0       -3.603717   -0.529350    1.164988
     35          1           0       -4.887816   -0.320778   -0.021904
     36          1           0       -2.178163   -1.628888   -0.570140
     37          1           0       -3.460853   -1.420430   -1.757091
     38          1           0       -4.983538   -2.871140   -0.373780
     39          1           0       -3.693560   -3.080782    0.819914
     40          1           0       -3.505160   -3.743690   -0.812375
 ---------------------------------------------------------------------

 SCF Done:  E(RHF) =  -470.732713976     A.U. after   11 cycles
 E2 =    -0.1583347949D+01 EUMP2 =    -0.47231606192496D+03

 The electronic state is 1-A.
 Alpha  occ. eigenvalues --  -11.21684 -11.21636 -11.21535 -11.21465 -11.21402
 Alpha  occ. eigenvalues --  -11.21399 -11.21293 -11.21233 -11.21195 -11.21098
 Alpha  occ. eigenvalues --  -11.21025 -11.20980  -1.08495  -1.08324  -1.03607
 Alpha  occ. eigenvalues --   -1.03429  -0.96062  -0.95891  -0.87095  -0.86901
 Alpha  occ. eigenvalues --   -0.79715  -0.79471  -0.78321  -0.78114  -0.65138
 Alpha  occ. eigenvalues --   -0.64952  -0.61059  -0.60806  -0.59423  -0.59251
 Alpha  occ. eigenvalues --   -0.57679  -0.57490  -0.55366  -0.55174  -0.52787
 Alpha  occ. eigenvalues --   -0.52604  -0.52464  -0.52314  -0.50072  -0.49797
 Alpha  occ. eigenvalues --   -0.48021  -0.47812  -0.46809  -0.46440  -0.45953
 Alpha  occ. eigenvalues --   -0.45772  -0.45653  -0.45359  -0.43819  -0.43680
 Alpha virt. eigenvalues --    0.21545   0.22943   0.24050   0.24477   0.25578
 Alpha virt. eigenvalues --    0.26580   0.27130   0.27571   0.27936   0.29615
 Alpha virt. eigenvalues --    0.30823   0.31268   0.31725   0.32017   0.32257

 Mulliken charges:
               1
     1  C   -0.298354
     2  C   -0.299715
     3  C   -0.475751
     4  H    0.149778
     5  H    0.149711
     6  H    0.151976
     7  H    0.152103
     8  H    0.155259
     9  H    0.155218
    10  H    0.160415
    11  C   -0.298839
    12  C   -0.299753
    13  C   -0.480908
    14  H    0.149416
    15  H    0.150084
    16  H    0.152228
    17  H    0.152504
    18  H    0.159186
    19  H    0.155581
    20  H    0.161752
    21  C   -0.302430
    22  C   -0.299385
    23  C   -0.475671
    24  H    0.153872
    25  H    0.148704
    26  H    0.151598
    27  H    0.151757
    28  H    0.154995
    29  H    0.155070
    30  H    0.159952
    31  C   -0.296796
    32  C   -0.309705
    33  C   -0.475309
    34  H    0.149146
    35  H    0.148895
    36  H    0.164490
    37  H    0.150270
    38  H    0.154748
    39  H    0.154494
    40  H    0.159415
 Sum of Mulliken charges =  -0.00000

 Dipole moment (field-independent basis, Debye):
    X=              0.0910    Y=             -0.0102    Z=              0.0093  Tot=              0.0921
 Quadrupole moment (field-independent basis, Debye-Ang):
   XX=            -85.8773   YY=            -85.8785   ZZ=            -83.3936
   XY=             -0.5122   XZ=              0.7481   YZ=              0.3680

 Normal termination of Gaussian 16 at Wed May  5 19:41:53 2021.
