 Gaussian 16, Revision A.03,
 Gaussian 16:  EM64L-G16RevA.03 25-Dec-2016

 -------------
 #p 6-31g* mp2
 -------------

 ------------------------------------------------------
 Input file generated by CHIRIPA (05-May-2021 14:51:10)
 ------------------------------------------------------
 Symbolic Z-matrix:
 Charge =  0 Multiplicity = 1

                         Standard orientation:
 ---------------------------------------------------------------------
 Center     Atomic      Atomic             Coordinates (Angstroms)
 Number     Number       Type             X           Y           Z
 ---------------------------------------------------------------------
      1          6           0        2.519701    1.001343   -0.144038
      2          6           0        1.836083    1.915195    0.873570
      3          6           0        2.469819    3.305103    0.939373
      4          1           0        3.583928    0.908878    0.112508
      5          1           0        2.477057    1.472121   -1.135978
      6          1           0        1.878785    1.442197    1.863047
      7          1           0        0.773319    2.005342    0.614682
      8          1           0        2.413886    3.800535   -0.035317
      9          1           0        3.525632    3.234190    1.220141
     10          1           0        1.965697    3.941863    1.673034
     11          6           0        1.897414   -0.391677   -0.221384
     12          6           0        2.581031   -1.305529   -1.238992
     13          6           0        1.947295   -2.695437   -1.304795
     14          1           0        1.940057   -0.862455    0.770556
     15          1           0        0.833187   -0.299212   -0.477930
     16          1           0        3.643795   -1.395676   -0.980104
     17          1           0        2.538330   -0.832531   -2.228469
     18          1           0        0.891482   -2.624524   -1.585563
     19          1           0        2.003228   -3.190868   -0.330105
     20          1           0        2.451417   -3.332197   -2.038456
     21          6           0       -2.084737   -1.058475    0.171512
     22          6           0       -1.328421   -1.567018    1.399255
     23          6           0       -1.088318   -3.076581    1.362298
     24          1           0       -3.047487   -1.582647    0.098712
     25          1           0       -1.518063   -1.318510   -0.733284
     26          1           0       -1.895668   -1.304884    2.301548
     27          1           0       -0.367442   -1.041436    1.469250
     28          1           0       -0.502474   -3.351976    0.479379
     29          1           0       -2.039384   -3.616922    1.316406
     30          1           0       -0.546213   -3.418705    2.249392
     31          6           0       -2.332377    0.448809    0.193910
     32          6           0       -3.088694    0.957352   -1.033833
     33          6           0       -3.328797    2.466915   -0.996876
     34          1           0       -2.899051    0.708844    1.098706
     35          1           0       -1.369627    0.972981    0.266710
     36          1           0       -4.049672    0.431769   -1.103828
     37          1           0       -2.521447    0.695218   -1.936126
     38          1           0       -2.377730    3.007255   -0.950984
     39          1           0       -3.914640    2.742310   -0.113957
     40          1           0       -3.870901    2.809039   -1.883970
 ---------------------------------------------------------------------

 SCF Done:  E(RHF) =  -470.730699412     A.U. after   11 cycles
 E2 =    -0.1587318849D+01 EUMP2 =    -0.47231801826115D+03

 The electronic state is 1-A.
 Alpha  occ. eigenvalues --  -11.21694 -11.21684 -11.21617 -11.21484 -11.21422
 Alpha  occ. eigenvalues --  -11.21387 -11.21354 -11.21300 -11.21163 -11.21133
 Alpha  occ. eigenvalues --  -11.21097 -11.20880  -1.08598  -1.08337  -1.03650
 Alpha  occ. eigenvalues --   -1.03440  -0.96092  -0.95917  -0.87145  -0.86898
 Alpha  occ. eigenvalues --   -0.79710  -0.79537  -0.78542  -0.78079  -0.65463
 Alpha  occ. eigenvalues --   -0.64773  -0.61088  -0.60871  -0.59404  -0.59304
 Alpha  occ. eigenvalues --   -0.57785  -0.57481  -0.55404  -0.55202  -0.52768
 Alpha  occ. eigenvalues --   -0.52627  -0.52578  -0.52340  -0.50032  -0.49808
 Alpha  occ. eigenvalues --   -0.48218  -0.47683  -0.46865  -0.46628  -0.46455
 Alpha  occ. eigenvalues --   -0.45734  -0.45541  -0.44915  -0.43867  -0.43719
 Alpha virt. eigenvalues --    0.20170   0.21881   0.23660   0.24511   0.25232
 Alpha virt. eigenvalues --    0.26023   0.26256   0.27503   0.29380   0.30102
 Alpha virt. eigenvalues --    0.31117   0.31405   0.31542   0.31885   0.32201

 Mulliken charges:
               1
     1  C   -0.297043
     2  C   -0.307932
     3  C   -0.475139
     4  H    0.149975
     5  H    0.149212
     6  H    0.152400
     7  H    0.158215
     8  H    0.155186
     9  H    0.155488
    10  H    0.160824
    11  C   -0.308517
    12  C   -0.298742
    13  C   -0.481115
    14  H    0.151802
    15  H    0.158981
    16  H    0.152342
    17  H    0.151844
    18  H    0.157242
    19  H    0.158317
    20  H    0.161193
    21  C   -0.301933
    22  C   -0.305474
    23  C   -0.481618
    24  H    0.150708
    25  H    0.149139
    26  H    0.150715
    27  H    0.160833
    28  H    0.162397
    29  H    0.154089
    30  H    0.158266
    31  C   -0.309059
    32  C   -0.298897
    33  C   -0.475712
    34  H    0.150232
    35  H    0.158356
    36  H    0.152365
    37  H    0.150795
    38  H    0.154377
    39  H    0.155524
    40  H    0.160364
 Sum of Mulliken charges =  -0.00000

 Dipole moment (field-independent basis, Debye):
    X=              0.0828    Y=              0.0188    Z=             -0.0135  Tot=              0.0860
 Quadrupole moment (field-independent basis, Debye-Ang):
   XX=            -83.7773   YY=            -86.9464   ZZ=            -84.1507
   XY=             -0.3029   XZ=              0.0177   YZ=             -0.2252

 Normal termination of Gaussian 16 at Thu May  6 05:23:43 2021.
