 Gaussian 16, Revision A.03,
 Gaussian 16:  EM64L-G16RevA.03 25-Dec-2016

 -------------
 #p 6-31g* mp2
 -------------

 ------------------------------------------------------
 Input file generated by CHIRIPA (05-May-2021 14:51:07)
 ------------------------------------------------------
 Symbolic Z-matrix:
 Charge =  0 Multiplicity = 1

                         Standard orientation:
 ---------------------------------------------------------------------
 Center     Atomic      Atomic             Coordinates (Angstroms)
 Number     Number       Type             X           Y           Z
 ---------------------------------------------------------------------
      1          6           0        3.411371   -0.474373    0.189947
      2          6           0        3.523882   -1.614337   -0.822876
      3          6           0        3.258021   -2.985744   -0.201304
      4          1           0        4.120266   -0.650228    1.010610
      5          1           0        2.407282   -0.487346    0.636075
      6          1           0        4.527003   -1.598366   -1.267971
      7          1           0        2.814773   -1.435648   -1.641320
      8          1           0        2.251166   -3.026051    0.226738
      9          1           0        3.973125   -3.189693    0.602209
     10          1           0        3.343673   -3.786072   -0.942923
     11          6           0        3.674468    0.902892   -0.416393
     12          6           0        3.561957    2.042855    0.596430
     13          6           0        3.827818    3.414263   -0.025143
     14          1           0        4.678557    0.915864   -0.862522
     15          1           0        2.965573    1.078747   -1.237056
     16          1           0        4.271066    1.864167    1.414874
     17          1           0        2.558835    2.026884    1.041524
     18          1           0        3.112714    3.618212   -0.828655
     19          1           0        4.834673    3.454570   -0.453184
     20          1           0        3.742166    4.214591    0.716476
     21          6           0       -4.061539    0.054206   -0.379110
     22          6           0       -5.319062    0.596850    0.300711
     23          6           0       -6.347197    1.130341   -0.697347
     24          1           0       -3.607584    0.850161   -0.985184
     25          1           0       -4.346346   -0.745777   -1.076467
     26          1           0       -5.031820    1.394631    0.997601
     27          1           0       -5.769970   -0.200434    0.905388
     28          1           0       -6.662301    0.339443   -1.385671
     29          1           0       -5.919956    1.943570   -1.292935
     30          1           0       -7.238108    1.513295   -0.189916
     31          6           0       -3.024300   -0.482724    0.605557
     32          6           0       -1.766777   -1.025369   -0.074264
     33          6           0       -0.738642   -1.558860    0.923793
     34          1           0       -2.739492    0.317259    1.302914
     35          1           0       -3.478255   -1.278679    1.211630
     36          1           0       -1.315869   -0.228085   -0.678942
     37          1           0       -2.054019   -1.823149   -0.771154
     38          1           0       -1.165883   -2.372089    1.519382
     39          1           0       -0.423538   -0.767961    1.612117
     40          1           0        0.152269   -1.941813    0.416363
 ---------------------------------------------------------------------

 SCF Done:  E(RHF) =  -470.733061722     A.U. after   11 cycles
 E2 =    -0.1583020657D+01 EUMP2 =    -0.47231608237966D+03

 The electronic state is 1-A.
 Alpha  occ. eigenvalues --  -11.21679 -11.21633 -11.21594 -11.21580 -11.21454
 Alpha  occ. eigenvalues --  -11.21393 -11.21367 -11.21293 -11.21154 -11.21096
 Alpha  occ. eigenvalues --  -11.21070 -11.21041  -1.08484  -1.08403  -1.03596
 Alpha  occ. eigenvalues --   -1.03509  -0.96043  -0.95959  -0.87063  -0.86977
 Alpha  occ. eigenvalues --   -0.79674  -0.79555  -0.78295  -0.78209  -0.65133
 Alpha  occ. eigenvalues --   -0.65036  -0.61008  -0.60960  -0.59458  -0.59257
 Alpha  occ. eigenvalues --   -0.57678  -0.57537  -0.55372  -0.55214  -0.52774
 Alpha  occ. eigenvalues --   -0.52654  -0.52483  -0.52347  -0.50022  -0.49863
 Alpha  occ. eigenvalues --   -0.48009  -0.47848  -0.46694  -0.46598  -0.45837
 Alpha  occ. eigenvalues --   -0.45777  -0.45746  -0.45650  -0.43793  -0.43748
 Alpha virt. eigenvalues --    0.20791   0.23099   0.23682   0.24810   0.26216
 Alpha virt. eigenvalues --    0.26673   0.27030   0.27487   0.27686   0.29430
 Alpha virt. eigenvalues --    0.30172   0.31429   0.31704   0.31773   0.32027

 Mulliken charges:
               1
     1  C   -0.303483
     2  C   -0.299504
     3  C   -0.481413
     4  H    0.149400
     5  H    0.155390
     6  H    0.152029
     7  H    0.151468
     8  H    0.159778
     9  H    0.155578
    10  H    0.160191
    11  C   -0.297956
    12  C   -0.299514
    13  C   -0.475665
    14  H    0.149381
    15  H    0.149262
    16  H    0.152027
    17  H    0.151457
    18  H    0.154979
    19  H    0.155265
    20  H    0.160129
    21  C   -0.298262
    22  C   -0.299682
    23  C   -0.475735
    24  H    0.149623
    25  H    0.149660
    26  H    0.151992
    27  H    0.152046
    28  H    0.155243
    29  H    0.155209
    30  H    0.160380
    31  C   -0.298790
    32  C   -0.299195
    33  C   -0.484889
    34  H    0.149613
    35  H    0.149944
    36  H    0.151618
    37  H    0.152360
    38  H    0.155972
    39  H    0.155726
    40  H    0.168372
 Sum of Mulliken charges =  -0.00000

 Dipole moment (field-independent basis, Debye):
    X=             -0.0349    Y=             -0.0117    Z=              0.0142  Tot=              0.0394
 Quadrupole moment (field-independent basis, Debye-Ang):
   XX=            -84.3551   YY=            -85.2275   ZZ=            -85.2020
   XY=              0.5122   XZ=             -0.1740   YZ=              0.5765

 Normal termination of Gaussian 16 at Thu May  6 09:59:02 2021.
