 Gaussian 16, Revision A.03,
 Gaussian 16:  EM64L-G16RevA.03 25-Dec-2016

 -------------
 #p 6-31g* mp2
 -------------

 ------------------------------------------------------
 Input file generated by CHIRIPA (05-May-2021 14:55:26)
 ------------------------------------------------------
 Symbolic Z-matrix:
 Charge =  0 Multiplicity = 1

                         Standard orientation:
 ---------------------------------------------------------------------
 Center     Atomic      Atomic             Coordinates (Angstroms)
 Number     Number       Type             X           Y           Z
 ---------------------------------------------------------------------
      1          6           0        3.558923    2.068357    0.562917
      2          6           0        2.249256    1.793733    0.970197
      3          6           0        1.656443    0.563071    0.672552
      4          6           0        2.405557   -0.374171   -0.037163
      5          6           0        3.712388   -0.130313   -0.456706
      6          6           0        4.285029    1.107152   -0.147981
      7          1           0        4.011599    3.027007    0.798439
      8          1           0        1.682978    2.538328    1.522421
      9          1           0        0.644288    0.324210    0.975712
     10          1           0        4.251859   -0.892473   -1.005797
     11          1           0        5.302316    1.317676   -0.465552
     12          7           0        1.788651   -1.680618   -0.358132
     13          8           0        2.469748   -2.489520   -0.984568
     14          8           0        0.635703   -1.870973    0.022807
     15          6           0       -3.084831    0.928389    0.185382
     16          6           0       -3.419328    1.936388   -0.914634
     17          6           0       -3.165182    3.382599   -0.488396
     18          1           0       -3.681046    1.158990    1.078858
     19          1           0       -2.031132    1.046906    0.473595
     20          1           0       -4.471714    1.815069   -1.201654
     21          1           0       -2.822388    1.703246   -1.805657
     22          1           0       -2.113232    3.526295   -0.221277
     23          1           0       -3.771929    3.638755    0.386158
     24          1           0       -3.410922    4.086401   -1.289728
     25          6           0       -3.333680   -0.521728   -0.225667
     26          6           0       -2.999183   -1.529727    0.874349
     27          6           0       -3.253329   -2.975937    0.448111
     28          1           0       -4.387380   -0.640244   -0.513879
     29          1           0       -2.737466   -0.752327   -1.119142
     30          1           0       -3.596123   -1.296583    1.765373
     31          1           0       -1.946797   -1.408408    1.161370
     32          1           0       -2.646582   -3.232092   -0.426442
     33          1           0       -4.305279   -3.119633    0.180992
     34          1           0       -3.007589   -3.679739    1.249444
 ---------------------------------------------------------------------

 SCF Done:  E(RHF) =  -669.536099383     A.U. after   15 cycles
 E2 =    -0.2092032920D+01 EUMP2 =    -0.67162813230294D+03

 The electronic state is 1-A.
 Alpha  occ. eigenvalues --  -20.60955 -20.60944 -15.85993 -11.31302 -11.27866
 Alpha  occ. eigenvalues --  -11.27861 -11.27596 -11.26870 -11.26860 -11.21521
 Alpha  occ. eigenvalues --  -11.21245 -11.21186 -11.20771 -11.20645 -11.19992
 Alpha  occ. eigenvalues --   -1.60017  -1.39574  -1.19470  -1.08875  -1.08016
 Alpha  occ. eigenvalues --   -1.04865  -1.03025  -0.95720  -0.95515  -0.86532
 Alpha  occ. eigenvalues --   -0.86266  -0.82557  -0.79177  -0.77814  -0.77562
 Alpha  occ. eigenvalues --   -0.72225  -0.71332  -0.70580  -0.65135  -0.64887
 Alpha  occ. eigenvalues --   -0.64612  -0.62211  -0.60382  -0.58953  -0.57107
 Alpha  occ. eigenvalues --   -0.55369  -0.54802  -0.53196  -0.52957  -0.52207
 Alpha  occ. eigenvalues --   -0.51939  -0.49476  -0.48968  -0.48959  -0.47471
 Alpha  occ. eigenvalues --   -0.46220  -0.45314  -0.45143  -0.44976  -0.43312
 Alpha  occ. eigenvalues --   -0.37447  -0.36464
 Alpha virt. eigenvalues --    0.04907   0.11171   0.16414   0.19710   0.23003
 Alpha virt. eigenvalues --    0.24478   0.25122   0.27506   0.27650   0.28301
 Alpha virt. eigenvalues --    0.29638   0.30941   0.31754   0.31994   0.32720

 Mulliken charges:
               1
     1  C   -0.170349
     2  C   -0.220252
     3  C   -0.175127
     4  C    0.157435
     5  C   -0.170406
     6  C   -0.218691
     7  H    0.226182
     8  H    0.224437
     9  H    0.282063
    10  H    0.275817
    11  H    0.223900
    12  N    0.493637
    13  O   -0.458981
    14  O   -0.467345
    15  C   -0.297603
    16  C   -0.299461
    17  C   -0.474405
    18  H    0.148428
    19  H    0.139675
    20  H    0.153461
    21  H    0.153342
    22  H    0.148566
    23  H    0.154898
    24  H    0.160498
    25  C   -0.298205
    26  C   -0.305019
    27  C   -0.474991
    28  H    0.147013
    29  H    0.155992
    30  H    0.143913
    31  H    0.167777
    32  H    0.166476
    33  H    0.148035
    34  H    0.159293
 Sum of Mulliken charges =  -0.00000

 Dipole moment (field-independent basis, Debye):
    X=              2.3494    Y=              4.4586    Z=              1.0449  Tot=              5.1469
 Quadrupole moment (field-independent basis, Debye-Ang):
   XX=            -80.4265   YY=            -99.6184   ZZ=            -94.4351
   XY=              8.9861   XZ=              0.3535   YZ=              0.1595

 Normal termination of Gaussian 16 at Thu May  6 01:40:25 2021.
