 Gaussian 16, Revision A.03,
 Gaussian 16:  EM64L-G16RevA.03 25-Dec-2016

 -------------
 #p 6-31g* mp2
 -------------

 ------------------------------------------------------
 Input file generated by CHIRIPA (05-May-2021 14:55:21)
 ------------------------------------------------------
 Symbolic Z-matrix:
 Charge =  0 Multiplicity = 1

                         Standard orientation:
 ---------------------------------------------------------------------
 Center     Atomic      Atomic             Coordinates (Angstroms)
 Number     Number       Type             X           Y           Z
 ---------------------------------------------------------------------
      1          6           0        1.837331    2.591334   -0.100414
      2          6           0        2.270876    1.944502   -1.262382
      3          6           0        2.854452    0.675960   -1.193182
      4          6           0        2.989591    0.080794    0.060136
      5          6           0        2.567548    0.699615    1.235818
      6          6           0        1.986787    1.967925    1.142785
      7          1           0        1.385089    3.576677   -0.163427
      8          1           0        2.156080    2.426249   -2.229225
      9          1           0        3.198831    0.152586   -2.076868
     10          1           0        2.695400    0.194094    2.185303
     11          1           0        1.651007    2.467892    2.046848
     12          7           0        3.605907   -1.262032    0.146010
     13          8           0        3.713637   -1.765021    1.262268
     14          8           0        3.969575   -1.786123   -0.904567
     15          6           0       -3.117673   -0.783450   -0.360181
     16          6           0       -1.750657   -0.371701    0.187283
     17          6           0       -0.602415   -1.174393   -0.425103
     18          1           0       -3.274453   -1.854036   -0.169896
     19          1           0       -3.121285   -0.656156   -1.451592
     20          1           0       -1.750083   -0.498421    1.277493
     21          1           0       -1.597195    0.698073   -0.004156
     22          1           0       -0.574446   -1.039577   -1.511217
     23          1           0       -0.728203   -2.242870   -0.222286
     24          1           0        0.365559   -0.863766   -0.019644
     25          6           0       -4.275645    0.010053    0.242465
     26          6           0       -5.642661   -0.401696   -0.304998
     27          6           0       -6.790904    0.400997    0.307388
     28          1           0       -4.272033   -0.117240    1.333876
     29          1           0       -4.118865    1.080640    0.052181
     30          1           0       -5.796123   -1.471470   -0.113558
     31          1           0       -5.643235   -0.274974   -1.395208
     32          1           0       -6.665115    1.469474    0.104570
     33          1           0       -6.818873    0.266180    1.393501
     34          1           0       -7.758878    0.090370   -0.098071
 ---------------------------------------------------------------------

 SCF Done:  E(RHF) =  -669.534634370     A.U. after   15 cycles
 E2 =    -0.2093260606D+01 EUMP2 =    -0.67162789497628D+03

 The electronic state is 1-A.
 Alpha  occ. eigenvalues --  -20.60786 -20.60781 -15.85837 -11.31201 -11.27802
 Alpha  occ. eigenvalues --  -11.27795 -11.27582 -11.26854 -11.26842 -11.21733
 Alpha  occ. eigenvalues --  -11.21672 -11.21539 -11.21445 -11.21220 -11.20903
 Alpha  occ. eigenvalues --   -1.59861  -1.39413  -1.19435  -1.08816  -1.08532
 Alpha  occ. eigenvalues --   -1.04828  -1.03600  -0.96044  -0.95637  -0.87062
 Alpha  occ. eigenvalues --   -0.86224  -0.82468  -0.79675  -0.78353  -0.77507
 Alpha  occ. eigenvalues --   -0.72058  -0.71201  -0.70525  -0.65166  -0.65073
 Alpha  occ. eigenvalues --   -0.64828  -0.62169  -0.61001  -0.59490  -0.57722
 Alpha  occ. eigenvalues --   -0.55334  -0.55329  -0.53616  -0.52916  -0.52545
 Alpha  occ. eigenvalues --   -0.52097  -0.49977  -0.48821  -0.48811  -0.47980
 Alpha  occ. eigenvalues --   -0.46714  -0.45891  -0.45826  -0.44808  -0.43875
 Alpha  occ. eigenvalues --   -0.37338  -0.36427
 Alpha virt. eigenvalues --    0.05009   0.11192   0.16485   0.21363   0.22740
 Alpha virt. eigenvalues --    0.24204   0.26518   0.27207   0.27425   0.27832
 Alpha virt. eigenvalues --    0.28288   0.30765   0.31320   0.31774   0.31819

 Mulliken charges:
               1
     1  C   -0.171641
     2  C   -0.216387
     3  C   -0.170117
     4  C    0.157375
     5  C   -0.175555
     6  C   -0.214322
     7  H    0.225991
     8  H    0.223747
     9  H    0.275932
    10  H    0.275916
    11  H    0.224184
    12  N    0.489911
    13  O   -0.460653
    14  O   -0.460214
    15  C   -0.298507
    16  C   -0.297873
    17  C   -0.479989
    18  H    0.151669
    19  H    0.148768
    20  H    0.150395
    21  H    0.147069
    22  H    0.152350
    23  H    0.158564
    24  H    0.165322
    25  C   -0.297773
    26  C   -0.299646
    27  C   -0.475631
    28  H    0.149349
    29  H    0.146775
    30  H    0.153206
    31  H    0.151735
    32  H    0.153960
    33  H    0.155281
    34  H    0.160808
 Sum of Mulliken charges =  -0.00000

 Dipole moment (field-independent basis, Debye):
    X=             -2.0939    Y=              4.7317    Z=             -0.3110  Tot=              5.1836
 Quadrupole moment (field-independent basis, Debye-Ang):
   XX=           -109.4986   YY=            -94.2920   ZZ=            -89.4104
   XY=             14.7202   XZ=             -1.5060   YZ=             -0.4042

 Normal termination of Gaussian 16 at Wed May  5 15:58:15 2021.
