 Gaussian 16, Revision A.03,
 Gaussian 16:  EM64L-G16RevA.03 25-Dec-2016

 -------------
 #p 6-31g* mp2
 -------------

 ------------------------------------------------------
 Input file generated by CHIRIPA (05-May-2021 14:53:11)
 ------------------------------------------------------
 Symbolic Z-matrix:
 Charge =  0 Multiplicity = 1

                         Standard orientation:
 ---------------------------------------------------------------------
 Center     Atomic      Atomic             Coordinates (Angstroms)
 Number     Number       Type             X           Y           Z
 ---------------------------------------------------------------------
      1          6           0       -4.002280   -0.380903   -0.599606
      2          6           0       -5.167192   -1.136446    0.040799
      3          6           0       -5.524585   -2.418980   -0.710980
      4          1           0       -4.258539   -0.138449   -1.640035
      5          1           0       -3.124296   -1.040409   -0.639494
      6          1           0       -6.042320   -0.475255    0.080726
      7          1           0       -4.908206   -1.376961    1.079882
      8          1           0       -4.668150   -3.100395   -0.739135
      9          1           0       -5.808707   -2.193565   -1.743968
     10          1           0       -6.359764   -2.943217   -0.236099
     11          6           0       -3.633210    0.903477    0.140585
     12          6           0       -2.468298    1.659021   -0.499820
     13          6           0       -2.110905    2.941555    0.251959
     14          1           0       -4.511194    1.562984    0.180473
     15          1           0       -3.376951    0.661024    1.181014
     16          1           0       -2.727284    1.899536   -1.538904
     17          1           0       -1.593171    0.997830   -0.539747
     18          1           0       -1.826783    2.716140    1.284947
     19          1           0       -2.967340    3.622970    0.280114
     20          1           0       -1.275726    3.465792   -0.222922
     21          6           0        5.124750   -0.448585   -1.131198
     22          6           0        4.344299    0.703369   -1.274102
     23          6           0        3.155528    0.849559   -0.552991
     24          6           0        2.775520   -0.180498    0.306000
     25          6           0        3.531495   -1.340190    0.470024
     26          6           0        4.716576   -1.464896   -0.261125
     27          1           0        6.046782   -0.553805   -1.695274
     28          1           0        4.658825    1.494265   -1.949084
     29          1           0        2.532265    1.730798   -0.644523
     30          1           0        3.191974   -2.111559    1.150564
     31          1           0        5.320686   -2.360625   -0.148142
     32          7           0        1.518975   -0.037105    1.074722
     33          8           0        1.206125   -0.958970    1.825006
     34          8           0        0.870737    0.994437    0.912406
 ---------------------------------------------------------------------

 SCF Done:  E(RHF) =  -669.536196668     A.U. after   15 cycles
 E2 =    -0.2091371630D+01 EUMP2 =    -0.67162756829852D+03

 The electronic state is 1-A.
 Alpha  occ. eigenvalues --  -20.61020 -20.61004 -15.86034 -11.31329 -11.27890
 Alpha  occ. eigenvalues --  -11.27885 -11.27623 -11.26891 -11.26881 -11.20804
 Alpha  occ. eigenvalues --  -11.20437 -11.20430 -11.20211 -11.20151 -11.19633
 Alpha  occ. eigenvalues --   -1.60073  -1.39629  -1.19496  -1.08906  -1.07356
 Alpha  occ. eigenvalues --   -1.04887  -1.02436  -0.95754  -0.94909  -0.86289
 Alpha  occ. eigenvalues --   -0.85937  -0.82585  -0.78547  -0.77644  -0.77147
 Alpha  occ. eigenvalues --   -0.72264  -0.71385  -0.70604  -0.65155  -0.64891
 Alpha  occ. eigenvalues --   -0.63965  -0.62235  -0.59796  -0.58326  -0.56523
 Alpha  occ. eigenvalues --   -0.55394  -0.54180  -0.53220  -0.52978  -0.51634
 Alpha  occ. eigenvalues --   -0.51350  -0.49033  -0.49016  -0.48825  -0.46869
 Alpha  occ. eigenvalues --   -0.45641  -0.45102  -0.44686  -0.44412  -0.42713
 Alpha  occ. eigenvalues --   -0.37472  -0.36487
 Alpha virt. eigenvalues --    0.04855   0.11168   0.16336   0.21262   0.23920
 Alpha virt. eigenvalues --    0.25307   0.27195   0.27663   0.28107   0.28604
 Alpha virt. eigenvalues --    0.29057   0.30860   0.32132   0.32541   0.32776

 Mulliken charges:
               1
     1  C   -0.297681
     2  C   -0.299168
     3  C   -0.475156
     4  H    0.145316
     5  H    0.150757
     6  H    0.149776
     7  H    0.153765
     8  H    0.154728
     9  H    0.152893
    10  H    0.157990
    11  C   -0.298636
    12  C   -0.301356
    13  C   -0.470261
    14  H    0.144141
    15  H    0.155934
    16  H    0.141374
    17  H    0.165020
    18  H    0.167080
    19  H    0.145056
    20  H    0.153431
    21  C   -0.170485
    22  C   -0.218533
    23  C   -0.170640
    24  C    0.157799
    25  C   -0.170671
    26  C   -0.218582
    27  H    0.226160
    28  H    0.224049
    29  H    0.276054
    30  H    0.275823
    31  H    0.223932
    32  N    0.489771
    33  O   -0.459264
    34  O   -0.460415
 Sum of Mulliken charges =  -0.00000

 Dipole moment (field-independent basis, Debye):
    X=              4.7790    Y=             -0.5735    Z=             -2.5551  Tot=              5.4494
 Quadrupole moment (field-independent basis, Debye-Ang):
   XX=            -71.4969   YY=            -91.9462   ZZ=            -96.1316
   XY=             -3.5729   XZ=             -6.3142   YZ=             -2.4308

 Normal termination of Gaussian 16 at Wed May  5 23:19:04 2021.
