 Gaussian 16, Revision A.03,
 Gaussian 16:  EM64L-G16RevA.03 25-Dec-2016

 -------------
 #p 6-31g* mp2
 -------------

 ------------------------------------------------------
 Input file generated by CHIRIPA (05-May-2021 14:55:19)
 ------------------------------------------------------
 Symbolic Z-matrix:
 Charge =  0 Multiplicity = 1

                         Standard orientation:
 ---------------------------------------------------------------------
 Center     Atomic      Atomic             Coordinates (Angstroms)
 Number     Number       Type             X           Y           Z
 ---------------------------------------------------------------------
      1          6           0       -5.859117    0.547080   -0.300302
      2          6           0       -5.620359   -0.711854    0.260590
      3          6           0       -4.314981   -1.195178    0.390721
      4          6           0       -3.267263   -0.389498   -0.052511
      5          6           0       -3.472851    0.869070   -0.615564
      6          6           0       -4.786492    1.332140   -0.735821
      7          1           0       -6.876376    0.914671   -0.397556
      8          1           0       -6.451435   -1.323716    0.599682
      9          1           0       -4.101650   -2.166043    0.821220
     10          1           0       -2.623963    1.456097   -0.944510
     11          1           0       -4.968928    2.310239   -1.171808
     12          7           0       -1.880944   -0.890451    0.080026
     13          8           0       -0.975151   -0.161305   -0.318125
     14          8           0       -1.726389   -2.002757    0.579551
     15          6           0        5.052742   -0.059504    0.306082
     16          6           0        5.943999   -0.487929   -0.860149
     17          6           0        7.096231   -1.392611   -0.422306
     18          1           0        5.665031    0.460823    1.055286
     19          1           0        4.649983   -0.955190    0.798958
     20          1           0        6.343852    0.408327   -1.351532
     21          1           0        5.329482   -1.007129   -1.606753
     22          1           0        6.713148   -2.303487    0.049026
     23          1           0        7.733281   -0.879988    0.305696
     24          1           0        7.720623   -1.686930   -1.271642
     25          6           0        3.896365    0.845258   -0.115735
     26          6           0        3.005108    1.273684    1.050497
     27          6           0        1.852876    2.178365    0.612654
     28          1           0        4.299124    1.740944   -0.608609
     29          1           0        3.284076    0.324930   -0.864938
     30          1           0        3.619625    1.792883    1.797101
     31          1           0        2.605255    0.377426    1.541880
     32          1           0        1.215825    1.665742   -0.115348
     33          1           0        2.235958    3.089241    0.141323
     34          1           0        1.228484    2.472685    1.461990
 ---------------------------------------------------------------------

 SCF Done:  E(RHF) =  -669.536119955     A.U. after   15 cycles
 E2 =    -0.2090694364D+01 EUMP2 =    -0.67162681431881D+03

 The electronic state is 1-A.
 Alpha  occ. eigenvalues --  -20.60926 -20.60921 -15.85970 -11.31281 -11.27845
 Alpha  occ. eigenvalues --  -11.27839 -11.27583 -11.26852 -11.26842 -11.20862
 Alpha  occ. eigenvalues --  -11.20503 -11.20442 -11.20440 -11.20321 -11.19769
 Alpha  occ. eigenvalues --   -1.59992  -1.39548  -1.19450  -1.08856  -1.07471
 Alpha  occ. eigenvalues --   -1.04845  -1.02563  -0.95702  -0.95018  -0.86246
 Alpha  occ. eigenvalues --   -0.86044  -0.82536  -0.78657  -0.77588  -0.77270
 Alpha  occ. eigenvalues --   -0.72202  -0.71307  -0.70560  -0.65108  -0.64849
 Alpha  occ. eigenvalues --   -0.64087  -0.62193  -0.59934  -0.58424  -0.56636
 Alpha  occ. eigenvalues --   -0.55351  -0.54280  -0.53178  -0.52937  -0.51742
 Alpha  occ. eigenvalues --   -0.51454  -0.49054  -0.48952  -0.48828  -0.46969
 Alpha  occ. eigenvalues --   -0.45678  -0.44962  -0.44810  -0.44694  -0.42836
 Alpha  occ. eigenvalues --   -0.37429  -0.36447
 Alpha virt. eigenvalues --    0.04940   0.11208   0.16431   0.21297   0.23818
 Alpha virt. eigenvalues --    0.25257   0.27191   0.27547   0.28024   0.28475
 Alpha virt. eigenvalues --    0.29079   0.30831   0.32011   0.32581   0.32747

 Mulliken charges:
               1
     1  C   -0.170615
     2  C   -0.218593
     3  C   -0.170748
     4  C    0.157630
     5  C   -0.170516
     6  C   -0.218578
     7  H    0.225951
     8  H    0.223741
     9  H    0.275756
    10  H    0.276020
    11  H    0.223914
    12  N    0.494123
    13  O   -0.466115
    14  O   -0.459594
    15  C   -0.298185
    16  C   -0.299202
    17  C   -0.475303
    18  H    0.146574
    19  H    0.151801
    20  H    0.149617
    21  H    0.152947
    22  H    0.155557
    23  H    0.153557
    24  H    0.157994
    25  C   -0.299105
    26  C   -0.297866
    27  C   -0.482369
    28  H    0.144677
    29  H    0.156117
    30  H    0.145295
    31  H    0.158597
    32  H    0.177659
    33  H    0.145472
    34  H    0.153789
 Sum of Mulliken charges =  -0.00000

 Dipole moment (field-independent basis, Debye):
    X=             -5.1814    Y=              1.6336    Z=             -0.5133  Tot=              5.4570
 Quadrupole moment (field-independent basis, Debye-Ang):
   XX=            -64.2829   YY=            -93.0481   ZZ=            -94.7623
   XY=             -1.6480   XZ=              0.8633   YZ=             -1.9533

 Normal termination of Gaussian 16 at Thu May  6 15:43:36 2021.
