 Gaussian 16, Revision A.03,
 Gaussian 16:  EM64L-G16RevA.03 25-Dec-2016

 -------------
 #p 6-31g* mp2
 -------------

 ------------------------------------------------------
 Input file generated by CHIRIPA (05-May-2021 14:55:21)
 ------------------------------------------------------
 Symbolic Z-matrix:
 Charge =  0 Multiplicity = 1

                         Standard orientation:
 ---------------------------------------------------------------------
 Center     Atomic      Atomic             Coordinates (Angstroms)
 Number     Number       Type             X           Y           Z
 ---------------------------------------------------------------------
      1          6           0        3.338589    2.626905   -0.344266
      2          6           0        3.503688    1.677387   -1.358010
      3          6           0        3.216108    0.329705   -1.122214
      4          6           0        2.763302   -0.035087    0.144744
      5          6           0        2.588680    0.887344    1.175239
      6          6           0        2.882416    2.229554    0.916900
      7          1           0        3.564380    3.671692   -0.536194
      8          1           0        3.857801    1.983099   -2.338413
      9          1           0        3.334983   -0.426202   -1.888954
     10          1           0        2.234034    0.552286    2.142390
     11          1           0        2.753262    2.964780    1.706081
     12          7           0        2.455595   -1.458921    0.406304
     13          8           0        2.058063   -1.754715    1.531075
     14          8           0        2.617772   -2.252167   -0.518411
     15          6           0       -2.855859   -0.417862   -0.109582
     16          6           0       -2.544687   -1.880537   -0.428548
     17          6           0       -1.048008   -2.189922   -0.383548
     18          1           0       -2.325008    0.227314   -0.822947
     19          1           0       -2.460022   -0.174759    0.886215
     20          1           0       -2.942210   -2.121192   -1.422870
     21          1           0       -3.076493   -2.522314    0.285541
     22          1           0       -0.640415   -1.977464    0.610097
     23          1           0       -0.505368   -1.574064   -1.108021
     24          1           0       -0.848182   -3.240895   -0.614600
     25          6           0       -4.348021   -0.093058   -0.150607
     26          6           0       -4.659192    1.369617    0.168359
     27          6           0       -6.155872    1.679003    0.123359
     28          1           0       -4.743858   -0.336161   -1.146402
     29          1           0       -4.878871   -0.738234    0.562759
     30          1           0       -4.127386    2.011394   -0.545729
     31          1           0       -4.261671    1.610272    1.162683
     32          1           0       -6.698512    1.063144    0.847832
     33          1           0       -6.563465    1.466544   -0.870286
     34          1           0       -6.355699    2.729975    0.354413
 ---------------------------------------------------------------------

 SCF Done:  E(RHF) =  -669.536055487     A.U. after   15 cycles
 E2 =    -0.2091929591D+01 EUMP2 =    -0.67162798507852D+03

 The electronic state is 1-A.
 Alpha  occ. eigenvalues --  -20.60859 -20.60829 -15.85856 -11.31220 -11.27788
 Alpha  occ. eigenvalues --  -11.27784 -11.27531 -11.26804 -11.26794 -11.21433
 Alpha  occ. eigenvalues --  -11.21078 -11.20955 -11.20945 -11.20876 -11.19961
 Alpha  occ. eigenvalues --   -1.59888  -1.39449  -1.19390  -1.08788  -1.08027
 Alpha  occ. eigenvalues --   -1.04794  -1.03044  -0.95630  -0.95465  -0.86484
 Alpha  occ. eigenvalues --   -0.86192  -0.82463  -0.79139  -0.77833  -0.77511
 Alpha  occ. eigenvalues --   -0.72094  -0.71188  -0.70502  -0.65048  -0.64799
 Alpha  occ. eigenvalues --   -0.64664  -0.62142  -0.60445  -0.58879  -0.57079
 Alpha  occ. eigenvalues --   -0.55299  -0.54765  -0.53124  -0.52887  -0.52115
 Alpha  occ. eigenvalues --   -0.51898  -0.49453  -0.48853  -0.48840  -0.47428
 Alpha  occ. eigenvalues --   -0.46235  -0.45360  -0.45353  -0.44682  -0.43284
 Alpha  occ. eigenvalues --   -0.37367  -0.36396
 Alpha virt. eigenvalues --    0.04993   0.11249   0.16452   0.21381   0.23233
 Alpha virt. eigenvalues --    0.24834   0.27004   0.27307   0.27793   0.28132
 Alpha virt. eigenvalues --    0.28615   0.30945   0.31742   0.32167   0.32591

 Mulliken charges:
               1
     1  C   -0.170697
     2  C   -0.218592
     3  C   -0.171420
     4  C    0.159299
     5  C   -0.170717
     6  C   -0.218444
     7  H    0.225717
     8  H    0.223517
     9  H    0.275747
    10  H    0.275394
    11  H    0.223584
    12  N    0.490275
    13  O   -0.459948
    14  O   -0.458171
    15  C   -0.297556
    16  C   -0.300660
    17  C   -0.480450
    18  H    0.146130
    19  H    0.148431
    20  H    0.148776
    21  H    0.151430
    22  H    0.167557
    23  H    0.146729
    24  H    0.167566
    25  C   -0.297656
    26  C   -0.298959
    27  C   -0.475373
    28  H    0.148905
    29  H    0.150008
    30  H    0.149870
    31  H    0.150619
    32  H    0.155538
    33  H    0.155007
    34  H    0.158543
 Sum of Mulliken charges =  -0.00000

 Dipole moment (field-independent basis, Debye):
    X=              1.2734    Y=              4.9148    Z=             -0.8716  Tot=              5.1514
 Quadrupole moment (field-independent basis, Debye-Ang):
   XX=            -90.8213   YY=            -95.2596   ZZ=            -89.7573
   XY=             14.1951   XZ=             -4.0418   YZ=              1.6810

 Normal termination of Gaussian 16 at Wed May  5 22:15:27 2021.
