 Gaussian 16, Revision A.03,
 Gaussian 16:  EM64L-G16RevA.03 25-Dec-2016

 -------------
 #p 6-31g* mp2
 -------------

 ------------------------------------------------------
 Input file generated by CHIRIPA (05-May-2021 14:57:21)
 ------------------------------------------------------
 Symbolic Z-matrix:
 Charge =  0 Multiplicity = 1

                         Standard orientation:
 ---------------------------------------------------------------------
 Center     Atomic      Atomic             Coordinates (Angstroms)
 Number     Number       Type             X           Y           Z
 ---------------------------------------------------------------------
      1          6           0        1.036211   -0.496038   -0.277969
      2          6           0        1.835511   -1.374647    0.460737
      3          6           0        3.222457   -1.204825    0.506430
      4          6           0        3.779267   -0.140921   -0.201639
      5          6           0        3.009655    0.751263   -0.946619
      6          6           0        1.624796    0.562247   -0.978055
      7          1           0       -0.040391   -0.635415   -0.307927
      8          1           0        1.381146   -2.197405    1.005409
      9          1           0        3.864852   -1.870187    1.070381
     10          1           0        3.491447    1.562163   -1.479287
     11          1           0        1.006524    1.246141   -1.552575
     12          7           0        5.246459    0.049022   -0.160812
     13          8           0        5.712644    0.994145   -0.793309
     14          8           0        5.902479   -0.750820    0.502911
     15          6           0       -5.154778   -1.097135   -1.254134
     16          6           0       -4.928154    0.264684   -1.479098
     17          6           0       -4.034220    0.978024   -0.674998
     18          6           0       -3.381099    0.294943    0.349757
     19          6           0       -3.585651   -1.061285    0.598941
     20          6           0       -4.483986   -1.754614   -0.217659
     21          1           0       -5.850917   -1.643503   -1.883633
     22          1           0       -5.447694    0.777883   -2.283306
     23          1           0       -3.840035    2.032816   -0.827058
     24          1           0       -3.052929   -1.545562    1.408325
     25          1           0       -4.658021   -2.812168   -0.040632
     26          7           0       -2.432401    1.039532    1.207639
     27          8           0       -1.869512    0.414685    2.103941
     28          8           0       -2.269666    2.233889    0.967500
 ---------------------------------------------------------------------

 SCF Done:  E(RHF) =  -868.338076842     A.U. after   16 cycles
 E2 =    -0.2599853459D+01 EUMP2 =    -0.87093793030018D+03

 The electronic state is 1-A.
 Alpha  occ. eigenvalues --  -20.61829 -20.61817 -20.60272 -20.60267 -15.86862
 Alpha  occ. eigenvalues --  -15.85323 -11.32219 -11.30590 -11.28776 -11.28725
 Alpha  occ. eigenvalues --  -11.28422 -11.27728 -11.27702 -11.27160 -11.27152
 Alpha  occ. eigenvalues --  -11.26894 -11.26156 -11.26139  -1.60904  -1.59349
 Alpha  occ. eigenvalues --   -1.40454  -1.38905  -1.20364  -1.18753  -1.09751
 Alpha  occ. eigenvalues --   -1.08166  -1.05740  -1.04150  -0.96588  -0.95022
 Alpha  occ. eigenvalues --   -0.87136  -0.85554  -0.83407  -0.81864  -0.78479
 Alpha  occ. eigenvalues --   -0.76921  -0.73061  -0.72293  -0.71546  -0.71424
 Alpha  occ. eigenvalues --   -0.70668  -0.69857  -0.65993  -0.65711  -0.64415
 Alpha  occ. eigenvalues --   -0.64163  -0.63078  -0.61512  -0.56200  -0.54693
 Alpha  occ. eigenvalues --   -0.54074  -0.53809  -0.52462  -0.52255  -0.49834
 Alpha  occ. eigenvalues --   -0.49819  -0.48304  -0.48296  -0.45843  -0.44334
 Alpha  occ. eigenvalues --   -0.38329  -0.37348  -0.36694  -0.35739
 Alpha virt. eigenvalues --    0.04023   0.05621   0.10246   0.11923   0.15533
 Alpha virt. eigenvalues --    0.17140   0.20521   0.21760   0.26433   0.27323
 Alpha virt. eigenvalues --    0.27864   0.28077   0.30361   0.31174   0.31720

 Mulliken charges:
               1
     1  C   -0.162725
     2  C   -0.215993
     3  C   -0.171340
     4  C    0.158231
     5  C   -0.170832
     6  C   -0.216219
     7  H    0.219140
     8  H    0.221167
     9  H    0.273772
    10  H    0.274187
    11  H    0.222770
    12  N    0.488221
    13  O   -0.461681
    14  O   -0.461946
    15  C   -0.170249
    16  C   -0.218002
    17  C   -0.172503
    18  C    0.153138
    19  C   -0.176629
    20  C   -0.217739
    21  H    0.229286
    22  H    0.226936
    23  H    0.277305
    24  H    0.274977
    25  H    0.226337
    26  N    0.486587
    27  O   -0.459633
    28  O   -0.456562
 Sum of Mulliken charges =  -0.00000

 Dipole moment (field-independent basis, Debye):
    X=             -8.8639    Y=             -3.2433    Z=             -3.1701  Tot=              9.9568
 Quadrupole moment (field-independent basis, Debye-Ang):
   XX=           -121.8024   YY=            -99.8195   ZZ=           -104.7467
   XY=              5.0986   XZ=             11.0153   YZ=             -6.9097

 Normal termination of Gaussian 16 at Thu May  6 08:05:32 2021.
