 Gaussian 16, Revision A.03,
 Gaussian 16:  EM64L-G16RevA.03 25-Dec-2016

 -------------
 #p 6-31g* mp2
 -------------

 ------------------------------------------------------
 Input file generated by CHIRIPA (05-May-2021 14:53:16)
 ------------------------------------------------------
 Symbolic Z-matrix:
 Charge =  0 Multiplicity = 1

                         Standard orientation:
 ---------------------------------------------------------------------
 Center     Atomic      Atomic             Coordinates (Angstroms)
 Number     Number       Type             X           Y           Z
 ---------------------------------------------------------------------
      1          6           0        4.629798   -0.376954    0.119589
      2          6           0        4.449671   -1.894232    0.061219
      3          6           0        5.734971   -2.655130    0.388070
      4          1           0        5.421456   -0.080815   -0.582212
      5          1           0        4.979296   -0.094507    1.122320
      6          1           0        4.099291   -2.173590   -0.940683
      7          1           0        3.658217   -2.186771    0.763101
      8          1           0        6.085110   -2.405322    1.394846
      9          1           0        6.528690   -2.392065   -0.318618
     10          1           0        5.583570   -3.738031    0.340497
     11          6           0        3.353610    0.397543   -0.204797
     12          6           0        3.533737    1.914821   -0.146427
     13          6           0        2.248437    2.675720   -0.473278
     14          1           0        3.004111    0.115097   -1.207528
     15          1           0        2.561952    0.101404    0.497004
     16          1           0        4.325191    2.207361   -0.848309
     17          1           0        3.884117    2.194179    0.855475
     18          1           0        1.454718    2.412655    0.233410
     19          1           0        1.898298    2.425911   -1.480054
     20          1           0        2.399838    3.758621   -0.425705
     21          6           0       -1.565697    1.951298    0.373364
     22          6           0       -2.322524    1.463877    1.443951
     23          6           0       -3.186148    0.378792    1.267061
     24          6           0       -3.268640   -0.197464    0.000407
     25          6           0       -2.527662    0.265326   -1.085902
     26          6           0       -1.670498    1.351524   -0.885926
     27          1           0       -0.897322    2.794651    0.519743
     28          1           0       -2.243162    1.927698    2.423040
     29          1           0       -3.783588   -0.018705    2.078529
     30          1           0       -2.628140   -0.217804   -2.050220
     31          1           0       -1.083945    1.727950   -1.719175
     32          7           0       -4.179501   -1.346785   -0.199079
     33          8           0       -4.234137   -1.836931   -1.324871
     34          8           0       -4.821552   -1.735712    0.774134
 ---------------------------------------------------------------------

 SCF Done:  E(RHF) =  -669.535344043     A.U. after   15 cycles
 E2 =    -0.2091445142D+01 EUMP2 =    -0.67162678918514D+03

 The electronic state is 1-A.
 Alpha  occ. eigenvalues --  -20.60738 -20.60733 -15.85791 -11.31152 -11.27719
 Alpha  occ. eigenvalues --  -11.27707 -11.27416 -11.26732 -11.26707 -11.22384
 Alpha  occ. eigenvalues --  -11.22188 -11.21970 -11.21919 -11.21805 -11.21318
 Alpha  occ. eigenvalues --   -1.59813  -1.39367  -1.19320  -1.08984  -1.08713
 Alpha  occ. eigenvalues --   -1.04720  -1.04124  -0.96604  -0.95549  -0.87632
 Alpha  occ. eigenvalues --   -0.86113  -0.82385  -0.80206  -0.78750  -0.77431
 Alpha  occ. eigenvalues --   -0.72009  -0.71136  -0.70443  -0.65611  -0.64969
 Alpha  occ. eigenvalues --   -0.64724  -0.62070  -0.61529  -0.59978  -0.58187
 Alpha  occ. eigenvalues --   -0.56007  -0.55151  -0.53297  -0.53155  -0.52920
 Alpha  occ. eigenvalues --   -0.52790  -0.50536  -0.48766  -0.48765  -0.48504
 Alpha  occ. eigenvalues --   -0.47212  -0.46304  -0.46198  -0.44774  -0.44355
 Alpha  occ. eigenvalues --   -0.37276  -0.36324
 Alpha virt. eigenvalues --    0.05066   0.11305   0.16466   0.20457   0.22465
 Alpha virt. eigenvalues --    0.23916   0.25539   0.26029   0.27162   0.27377
 Alpha virt. eigenvalues --    0.29082   0.29654   0.31230   0.31631   0.32105

 Mulliken charges:
               1
     1  C   -0.298827
     2  C   -0.300194
     3  C   -0.476084
     4  H    0.150360
     5  H    0.149969
     6  H    0.152808
     7  H    0.153246
     8  H    0.155345
     9  H    0.155398
    10  H    0.162136
    11  C   -0.299077
    12  C   -0.299165
    13  C   -0.481746
    14  H    0.149438
    15  H    0.151340
    16  H    0.154914
    17  H    0.153724
    18  H    0.151103
    19  H    0.152916
    20  H    0.161799
    21  C   -0.172722
    22  C   -0.219665
    23  C   -0.171104
    24  C    0.158670
    25  C   -0.171355
    26  C   -0.218356
    27  H    0.229235
    28  H    0.223141
    29  H    0.275348
    30  H    0.275394
    31  H    0.225040
    32  N    0.488073
    33  O   -0.460511
    34  O   -0.460592
 Sum of Mulliken charges =  -0.00000

 Dipole moment (field-independent basis, Debye):
    X=              3.3652    Y=              3.9991    Z=              0.7079  Tot=              5.2743
 Quadrupole moment (field-independent basis, Debye-Ang):
   XX=           -116.3530   YY=            -97.5942   ZZ=            -89.2438
   XY=            -13.5323   XZ=             -4.2246   YZ=              0.2952

 Normal termination of Gaussian 16 at Thu May  6 15:34:59 2021.
