 Gaussian 16, Revision A.03,
 Gaussian 16:  EM64L-G16RevA.03 25-Dec-2016

 -------------
 #p 6-31g* mp2
 -------------

 ------------------------------------------------------
 Input file generated by CHIRIPA (05-May-2021 14:51:13)
 ------------------------------------------------------
 Symbolic Z-matrix:
 Charge =  0 Multiplicity = 1

                         Standard orientation:
 ---------------------------------------------------------------------
 Center     Atomic      Atomic             Coordinates (Angstroms)
 Number     Number       Type             X           Y           Z
 ---------------------------------------------------------------------
      1          6           0        3.470850    0.577312    0.227275
      2          6           0        3.512811    1.945353   -0.454404
      3          6           0        2.480627    2.920372    0.112806
      4          1           0        2.463908    0.151524    0.119032
      5          1           0        3.641152    0.707062    1.305031
      6          1           0        3.343856    1.812917   -1.530755
      7          1           0        4.519825    2.367849   -0.344691
      8          1           0        2.650281    3.081943    1.182251
      9          1           0        1.467631    2.523858   -0.010552
     10          1           0        2.528063    3.891963   -0.388811
     11          6           0        4.496918   -0.408393   -0.328871
     12          6           0        4.454957   -1.776434    0.352808
     13          6           0        5.487142   -2.751453   -0.214402
     14          1           0        4.326616   -0.538143   -1.406627
     15          1           0        5.503861    0.017395   -0.220628
     16          1           0        3.447944   -2.198930    0.243095
     17          1           0        4.623913   -1.643998    1.429159
     18          1           0        6.500138   -2.354939   -0.091045
     19          1           0        5.317487   -2.913024   -1.283848
     20          1           0        5.439706   -3.723044    0.287215
     21          6           0       -3.403470    0.387530   -0.103400
     22          6           0       -2.091090   -0.027499    0.562479
     23          6           0       -0.939332    0.926534    0.244563
     24          1           0       -3.255886    0.436877   -1.190934
     25          1           0       -3.666825    1.403255    0.222702
     26          1           0       -1.831004   -1.042671    0.236295
     27          1           0       -2.241866   -0.076049    1.648539
     28          1           0       -1.173438    1.940195    0.585572
     29          1           0       -0.760241    0.968080   -0.834696
     30          1           0       -0.010865    0.611026    0.730633
     31          6           0       -4.564298   -0.556449    0.204996
     32          6           0       -5.876679   -0.141421   -0.460883
     33          6           0       -7.028436   -1.095453   -0.142967
     34          1           0       -4.300943   -1.572174   -0.121105
     35          1           0       -4.711882   -0.605796    1.292529
     36          1           0       -5.725902   -0.092871   -1.546942
     37          1           0       -6.136765    0.873752   -0.134698
     38          1           0       -7.207528   -1.136999    0.936293
     39          1           0       -6.794330   -2.109114   -0.483976
     40          1           0       -7.956903   -0.779945   -0.629037
 ---------------------------------------------------------------------

 SCF Done:  E(RHF) =  -470.732841926     A.U. after   11 cycles
 E2 =    -0.1583053379D+01 EUMP2 =    -0.47231589530537D+03

 The electronic state is 1-A.
 Alpha  occ. eigenvalues --  -11.21641 -11.21618 -11.21583 -11.21515 -11.21431
 Alpha  occ. eigenvalues --  -11.21371 -11.21363 -11.21300 -11.21129 -11.21084
 Alpha  occ. eigenvalues --  -11.21058 -11.20874  -1.08462  -1.08380  -1.03579
 Alpha  occ. eigenvalues --   -1.03456  -0.96043  -0.95897  -0.87082  -0.86902
 Alpha  occ. eigenvalues --   -0.79704  -0.79475  -0.78281  -0.78187  -0.65092
 Alpha  occ. eigenvalues --   -0.65018  -0.60966  -0.60885  -0.59469  -0.59204
 Alpha  occ. eigenvalues --   -0.57635  -0.57526  -0.55314  -0.55210  -0.52802
 Alpha  occ. eigenvalues --   -0.52608  -0.52494  -0.52246  -0.49973  -0.49836
 Alpha  occ. eigenvalues --   -0.47945  -0.47833  -0.46661  -0.46567  -0.45823
 Alpha  occ. eigenvalues --   -0.45738  -0.45732  -0.45665  -0.43752  -0.43696
 Alpha virt. eigenvalues --    0.21899   0.23014   0.23631   0.24729   0.26149
 Alpha virt. eigenvalues --    0.26610   0.27104   0.27172   0.27928   0.29027
 Alpha virt. eigenvalues --    0.30379   0.30904   0.31306   0.31847   0.32190

 Mulliken charges:
               1
     1  C   -0.303176
     2  C   -0.298660
     3  C   -0.485820
     4  H    0.153901
     5  H    0.149002
     6  H    0.151230
     7  H    0.151367
     8  H    0.153773
     9  H    0.169762
    10  H    0.159097
    11  C   -0.297923
    12  C   -0.299627
    13  C   -0.475661
    14  H    0.149375
    15  H    0.149691
    16  H    0.151659
    17  H    0.151842
    18  H    0.155200
    19  H    0.155116
    20  H    0.160139
    21  C   -0.298639
    22  C   -0.300440
    23  C   -0.482391
    24  H    0.149581
    25  H    0.149761
    26  H    0.151796
    27  H    0.152406
    28  H    0.156507
    29  H    0.154702
    30  H    0.166149
    31  C   -0.298318
    32  C   -0.299628
    33  C   -0.475720
    34  H    0.149509
    35  H    0.149759
    36  H    0.151935
    37  H    0.152012
    38  H    0.155229
    39  H    0.155183
    40  H    0.160321
 Sum of Mulliken charges =  -0.00000

 Dipole moment (field-independent basis, Debye):
    X=             -0.0555    Y=             -0.0050    Z=              0.0071  Tot=              0.0562
 Quadrupole moment (field-independent basis, Debye-Ang):
   XX=            -85.7984   YY=            -85.4976   ZZ=            -83.7390
   XY=             -0.0103   XZ=              0.5923   YZ=              0.5395

 Normal termination of Gaussian 16 at Thu May  6 02:23:56 2021.
