 Gaussian 16, Revision A.03,
 Gaussian 16:  EM64L-G16RevA.03 25-Dec-2016

 -------------
 #p 6-31g* mp2
 -------------

 ------------------------------------------------------
 Input file generated by CHIRIPA (05-May-2021 14:57:24)
 ------------------------------------------------------
 Symbolic Z-matrix:
 Charge =  0 Multiplicity = 1

                         Standard orientation:
 ---------------------------------------------------------------------
 Center     Atomic      Atomic             Coordinates (Angstroms)
 Number     Number       Type             X           Y           Z
 ---------------------------------------------------------------------
      1          6           0        4.495799    0.019750   -1.454473
      2          6           0        3.958103    1.163699   -0.855486
      3          6           0        2.985195    1.052113    0.142284
      4          6           0        2.571161   -0.224755    0.518412
      5          6           0        3.087798   -1.383392   -0.059461
      6          6           0        4.059699   -1.247910   -1.055253
      7          1           0        5.251187    0.115714   -2.228796
      8          1           0        4.294891    2.149463   -1.163526
      9          1           0        2.552090    1.921050    0.622687
     10          1           0        2.732128   -2.352535    0.268684
     11          1           0        4.475516   -2.138063   -1.518684
     12          7           0        1.541719   -0.355535    1.573659
     13          8           0        1.193792   -1.491869    1.887234
     14          8           0        1.102263    0.680769    2.067205
     15          6           0       -1.516804    2.408196   -0.269020
     16          6           0       -2.863562    2.342086    0.102993
     17          6           0       -3.551754    1.125738    0.065067
     18          6           0       -2.859159   -0.009970   -0.351790
     19          6           0       -1.517460    0.023641   -0.728624
     20          6           0       -0.849228    1.250804   -0.682912
     21          1           0       -0.989953    3.357284   -0.236533
     22          1           0       -3.384551    3.239319    0.424841
     23          1           0       -4.594466    1.046097    0.347606
     24          1           0       -1.024887   -0.887753   -1.045086
     25          1           0        0.196671    1.299161   -0.972394
     26          7           0       -3.577152   -1.303386   -0.396063
     27          8           0       -2.944370   -2.289604   -0.767007
     28          8           0       -4.759100   -1.306457   -0.058981
 ---------------------------------------------------------------------

 SCF Done:  E(RHF) =  -868.336706409     A.U. after   16 cycles
 E2 =    -0.2603025826D+01 EUMP2 =    -0.87093973223540D+03

 The electronic state is 1-A.
 Alpha  occ. eigenvalues --  -20.61362 -20.61351 -20.60120 -20.60110 -15.86380
 Alpha  occ. eigenvalues --  -15.85171 -11.31962 -11.30499 -11.28568 -11.28445
 Alpha  occ. eigenvalues --  -11.28212 -11.27585 -11.27480 -11.27084 -11.27068
 Alpha  occ. eigenvalues --  -11.26849 -11.26119 -11.26102  -1.60418  -1.59188
 Alpha  occ. eigenvalues --   -1.39967  -1.38746  -1.20133  -1.18667  -1.09468
 Alpha  occ. eigenvalues --   -1.08079  -1.05541  -1.04103  -0.96275  -0.94927
 Alpha  occ. eigenvalues --   -0.86921  -0.85508  -0.83092  -0.81791  -0.78134
 Alpha  occ. eigenvalues --   -0.76837  -0.72602  -0.71778  -0.71403  -0.71179
 Alpha  occ. eigenvalues --   -0.70496  -0.69828  -0.65753  -0.65504  -0.64354
 Alpha  occ. eigenvalues --   -0.64168  -0.62861  -0.61480  -0.55977  -0.54653
 Alpha  occ. eigenvalues --   -0.53889  -0.53597  -0.52372  -0.52202  -0.49387
 Alpha  occ. eigenvalues --   -0.49356  -0.48156  -0.48152  -0.45315  -0.44162
 Alpha  occ. eigenvalues --   -0.38091  -0.37158  -0.36591  -0.35638
 Alpha virt. eigenvalues --    0.04354   0.05743   0.10361   0.12018   0.15885
 Alpha virt. eigenvalues --    0.17224   0.20634   0.21922   0.26477   0.27361
 Alpha virt. eigenvalues --    0.27860   0.28820   0.30501   0.31466   0.31792

 Mulliken charges:
               1
     1  C   -0.170998
     2  C   -0.218560
     3  C   -0.181817
     4  C    0.155566
     5  C   -0.172441
     6  C   -0.217467
     7  H    0.228671
     8  H    0.224726
     9  H    0.273282
    10  H    0.280884
    11  H    0.227921
    12  N    0.488196
    13  O   -0.453769
    14  O   -0.458333
    15  C   -0.165606
    16  C   -0.217207
    17  C   -0.170151
    18  C    0.161624
    19  C   -0.171473
    20  C   -0.214406
    21  H    0.220110
    22  H    0.221164
    23  H    0.274069
    24  H    0.272577
    25  H    0.218110
    26  N    0.488668
    27  O   -0.461150
    28  O   -0.462191
 Sum of Mulliken charges =  -0.00000

 Dipole moment (field-independent basis, Debye):
    X=              6.3532    Y=              4.8445    Z=             -3.4243  Tot=              8.6924
 Quadrupole moment (field-independent basis, Debye-Ang):
   XX=            -97.4594   YY=            -99.5796   ZZ=           -109.6634
   XY=            -15.5851   XZ=            -11.1615   YZ=              0.8656

 Normal termination of Gaussian 16 at Thu May  6 17:59:56 2021.
