 Gaussian 16, Revision A.03,
 Gaussian 16:  EM64L-G16RevA.03 25-Dec-2016

 -------------
 #p 6-31g* mp2
 -------------

 ------------------------------------------------------
 Input file generated by CHIRIPA (05-May-2021 14:57:26)
 ------------------------------------------------------
 Symbolic Z-matrix:
 Charge =  0 Multiplicity = 1

                         Standard orientation:
 ---------------------------------------------------------------------
 Center     Atomic      Atomic             Coordinates (Angstroms)
 Number     Number       Type             X           Y           Z
 ---------------------------------------------------------------------
      1          6           0        4.760462   -1.467468   -0.861890
      2          6           0        3.454763   -1.852086   -0.539805
      3          6           0        2.519985   -0.903897   -0.113571
      4          6           0        2.926808    0.426180   -0.020405
      5          6           0        4.220306    0.840572   -0.334144
      6          6           0        5.138400   -0.124734   -0.758214
      7          1           0        5.480140   -2.210693   -1.192158
      8          1           0        3.158451   -2.894157   -0.619384
      9          1           0        1.502624   -1.174136    0.142095
     10          1           0        4.486180    1.886886   -0.244945
     11          1           0        6.151739    0.176850   -1.007687
     12          7           0        1.946031    1.439046    0.429684
     13          8           0        2.329352    2.604492    0.503429
     14          8           0        0.812549    1.048306    0.700196
     15          6           0       -4.444789    0.838951   -1.727565
     16          6           0       -4.169350   -0.531041   -1.789008
     17          6           0       -3.418823   -1.150093   -0.784999
     18          6           0       -2.957326   -0.365418    0.270745
     19          6           0       -3.215101    1.001638    0.360193
     20          6           0       -3.967626    1.599578   -0.655052
     21          1           0       -5.028592    1.311646   -2.511867
     22          1           0       -4.538634   -1.124237   -2.620749
     23          1           0       -3.190895   -2.208844   -0.807655
     24          1           0       -2.833421    1.566802    1.201816
     25          1           0       -4.179995    2.663726   -0.604724
     26          7           0       -2.161719   -1.009605    1.339591
     27          8           0       -1.766585   -0.296217    2.259147
     28          8           0       -1.948320   -2.215709    1.237557
 ---------------------------------------------------------------------

 SCF Done:  E(RHF) =  -868.338608296     A.U. after   16 cycles
 E2 =    -0.2599917690D+01 EUMP2 =    -0.87093852598588D+03

 The electronic state is 1-A.
 Alpha  occ. eigenvalues --  -20.60385 -20.60328 -20.60148 -20.59995 -15.85398
 Alpha  occ. eigenvalues --  -15.85105 -11.30740 -11.30458 -11.27354 -11.27247
 Alpha  occ. eigenvalues --  -11.27130 -11.27090 -11.26952 -11.26852 -11.26372
 Alpha  occ. eigenvalues --  -11.26297 -11.26147 -11.26030  -1.59431  -1.59130
 Alpha  occ. eigenvalues --   -1.38984  -1.38680  -1.18923  -1.18650  -1.08332
 Alpha  occ. eigenvalues --   -1.08059  -1.04317  -1.04061  -0.95166  -0.94891
 Alpha  occ. eigenvalues --   -0.85721  -0.85461  -0.82001  -0.81724  -0.77044
 Alpha  occ. eigenvalues --   -0.76754  -0.71693  -0.71331  -0.70746  -0.70363
 Alpha  occ. eigenvalues --   -0.70033  -0.69786  -0.64577  -0.64328  -0.64312
 Alpha  occ. eigenvalues --   -0.64085  -0.61653  -0.61405  -0.54845  -0.54601
 Alpha  occ. eigenvalues --   -0.52660  -0.52412  -0.52381  -0.52164  -0.48407
 Alpha  occ. eigenvalues --   -0.48390  -0.48123  -0.48060  -0.44426  -0.44022
 Alpha  occ. eigenvalues --   -0.36924  -0.36646  -0.35921  -0.35654
 Alpha virt. eigenvalues --    0.05465   0.05820   0.11729   0.11995   0.16968
 Alpha virt. eigenvalues --    0.17261   0.21823   0.22062   0.27752   0.27956
 Alpha virt. eigenvalues --    0.28617   0.29018   0.31234   0.31618   0.32917

 Mulliken charges:
               1
     1  C   -0.171046
     2  C   -0.219597
     3  C   -0.171014
     4  C    0.157879
     5  C   -0.171491
     6  C   -0.219039
     7  H    0.224180
     8  H    0.225089
     9  H    0.282483
    10  H    0.273854
    11  H    0.221561
    12  N    0.489307
    13  O   -0.464667
    14  O   -0.458651
    15  C   -0.171125
    16  C   -0.219400
    17  C   -0.173364
    18  C    0.159598
    19  C   -0.162032
    20  C   -0.219606
    21  H    0.222950
    22  H    0.219517
    23  H    0.270671
    24  H    0.283021
    25  H    0.223394
    26  N    0.488912
    27  O   -0.447051
    28  O   -0.474334
 Sum of Mulliken charges =  -0.00000

 Dipole moment (field-independent basis, Debye):
    X=              0.6631    Y=             -1.1337    Z=             -5.1289  Tot=              5.2944
 Quadrupole moment (field-independent basis, Debye-Ang):
   XX=            -67.7982   YY=           -103.9920   ZZ=           -107.0704
   XY=            -12.4781   XZ=              5.2682   YZ=              3.5916

 Normal termination of Gaussian 16 at Thu May  6 09:55:27 2021.
