 Gaussian 16, Revision A.03,
 Gaussian 16:  EM64L-G16RevA.03 25-Dec-2016

 -------------
 #p 6-31g* mp2
 -------------

 ------------------------------------------------------
 Input file generated by CHIRIPA (05-May-2021 14:57:26)
 ------------------------------------------------------
 Symbolic Z-matrix:
 Charge =  0 Multiplicity = 1

                         Standard orientation:
 ---------------------------------------------------------------------
 Center     Atomic      Atomic             Coordinates (Angstroms)
 Number     Number       Type             X           Y           Z
 ---------------------------------------------------------------------
      1          6           0       -1.082771   -1.006030    1.652238
      2          6           0       -1.853429   -1.982994    1.013372
      3          6           0       -2.923911   -1.617767    0.191651
      4          6           0       -3.196904   -0.260292    0.030324
      5          6           0       -2.447595    0.736577    0.653284
      6          6           0       -1.381787    0.348250    1.470476
      7          1           0       -0.253010   -1.298719    2.288812
      8          1           0       -1.623514   -3.035501    1.152703
      9          1           0       -3.536866   -2.353367   -0.314902
     10          1           0       -2.701075    1.777803    0.495127
     11          1           0       -0.784997    1.109145    1.965374
     12          7           0       -4.327702    0.138585   -0.837198
     13          8           0       -4.547702    1.341247   -0.963062
     14          8           0       -4.972608   -0.758990   -1.374870
     15          6           0        1.474308    2.173190    0.597369
     16          6           0        1.739549    2.006396   -0.765842
     17          6           0        2.589154    0.986339   -1.204250
     18          6           0        3.159052    0.147456   -0.247808
     19          6           0        2.914281    0.288128    1.117325
     20          6           0        2.061485    1.315037    1.532953
     21          1           0        0.813075    2.968257    0.929088
     22          1           0        1.284938    2.671359   -1.494676
     23          1           0        2.811697    0.834705   -2.253488
     24          1           0        3.382197   -0.390446    1.820184
     25          1           0        1.857299    1.442212    2.592283
     26          7           0        4.060179   -0.936060   -0.699873
     27          8           0        4.549818   -1.661858    0.162745
     28          8           0        4.259783   -1.039007   -1.908259
 ---------------------------------------------------------------------

 SCF Done:  E(RHF) =  -868.335040432     A.U. after   16 cycles
 E2 =    -0.2603059695D+01 EUMP2 =    -0.87093810012723D+03

 The electronic state is 1-A.
 Alpha  occ. eigenvalues --  -20.61425 -20.61408 -20.61112 -20.61095 -15.86479
 Alpha  occ. eigenvalues --  -15.86160 -11.31980 -11.31542 -11.28639 -11.28520
 Alpha  occ. eigenvalues --  -11.28393 -11.28145 -11.28046 -11.27820 -11.27711
 Alpha  occ. eigenvalues --  -11.27535 -11.27159 -11.27071  -1.60493  -1.60181
 Alpha  occ. eigenvalues --   -1.40043  -1.39735  -1.20189  -1.19703  -1.09589
 Alpha  occ. eigenvalues --   -1.09087  -1.05616  -1.05122  -0.96384  -0.95931
 Alpha  occ. eigenvalues --   -0.87055  -0.86496  -0.83216  -0.82767  -0.78219
 Alpha  occ. eigenvalues --   -0.77830  -0.72697  -0.72378  -0.71820  -0.71505
 Alpha  occ. eigenvalues --   -0.71355  -0.70816  -0.65903  -0.65697  -0.65360
 Alpha  occ. eigenvalues --   -0.65082  -0.62957  -0.62482  -0.56166  -0.55610
 Alpha  occ. eigenvalues --   -0.54183  -0.53710  -0.53339  -0.53052  -0.49466
 Alpha  occ. eigenvalues --   -0.49440  -0.49141  -0.49129  -0.45419  -0.45138
 Alpha  occ. eigenvalues --   -0.38426  -0.37674  -0.37095  -0.36486
 Alpha virt. eigenvalues --    0.04179   0.04820   0.10152   0.11115   0.15505
 Alpha virt. eigenvalues --    0.16435   0.18920   0.22181   0.25509   0.25804
 Alpha virt. eigenvalues --    0.28528   0.28875   0.30100   0.30605   0.32008

 Mulliken charges:
               1
     1  C   -0.169930
     2  C   -0.217945
     3  C   -0.170928
     4  C    0.159198
     5  C   -0.175004
     6  C   -0.206213
     7  H    0.223343
     8  H    0.226609
     9  H    0.277154
    10  H    0.270611
    11  H    0.211102
    12  N    0.488029
    13  O   -0.462334
    14  O   -0.458314
    15  C   -0.170826
    16  C   -0.215918
    17  C   -0.168387
    18  C    0.159780
    19  C   -0.173146
    20  C   -0.224934
    21  H    0.223947
    22  H    0.228969
    23  H    0.279623
    24  H    0.275337
    25  H    0.219934
    26  N    0.487856
    27  O   -0.460761
    28  O   -0.456853
 Sum of Mulliken charges =  -0.00000

 Dipole moment (field-independent basis, Debye):
    X=              0.9564    Y=              2.2991    Z=              4.3836  Tot=              5.0414
 Quadrupole moment (field-independent basis, Debye-Ang):
   XX=           -151.3955   YY=            -98.4036   ZZ=           -101.6610
   XY=             16.2989   XZ=             -3.2426   YZ=             -2.4190

 Normal termination of Gaussian 16 at Thu May  6 09:57:04 2021.
