 Gaussian 16, Revision A.03,
 Gaussian 16:  EM64L-G16RevA.03 25-Dec-2016

 -------------
 #p 6-31g* mp2
 -------------

 ------------------------------------------------------
 Input file generated by CHIRIPA (05-May-2021 14:55:20)
 ------------------------------------------------------
 Symbolic Z-matrix:
 Charge =  0 Multiplicity = 1

                         Standard orientation:
 ---------------------------------------------------------------------
 Center     Atomic      Atomic             Coordinates (Angstroms)
 Number     Number       Type             X           Y           Z
 ---------------------------------------------------------------------
      1          6           0        5.321354    0.387280    0.804213
      2          6           0        5.198765   -0.567957   -0.210190
      3          6           0        3.939252   -0.924975   -0.700816
      4          6           0        2.818441   -0.304046   -0.151708
      5          6           0        2.907930    0.651179    0.859641
      6          6           0        4.177562    0.992732    1.334956
      7          1           0        6.303704    0.658614    1.179396
      8          1           0        6.085312   -1.039796   -0.624251
      9          1           0        3.815538   -1.661402   -1.485538
     10          1           0        2.005875    1.104279    1.252598
     11          1           0        4.269746    1.734906    2.122817
     12          7           0        1.479695   -0.673819   -0.663007
     13          8           0        0.507710   -0.112213   -0.162526
     14          8           0        1.427720   -1.518251   -1.554561
     15          6           0       -3.800398   -0.386921    0.383083
     16          6           0       -5.048955   -1.261463    0.263637
     17          6           0       -4.854035   -2.655013    0.861812
     18          1           0       -2.960316   -0.887970   -0.117075
     19          1           0       -3.524419   -0.296734    1.442845
     20          1           0       -5.323303   -1.348836   -0.795475
     21          1           0       -5.886208   -0.758185    0.763970
     22          1           0       -4.602877   -2.586108    1.925191
     23          1           0       -4.036772   -3.180114    0.356885
     24          1           0       -5.758779   -3.263329    0.765635
     25          6           0       -3.979654    1.009263   -0.210437
     26          6           0       -2.731097    1.883805   -0.090990
     27          6           0       -2.926017    3.277356   -0.689167
     28          1           0       -4.255633    0.919077   -1.270200
     29          1           0       -4.819736    1.510312    0.289721
     30          1           0       -1.893843    1.380527   -0.591324
     31          1           0       -2.456750    1.971178    0.968121
     32          1           0       -3.743280    3.802457   -0.184238
     33          1           0       -3.177176    3.208450   -1.752544
     34          1           0       -2.021273    3.885671   -0.592989
 ---------------------------------------------------------------------

 SCF Done:  E(RHF) =  -669.536238595     A.U. after   15 cycles
 E2 =    -0.2091015127D+01 EUMP2 =    -0.67162725372175D+03

 The electronic state is 1-A.
 Alpha  occ. eigenvalues --  -20.60985 -20.60974 -15.86010 -11.31313 -11.27874
 Alpha  occ. eigenvalues --  -11.27868 -11.27610 -11.26878 -11.26868 -11.20612
 Alpha  occ. eigenvalues --  -11.20253 -11.20197 -11.20191 -11.20120 -11.20090
 Alpha  occ. eigenvalues --   -1.60043  -1.39598  -1.19480  -1.08889  -1.07261
 Alpha  occ. eigenvalues --   -1.04873  -1.02456  -0.95733  -0.94942  -0.86274
 Alpha  occ. eigenvalues --   -0.85961  -0.82569  -0.78498  -0.77624  -0.77032
 Alpha  occ. eigenvalues --   -0.72231  -0.71354  -0.70588  -0.65136  -0.64876
 Alpha  occ. eigenvalues --   -0.63888  -0.62219  -0.59854  -0.58309  -0.56541
 Alpha  occ. eigenvalues --   -0.55379  -0.54238  -0.53206  -0.52964  -0.51674
 Alpha  occ. eigenvalues --   -0.51363  -0.49028  -0.48992  -0.48871  -0.46823
 Alpha  occ. eigenvalues --   -0.45532  -0.44994  -0.44614  -0.44408  -0.42691
 Alpha  occ. eigenvalues --   -0.37458  -0.36473
 Alpha virt. eigenvalues --    0.04892   0.11182   0.16382   0.21303   0.24004
 Alpha virt. eigenvalues --    0.25285   0.27229   0.27827   0.28013   0.28823
 Alpha virt. eigenvalues --    0.29038   0.30900   0.32320   0.32403   0.32793

 Mulliken charges:
               1
     1  C   -0.170526
     2  C   -0.218615
     3  C   -0.170538
     4  C    0.157613
     5  C   -0.170796
     6  C   -0.218573
     7  H    0.226070
     8  H    0.223855
     9  H    0.275820
    10  H    0.276253
    11  H    0.223950
    12  N    0.491979
    13  O   -0.463268
    14  O   -0.459484
    15  C   -0.300893
    16  C   -0.298852
    17  C   -0.475268
    18  H    0.166099
    19  H    0.145618
    20  H    0.150609
    21  H    0.147648
    22  H    0.152748
    23  H    0.158177
    24  H    0.156316
    25  C   -0.297335
    26  C   -0.307779
    27  C   -0.474664
    28  H    0.147402
    29  H    0.143267
    30  H    0.179033
    31  H    0.145478
    32  H    0.150170
    33  H    0.153484
    34  H    0.155001
 Sum of Mulliken charges =  -0.00000

 Dipole moment (field-independent basis, Debye):
    X=              5.0860    Y=              1.1671    Z=              1.7292  Tot=              5.4972
 Quadrupole moment (field-independent basis, Debye-Ang):
   XX=            -69.0850   YY=            -95.7346   ZZ=            -93.1912
   XY=              0.9695   XZ=              2.9363   YZ=              2.5655

 Normal termination of Gaussian 16 at Thu May  6 06:09:25 2021.
