 Gaussian 16, Revision A.03,
 Gaussian 16:  EM64L-G16RevA.03 25-Dec-2016

 -------------
 #p 6-31g* mp2
 -------------

 ------------------------------------------------------
 Input file generated by CHIRIPA (05-May-2021 14:53:12)
 ------------------------------------------------------
 Symbolic Z-matrix:
 Charge =  0 Multiplicity = 1

                         Standard orientation:
 ---------------------------------------------------------------------
 Center     Atomic      Atomic             Coordinates (Angstroms)
 Number     Number       Type             X           Y           Z
 ---------------------------------------------------------------------
      1          6           0       -3.313363   -0.112755    0.098640
      2          6           0       -2.216511   -0.958645   -0.548948
      3          6           0       -0.810452   -0.508278   -0.151506
      4          1           0       -3.170505    0.939476   -0.183047
      5          1           0       -3.207002   -0.161050    1.191229
      6          1           0       -2.325752   -0.909884   -1.639959
      7          1           0       -2.362110   -2.009011   -0.265842
      8          1           0       -0.677170   -0.573745    0.933184
      9          1           0       -0.640605    0.531628   -0.448741
     10          1           0       -0.041828   -1.126523   -0.625689
     11          6           0       -4.724587   -0.550774   -0.289062
     12          6           0       -5.821439    0.295117    0.358526
     13          6           0       -7.227499   -0.155250   -0.038917
     14          1           0       -4.830948   -0.502479   -1.381651
     15          1           0       -4.867446   -1.603004   -0.007375
     16          1           0       -5.675840    1.345482    0.075420
     17          1           0       -5.712199    0.246355    1.449537
     18          1           0       -7.397345   -1.195156    0.258319
     19          1           0       -7.360781   -0.089784   -1.123606
     20          1           0       -7.996123    0.462995    0.435267
     21          6           0        1.742144    2.358848    0.136466
     22          6           0        2.431966    2.011359   -1.029689
     23          6           0        3.209393    0.850300   -1.075473
     24          6           0        3.274947    0.056204    0.068382
     25          6           0        2.599305    0.375565    1.245159
     26          6           0        1.827863    1.541283    1.268173
     27          1           0        1.140545    3.262595    0.163188
     28          1           0        2.367231    2.644397   -1.910096
     29          1           0        3.753705    0.557595   -1.965117
     30          1           0        2.683182   -0.275422    2.106901
     31          1           0        1.293216    1.808664    2.175204
     32          7           0        4.094806   -1.175424    0.031966
     33          8           0        4.136226   -1.858186    1.053120
     34          8           0        4.680466   -1.434690   -1.017043
 ---------------------------------------------------------------------

 SCF Done:  E(RHF) =  -669.534647362     A.U. after   15 cycles
 E2 =    -0.2092859449D+01 EUMP2 =    -0.67162750681098D+03

 The electronic state is 1-A.
 Alpha  occ. eigenvalues --  -20.60760 -20.60755 -15.85813 -11.31175 -11.27738
 Alpha  occ. eigenvalues --  -11.27726 -11.27471 -11.26764 -11.26737 -11.21853
 Alpha  occ. eigenvalues --  -11.21746 -11.21668 -11.21594 -11.21279 -11.21159
 Alpha  occ. eigenvalues --   -1.59836  -1.39389  -1.19346  -1.08753  -1.08657
 Alpha  occ. eigenvalues --   -1.04750  -1.03726  -0.96178  -0.95583  -0.87197
 Alpha  occ. eigenvalues --   -0.86150  -0.82414  -0.79797  -0.78487  -0.77458
 Alpha  occ. eigenvalues --   -0.72032  -0.71159  -0.70464  -0.65296  -0.65003
 Alpha  occ. eigenvalues --   -0.64758  -0.62099  -0.61130  -0.59549  -0.57806
 Alpha  occ. eigenvalues --   -0.55491  -0.55260  -0.53536  -0.52848  -0.52739
 Alpha  occ. eigenvalues --   -0.52271  -0.50123  -0.48791  -0.48786  -0.48104
 Alpha  occ. eigenvalues --   -0.46837  -0.46019  -0.45958  -0.44795  -0.43982
 Alpha  occ. eigenvalues --   -0.37266  -0.36293
 Alpha virt. eigenvalues --    0.05047   0.11304   0.16483   0.21278   0.22654
 Alpha virt. eigenvalues --    0.24098   0.26333   0.26977   0.27356   0.27956
 Alpha virt. eigenvalues --    0.28285   0.30726   0.31388   0.31655   0.31739

 Mulliken charges:
               1
     1  C   -0.297426
     2  C   -0.301362
     3  C   -0.472755
     4  H    0.145546
     5  H    0.147909
     6  H    0.151536
     7  H    0.153729
     8  H    0.149610
     9  H    0.153102
    10  H    0.162980
    11  C   -0.298207
    12  C   -0.299523
    13  C   -0.475784
    14  H    0.149892
    15  H    0.151203
    16  H    0.150414
    17  H    0.151549
    18  H    0.156124
    19  H    0.155469
    20  H    0.160318
    21  C   -0.172286
    22  C   -0.217440
    23  C   -0.171351
    24  C    0.159394
    25  C   -0.169378
    26  C   -0.212522
    27  H    0.225327
    28  H    0.223209
    29  H    0.275436
    30  H    0.275303
    31  H    0.223301
    32  N    0.487699
    33  O   -0.460407
    34  O   -0.460607
 Sum of Mulliken charges =  -0.00000

 Dipole moment (field-independent basis, Debye):
    X=             -2.8465    Y=              4.3400    Z=              0.1331  Tot=              5.1919
 Quadrupole moment (field-independent basis, Debye-Ang):
   XX=           -115.4277   YY=            -94.3579   ZZ=            -89.7213
   XY=             14.3370   XZ=             -1.3170   YZ=             -1.2987

 Normal termination of Gaussian 16 at Thu May  6 13:39:22 2021.
