 Gaussian 16, Revision A.03,
 Gaussian 16:  EM64L-G16RevA.03 25-Dec-2016

 -------------
 #p 6-31g* mp2
 -------------

 ------------------------------------------------------
 Input file generated by CHIRIPA (05-May-2021 14:55:19)
 ------------------------------------------------------
 Symbolic Z-matrix:
 Charge =  0 Multiplicity = 1

                         Standard orientation:
 ---------------------------------------------------------------------
 Center     Atomic      Atomic             Coordinates (Angstroms)
 Number     Number       Type             X           Y           Z
 ---------------------------------------------------------------------
      1          6           0        5.214419    0.674306    0.732361
      2          6           0        5.143169   -0.707086    0.524515
      3          6           0        3.958551   -1.297114    0.073856
      4          6           0        2.859469   -0.472106   -0.159961
      5          6           0        2.899138    0.907257    0.037710
      6          6           0        4.094151    1.475656    0.488724
      7          1           0        6.138697    1.124253    1.082581
      8          1           0        6.011606   -1.331885    0.712901
      9          1           0        3.875757   -2.363853   -0.095355
     10          1           0        2.016803    1.504161   -0.158779
     11          1           0        4.146588    2.548745    0.649269
     12          7           0        1.599864   -1.085294   -0.637241
     13          8           0        0.645616   -0.336571   -0.835891
     14          8           0        1.590685   -2.303022   -0.803647
     15          6           0       -3.262393    0.818493    0.262912
     16          6           0       -3.015082    2.075196   -0.572263
     17          6           0       -1.683814    2.751293   -0.243001
     18          1           0       -3.237894    1.083602    1.328775
     19          1           0       -2.439339    0.109376    0.098199
     20          1           0       -3.839063    2.781162   -0.407086
     21          1           0       -3.040364    1.807099   -1.636266
     22          1           0       -0.848791    2.067154   -0.425459
     23          1           0       -1.652028    3.046751    0.810704
     24          1           0       -1.527350    3.647457   -0.851498
     25          6           0       -4.589298    0.131384   -0.054787
     26          6           0       -4.836610   -1.125320    0.780389
     27          6           0       -6.167877   -1.801416    0.451126
     28          1           0       -5.412352    0.840500    0.109927
     29          1           0       -4.613798   -0.133725   -1.120649
     30          1           0       -4.811328   -0.857223    1.844391
     31          1           0       -4.012629   -1.831286    0.615212
     32          1           0       -6.199664   -2.096875   -0.602579
     33          1           0       -7.002901   -1.117278    0.633584
     34          1           0       -6.324341   -2.697580    1.059624
 ---------------------------------------------------------------------

 SCF Done:  E(RHF) =  -669.536554421     A.U. after   15 cycles
 E2 =    -0.2091394853D+01 EUMP2 =    -0.67162794927407D+03

 The electronic state is 1-A.
 Alpha  occ. eigenvalues --  -20.61008 -20.61002 -15.86039 -11.31306 -11.27866
 Alpha  occ. eigenvalues --  -11.27856 -11.27597 -11.26864 -11.26851 -11.20769
 Alpha  occ. eigenvalues --  -11.20722 -11.20486 -11.20378 -11.20273 -11.20266
 Alpha  occ. eigenvalues --   -1.60065  -1.39623  -1.19471  -1.08886  -1.07504
 Alpha  occ. eigenvalues --   -1.04860  -1.02689  -0.95737  -0.95150  -0.86265
 Alpha  occ. eigenvalues --   -0.86179  -0.82575  -0.78769  -0.77639  -0.77295
 Alpha  occ. eigenvalues --   -0.72270  -0.71372  -0.70582  -0.65133  -0.64864
 Alpha  occ. eigenvalues --   -0.64111  -0.62211  -0.60068  -0.58523  -0.56765
 Alpha  occ. eigenvalues --   -0.55369  -0.54421  -0.53195  -0.52953  -0.51894
 Alpha  occ. eigenvalues --   -0.51590  -0.49232  -0.49009  -0.48855  -0.47082
 Alpha  occ. eigenvalues --   -0.45769  -0.45099  -0.44870  -0.44649  -0.42928
 Alpha  occ. eigenvalues --   -0.37450  -0.36459
 Alpha virt. eigenvalues --    0.04887   0.11195   0.16384   0.20946   0.23763
 Alpha virt. eigenvalues --    0.24658   0.26156   0.27492   0.27802   0.28610
 Alpha virt. eigenvalues --    0.29225   0.30441   0.31564   0.32388   0.32644

 Mulliken charges:
               1
     1  C   -0.170233
     2  C   -0.218793
     3  C   -0.170481
     4  C    0.156841
     5  C   -0.171179
     6  C   -0.219904
     7  H    0.226088
     8  H    0.223827
     9  H    0.275731
    10  H    0.280067
    11  H    0.224525
    12  N    0.494429
    13  O   -0.468502
    14  O   -0.458712
    15  C   -0.305546
    16  C   -0.295530
    17  C   -0.489863
    18  H    0.143534
    19  H    0.170401
    20  H    0.146679
    21  H    0.153913
    22  H    0.175558
    23  H    0.148542
    24  H    0.153340
    25  C   -0.297647
    26  C   -0.300155
    27  C   -0.475241
    28  H    0.145095
    29  H    0.150650
    30  H    0.148941
    31  H    0.157283
    32  H    0.155365
    33  H    0.152667
    34  H    0.158311
 Sum of Mulliken charges =  -0.00000

 Dipole moment (field-independent basis, Debye):
    X=              4.7246    Y=              1.9725    Z=              1.6130  Tot=              5.3679
 Quadrupole moment (field-independent basis, Debye-Ang):
   XX=            -70.4212   YY=            -93.5550   ZZ=            -95.7942
   XY=              1.5255   XZ=              4.1440   YZ=             -0.8522

 Normal termination of Gaussian 16 at Wed May  5 20:30:50 2021.
