 Gaussian 16, Revision A.03,
 Gaussian 16:  EM64L-G16RevA.03 25-Dec-2016

 -------------
 #p 6-31g* mp2
 -------------

 ------------------------------------------------------
 Input file generated by CHIRIPA (05-May-2021 14:53:15)
 ------------------------------------------------------
 Symbolic Z-matrix:
 Charge =  0 Multiplicity = 1

                         Standard orientation:
 ---------------------------------------------------------------------
 Center     Atomic      Atomic             Coordinates (Angstroms)
 Number     Number       Type             X           Y           Z
 ---------------------------------------------------------------------
      1          6           0       -4.189117    0.114703   -0.383475
      2          6           0       -4.422143   -1.142289    0.455367
      3          6           0       -5.584586   -1.990621   -0.061211
      4          1           0       -5.108084    0.716652   -0.393559
      5          1           0       -3.996002   -0.178387   -1.424725
      6          1           0       -4.613392   -0.846984    1.494999
      7          1           0       -3.502454   -1.741221    0.463613
      8          1           0       -5.398146   -2.313631   -1.090534
      9          1           0       -6.515396   -1.414313   -0.053288
     10          1           0       -5.733539   -2.884133    0.553043
     11          6           0       -3.030284    0.973112    0.120477
     12          6           0       -2.797257    2.230104   -0.718365
     13          6           0       -1.634814    3.078436   -0.201787
     14          1           0       -3.223398    1.266202    1.161726
     15          1           0       -2.111317    0.371163    0.130561
     16          1           0       -3.716946    2.829036   -0.726611
     17          1           0       -2.606009    1.934799   -1.757998
     18          1           0       -0.704004    2.502128   -0.209711
     19          1           0       -1.821254    3.401446    0.827536
     20          1           0       -1.485861    3.971948   -0.816042
     21          6           0        5.157002    0.462353   -0.239971
     22          6           0        4.754220   -0.714460   -0.879816
     23          6           0        3.461799   -1.215310   -0.697210
     24          6           0        2.594153   -0.510706    0.135865
     25          6           0        2.965789    0.664426    0.787203
     26          6           0        4.263077    1.146833    0.590033
     27          1           0        6.162875    0.844262   -0.387481
     28          1           0        5.446327   -1.248129   -1.524974
     29          1           0        3.123802   -2.124024   -1.180341
     30          1           0        2.253453    1.174351    1.424362
     31          1           0        4.573139    2.061005    1.088225
     32          7           0        1.223349   -1.031172    0.336890
     33          8           0        0.477871   -0.391789    1.075869
     34          8           0        0.920346   -2.068642   -0.248330
 ---------------------------------------------------------------------

 SCF Done:  E(RHF) =  -669.536607868     A.U. after   15 cycles
 E2 =    -0.2091477540D+01 EUMP2 =    -0.67162808540813D+03

 The electronic state is 1-A.
 Alpha  occ. eigenvalues --  -20.61083 -20.61063 -15.86080 -11.31353 -11.27909
 Alpha  occ. eigenvalues --  -11.27901 -11.27637 -11.26904 -11.26893 -11.20643
 Alpha  occ. eigenvalues --  -11.20380 -11.20308 -11.20211 -11.20098 -11.19911
 Alpha  occ. eigenvalues --   -1.60124  -1.39680  -1.19515  -1.08930  -1.07252
 Alpha  occ. eigenvalues --   -1.04902  -1.02496  -0.95779  -0.94951  -0.86305
 Alpha  occ. eigenvalues --   -0.85981  -0.82613  -0.78548  -0.77675  -0.77016
 Alpha  occ. eigenvalues --   -0.72298  -0.71429  -0.70622  -0.65171  -0.64904
 Alpha  occ. eigenvalues --   -0.63878  -0.62248  -0.59902  -0.58323  -0.56555
 Alpha  occ. eigenvalues --   -0.55410  -0.54244  -0.53237  -0.52992  -0.51711
 Alpha  occ. eigenvalues --   -0.51388  -0.49148  -0.49067  -0.48832  -0.46879
 Alpha  occ. eigenvalues --   -0.45620  -0.45161  -0.44588  -0.44256  -0.42699
 Alpha  occ. eigenvalues --   -0.37491  -0.36499
 Alpha virt. eigenvalues --    0.04808   0.11140   0.16298   0.21232   0.24005
 Alpha virt. eigenvalues --    0.25154   0.27040   0.27620   0.28059   0.28885
 Alpha virt. eigenvalues --    0.29107   0.30796   0.31776   0.32543   0.32825

 Mulliken charges:
               1
     1  C   -0.297114
     2  C   -0.301192
     3  C   -0.475047
     4  H    0.143558
     5  H    0.147039
     6  H    0.149389
     7  H    0.163950
     8  H    0.153772
     9  H    0.151259
    10  H    0.158146
    11  C   -0.309156
    12  C   -0.298305
    13  C   -0.475116
    14  H    0.145615
    15  H    0.177858
    16  H    0.147338
    17  H    0.148667
    18  H    0.156365
    19  H    0.153218
    20  H    0.153566
    21  C   -0.170392
    22  C   -0.218584
    23  C   -0.170647
    24  C    0.157817
    25  C   -0.171289
    26  C   -0.218467
    27  H    0.226277
    28  H    0.224014
    29  H    0.275848
    30  H    0.276939
    31  H    0.224339
    32  N    0.488193
    33  O   -0.459014
    34  O   -0.458843
 Sum of Mulliken charges =  -0.00000

 Dipole moment (field-independent basis, Debye):
    X=              5.1932    Y=              1.6408    Z=             -0.6279  Tot=              5.4823
 Quadrupole moment (field-independent basis, Debye-Ang):
   XX=            -71.5074   YY=            -94.9132   ZZ=            -93.4884
   XY=              0.9326   XZ=             -2.7829   YZ=              3.6579

 Normal termination of Gaussian 16 at Wed May  5 18:41:47 2021.
