 Gaussian 16, Revision A.03,
 Gaussian 16:  EM64L-G16RevA.03 25-Dec-2016

 -------------
 #p 6-31g* mp2
 -------------

 ------------------------------------------------------
 Input file generated by CHIRIPA (05-May-2021 14:51:09)
 ------------------------------------------------------
 Symbolic Z-matrix:
 Charge =  0 Multiplicity = 1

                         Standard orientation:
 ---------------------------------------------------------------------
 Center     Atomic      Atomic             Coordinates (Angstroms)
 Number     Number       Type             X           Y           Z
 ---------------------------------------------------------------------
      1          6           0       -4.594877   -0.058247    0.322301
      2          6           0       -5.732919   -0.724762   -0.451393
      3          6           0       -7.108630   -0.422425    0.143422
      4          1           0       -4.625456   -0.393378    1.368101
      5          1           0       -4.758133    1.028269    0.337353
      6          1           0       -5.566833   -1.809572   -0.466165
      7          1           0       -5.699511   -0.388153   -1.495517
      8          1           0       -7.299872    0.655549    0.143447
      9          1           0       -7.166440   -0.773946    1.178648
     10          1           0       -7.907499   -0.908695   -0.425093
     11          6           0       -3.213354   -0.351141   -0.260224
     12          6           0       -2.075312    0.315374    0.513471
     13          6           0       -0.699601    0.013036   -0.081345
     14          1           0       -3.050099   -1.437657   -0.275276
     15          1           0       -3.182776   -0.016011   -1.306024
     16          1           0       -2.108721   -0.021235    1.557594
     17          1           0       -2.241399    1.400184    0.528243
     18          1           0       -0.641791    0.364557   -1.116570
     19          1           0       -0.508360   -1.064938   -0.081370
     20          1           0        0.099268    0.499307    0.487170
     21          6           0        4.438864   -0.248155    0.272940
     22          6           0        4.515290   -1.624638   -0.388453
     23          6           0        5.589751   -2.519113    0.230613
     24          1           0        5.417818    0.244212    0.194382
     25          1           0        4.238076   -0.375194    1.345758
     26          1           0        4.714501   -1.494993   -1.459958
     27          1           0        3.535989   -2.113707   -0.308480
     28          1           0        5.392079   -2.677958    1.295647
     29          1           0        6.577288   -2.055730    0.137625
     30          1           0        5.627092   -3.498136   -0.257218
     31          6           0        3.369367    0.657543   -0.335017
     32          6           0        3.292942    2.034026    0.326376
     33          6           0        2.218481    2.928501   -0.292691
     34          1           0        3.570155    0.784583   -1.407837
     35          1           0        2.390414    0.165177   -0.256459
     36          1           0        4.272243    2.523095    0.246403
     37          1           0        3.093731    1.904381    1.397881
     38          1           0        1.230944    2.465118   -0.199703
     39          1           0        2.416153    3.087347   -1.357723
     40          1           0        2.181140    3.907524    0.195140
 ---------------------------------------------------------------------

 SCF Done:  E(RHF) =  -470.732460001     A.U. after   11 cycles
 E2 =    -0.1583321987D+01 EUMP2 =    -0.47231578198765D+03

 The electronic state is 1-A.
 Alpha  occ. eigenvalues --  -11.21666 -11.21624 -11.21548 -11.21540 -11.21443
 Alpha  occ. eigenvalues --  -11.21382 -11.21319 -11.21231 -11.21151 -11.21088
 Alpha  occ. eigenvalues --  -11.21033 -11.20963  -1.08476  -1.08358  -1.03595
 Alpha  occ. eigenvalues --   -1.03461  -0.96045  -0.95911  -0.87068  -0.86931
 Alpha  occ. eigenvalues --   -0.79693  -0.79498  -0.78292  -0.78151  -0.65105
 Alpha  occ. eigenvalues --   -0.65020  -0.61038  -0.60901  -0.59469  -0.59189
 Alpha  occ. eigenvalues --   -0.57668  -0.57500  -0.55390  -0.55142  -0.52794
 Alpha  occ. eigenvalues --   -0.52600  -0.52478  -0.52320  -0.50033  -0.49802
 Alpha  occ. eigenvalues --   -0.47980  -0.47820  -0.46688  -0.46534  -0.45852
 Alpha  occ. eigenvalues --   -0.45748  -0.45696  -0.45639  -0.43737  -0.43686
 Alpha virt. eigenvalues --    0.21440   0.22992   0.23716   0.24967   0.26117
 Alpha virt. eigenvalues --    0.26578   0.27133   0.27460   0.27936   0.29227
 Alpha virt. eigenvalues --    0.30828   0.31247   0.31606   0.31841   0.32022

 Mulliken charges:
               1
     1  C   -0.298341
     2  C   -0.299663
     3  C   -0.475729
     4  H    0.149672
     5  H    0.149715
     6  H    0.151946
     7  H    0.152049
     8  H    0.155261
     9  H    0.155190
    10  H    0.160342
    11  C   -0.298762
    12  C   -0.300906
    13  C   -0.480488
    14  H    0.149634
    15  H    0.149983
    16  H    0.152073
    17  H    0.152683
    18  H    0.156944
    19  H    0.155210
    20  H    0.164469
    21  C   -0.297635
    22  C   -0.299571
    23  C   -0.475648
    24  H    0.149280
    25  H    0.148941
    26  H    0.151839
    27  H    0.151995
    28  H    0.155005
    29  H    0.155088
    30  H    0.160022
    31  C   -0.306477
    32  C   -0.299423
    33  C   -0.481467
    34  H    0.148975
    35  H    0.159539
    36  H    0.151827
    37  H    0.150692
    38  H    0.161500
    39  H    0.154752
    40  H    0.159482
 Sum of Mulliken charges =  -0.00000

 Dipole moment (field-independent basis, Debye):
    X=             -0.0658    Y=             -0.0208    Z=             -0.0129  Tot=              0.0702
 Quadrupole moment (field-independent basis, Debye-Ang):
   XX=            -86.1914   YY=            -84.7015   ZZ=            -84.1984
   XY=              0.8009   XZ=             -0.3532   YZ=             -0.5391

 Normal termination of Gaussian 16 at Thu May  6 00:35:01 2021.
