 Gaussian 16, Revision A.03,
 Gaussian 16:  EM64L-G16RevA.03 25-Dec-2016

 -------------
 #p 6-31g* mp2
 -------------

 ------------------------------------------------------
 Input file generated by CHIRIPA (05-May-2021 14:53:16)
 ------------------------------------------------------
 Symbolic Z-matrix:
 Charge =  0 Multiplicity = 1

                         Standard orientation:
 ---------------------------------------------------------------------
 Center     Atomic      Atomic             Coordinates (Angstroms)
 Number     Number       Type             X           Y           Z
 ---------------------------------------------------------------------
      1          6           0        4.361325    0.221010    0.496786
      2          6           0        5.119346   -1.012180    0.004211
      3          6           0        6.139069   -1.524755    1.021671
      4          1           0        5.081384    1.017443    0.729496
      5          1           0        3.850253   -0.023207    1.438358
      6          1           0        5.627709   -0.766115   -0.936871
      7          1           0        4.397385   -1.805705   -0.227536
      8          1           0        5.644055   -1.797413    1.959339
      9          1           0        6.881369   -0.751916    1.245973
     10          1           0        6.669459   -2.406657    0.649118
     11          6           0        3.338294    0.745214   -0.509368
     12          6           0        2.580273    1.978405   -0.016793
     13          6           0        1.560550    2.490980   -1.034254
     14          1           0        3.849366    0.989431   -1.450941
     15          1           0        2.618235   -0.051218   -0.742079
     16          1           0        3.302234    2.771930    0.214954
     17          1           0        2.071910    1.732339    0.924289
     18          1           0        0.818250    1.718140   -1.258555
     19          1           0        2.055564    2.763637   -1.971921
     20          1           0        1.030160    3.372881   -0.661701
     21          6           0       -4.129090    1.756545    0.749542
     22          6           0       -4.772131    0.527681    0.930959
     23          6           0       -4.160221   -0.661034    0.522217
     24          6           0       -2.899249   -0.583736   -0.067073
     25          6           0       -2.232973    0.625218   -0.261483
     26          6           0       -2.863794    1.801313    0.154947
     27          1           0       -4.611782    2.675066    1.070049
     28          1           0       -5.754807    0.489891    1.392441
     29          1           0       -4.635457   -1.625961    0.650611
     30          1           0       -1.253712    0.631028   -0.724551
     31          1           0       -2.362032    2.754240    0.012793
     32          7           0       -2.241437   -1.835495   -0.503860
     33          8           0       -1.130249   -1.740496   -1.020459
     34          8           0       -2.849487   -2.887920   -0.321344
 ---------------------------------------------------------------------

 SCF Done:  E(RHF) =  -669.535706838     A.U. after   15 cycles
 E2 =    -0.2091132969D+01 EUMP2 =    -0.67162683980672D+03

 The electronic state is 1-A.
 Alpha  occ. eigenvalues --  -20.60800 -20.60793 -15.85849 -11.31181 -11.27752
 Alpha  occ. eigenvalues --  -11.27731 -11.27492 -11.26766 -11.26743 -11.21790
 Alpha  occ. eigenvalues --  -11.21596 -11.21312 -11.21250 -11.21178 -11.20811
 Alpha  occ. eigenvalues --   -1.59873  -1.39428  -1.19354  -1.08757  -1.08346
 Alpha  occ. eigenvalues --   -1.04753  -1.03531  -0.96000  -0.95596  -0.87027
 Alpha  occ. eigenvalues --   -0.86154  -0.82427  -0.79596  -0.78109  -0.77479
 Alpha  occ. eigenvalues --   -0.72070  -0.71194  -0.70477  -0.65016  -0.64984
 Alpha  occ. eigenvalues --   -0.64746  -0.62148  -0.60900  -0.59395  -0.57585
 Alpha  occ. eigenvalues --   -0.55396  -0.55158  -0.53085  -0.52875  -0.52732
 Alpha  occ. eigenvalues --   -0.52390  -0.49938  -0.48827  -0.48822  -0.47906
 Alpha  occ. eigenvalues --   -0.46602  -0.45666  -0.45547  -0.44839  -0.43755
 Alpha  occ. eigenvalues --   -0.37339  -0.36354
 Alpha virt. eigenvalues --    0.05051   0.11296   0.16549   0.19865   0.23038
 Alpha virt. eigenvalues --    0.23977   0.25879   0.26853   0.27168   0.28153
 Alpha virt. eigenvalues --    0.29278   0.29970   0.31489   0.31865   0.32331

 Mulliken charges:
               1
     1  C   -0.298300
     2  C   -0.300840
     3  C   -0.475777
     4  H    0.147676
     5  H    0.150048
     6  H    0.151310
     7  H    0.157637
     8  H    0.155470
     9  H    0.153534
    10  H    0.160828
    11  C   -0.301822
    12  C   -0.299063
    13  C   -0.482008
    14  H    0.149379
    15  H    0.160370
    16  H    0.152540
    17  H    0.151456
    18  H    0.153733
    19  H    0.160732
    20  H    0.153966
    21  C   -0.170620
    22  C   -0.218999
    23  C   -0.170100
    24  C    0.159078
    25  C   -0.180072
    26  C   -0.222731
    27  H    0.225636
    28  H    0.223415
    29  H    0.275539
    30  H    0.287700
    31  H    0.224853
    32  N    0.486975
    33  O   -0.461469
    34  O   -0.460073
 Sum of Mulliken charges =  -0.00000

 Dipole moment (field-independent basis, Debye):
    X=             -2.2456    Y=              4.3378    Z=              1.5200  Tot=              5.1157
 Quadrupole moment (field-independent basis, Debye-Ang):
   XX=            -78.3618   YY=            -99.0205   ZZ=            -95.4781
   XY=             -8.5684   XZ=             -6.8553   YZ=             -2.0880

 Normal termination of Gaussian 16 at Thu May  6 22:02:53 2021.
