 Gaussian 16, Revision A.03,
 Gaussian 16:  EM64L-G16RevA.03 25-Dec-2016

 -------------
 #p 6-31g* mp2
 -------------

 ------------------------------------------------------
 Input file generated by CHIRIPA (05-May-2021 14:57:23)
 ------------------------------------------------------
 Symbolic Z-matrix:
 Charge =  0 Multiplicity = 1

                         Standard orientation:
 ---------------------------------------------------------------------
 Center     Atomic      Atomic             Coordinates (Angstroms)
 Number     Number       Type             X           Y           Z
 ---------------------------------------------------------------------
      1          6           0        3.459318   -2.308179   -0.244100
      2          6           0        4.350675   -1.423216    0.371403
      3          6           0        4.104513   -0.047034    0.362760
      4          6           0        2.952102    0.411777   -0.273425
      5          6           0        2.044958   -0.444664   -0.895429
      6          6           0        2.311328   -1.816945   -0.874441
      7          1           0        3.658391   -3.375715   -0.232591
      8          1           0        5.243018   -1.801884    0.861689
      9          1           0        4.777751    0.660372    0.831529
     10          1           0        1.163847   -0.037350   -1.376217
     11          1           0        1.617325   -2.501881   -1.353259
     12          7           0        2.680804    1.866614   -0.289110
     13          8           0        1.658419    2.245635   -0.856304
     14          8           0        3.495684    2.600348    0.266087
     15          6           0       -0.738303   -0.814072    1.194307
     16          6           0       -1.532757   -1.773353    0.557799
     17          6           0       -2.785829   -1.428862    0.042352
     18          6           0       -3.215160   -0.109929    0.181562
     19          6           0       -2.446790    0.868512    0.810492
     20          6           0       -1.197046    0.501479    1.318403
     21          1           0        0.233822   -1.090436    1.591792
     22          1           0       -1.179056   -2.795787    0.459985
     23          1           0       -3.421311   -2.151489   -0.455034
     24          1           0       -2.826399    1.879717    0.892824
     25          1           0       -0.582204    1.248568    1.812239
     26          7           0       -4.539969    0.266699   -0.360129
     27          8           0       -4.895397    1.435442   -0.224674
     28          8           0       -5.197842   -0.613973   -0.909907
 ---------------------------------------------------------------------

 SCF Done:  E(RHF) =  -868.337456147     A.U. after   16 cycles
 E2 =    -0.2602120468D+01 EUMP2 =    -0.87093957661512D+03

 The electronic state is 1-A.
 Alpha  occ. eigenvalues --  -20.61564 -20.61553 -20.60724 -20.60705 -15.86610
 Alpha  occ. eigenvalues --  -15.85774 -11.32021 -11.31180 -11.28620 -11.28578
 Alpha  occ. eigenvalues --  -11.28385 -11.27844 -11.27703 -11.27619 -11.27599
 Alpha  occ. eigenvalues --  -11.27506 -11.26892 -11.26681  -1.60642  -1.59793
 Alpha  occ. eigenvalues --   -1.40187  -1.39344  -1.20241  -1.19382  -1.09614
 Alpha  occ. eigenvalues --   -1.08775  -1.05626  -1.04781  -0.96429  -0.95587
 Alpha  occ. eigenvalues --   -0.87013  -0.86181  -0.83242  -0.82408  -0.78280
 Alpha  occ. eigenvalues --   -0.77446  -0.72814  -0.72006  -0.71978  -0.71304
 Alpha  occ. eigenvalues --   -0.71117  -0.70481  -0.65861  -0.65603  -0.65023
 Alpha  occ. eigenvalues --   -0.64783  -0.62942  -0.62116  -0.56114  -0.55403
 Alpha  occ. eigenvalues --   -0.53954  -0.53697  -0.53034  -0.52862  -0.49586
 Alpha  occ. eigenvalues --   -0.49570  -0.48755  -0.48740  -0.45576  -0.44740
 Alpha  occ. eigenvalues --   -0.38287  -0.37915  -0.36635  -0.36386
 Alpha virt. eigenvalues --    0.04137   0.05167   0.10227   0.11310   0.15611
 Alpha virt. eigenvalues --    0.16673   0.20367   0.21486   0.25929   0.27485
 Alpha virt. eigenvalues --    0.27658   0.28209   0.30039   0.31171   0.31929

 Mulliken charges:
               1
     1  C   -0.172154
     2  C   -0.219833
     3  C   -0.171351
     4  C    0.152648
     5  C   -0.171110
     6  C   -0.225548
     7  H    0.227714
     8  H    0.226189
     9  H    0.277794
    10  H    0.282557
    11  H    0.224479
    12  N    0.486534
    13  O   -0.458083
    14  O   -0.458747
    15  C   -0.174765
    16  C   -0.225737
    17  C   -0.171735
    18  C    0.157360
    19  C   -0.167694
    20  C   -0.216187
    21  H    0.228178
    22  H    0.216893
    23  H    0.274345
    24  H    0.279811
    25  H    0.230154
    26  N    0.488180
    27  O   -0.457827
    28  O   -0.462067
 Sum of Mulliken charges =  -0.00000

 Dipole moment (field-independent basis, Debye):
    X=              5.7104    Y=             -6.2123    Z=              1.9596  Tot=              8.6626
 Quadrupole moment (field-independent basis, Debye-Ang):
   XX=           -126.0923   YY=           -104.9540   ZZ=           -103.5604
   XY=            -10.0358   XZ=             -2.7978   YZ=              3.2977

 Normal termination of Gaussian 16 at Thu May  6 11:17:40 2021.
