 Gaussian 16, Revision A.03,
 Gaussian 16:  EM64L-G16RevA.03 25-Dec-2016

 -------------
 #p 6-31g* mp2
 -------------

 ------------------------------------------------------
 Input file generated by CHIRIPA (05-May-2021 14:53:13)
 ------------------------------------------------------
 Symbolic Z-matrix:
 Charge =  0 Multiplicity = 1

                         Standard orientation:
 ---------------------------------------------------------------------
 Center     Atomic      Atomic             Coordinates (Angstroms)
 Number     Number       Type             X           Y           Z
 ---------------------------------------------------------------------
      1          6           0        4.958529    0.128462   -0.042047
      2          6           0        6.001206   -0.976726    0.129328
      3          6           0        7.434517   -0.444547    0.115186
      4          1           0        5.145625    0.656997   -0.986817
      5          1           0        5.083733    0.868685    0.760318
      6          1           0        5.873179   -1.715362   -0.672321
      7          1           0        5.811490   -1.502816    1.073708
      8          1           0        7.585638    0.276762    0.924801
      9          1           0        7.647678    0.063008   -0.831149
     10          1           0        8.163572   -1.251373    0.239161
     11          6           0        3.520836   -0.387891   -0.029986
     12          6           0        2.478159    0.717296   -0.201361
     13          6           0        1.044848    0.185117   -0.187219
     14          1           0        3.395632   -1.128114   -0.832351
     15          1           0        3.333740   -0.916427    0.914784
     16          1           0        2.667875    1.243386   -1.145741
     17          1           0        2.606186    1.455932    0.600288
     18          1           0        0.831686   -0.322438    0.759116
     19          1           0        0.893726   -0.536192   -0.996834
     20          1           0        0.315792    0.991943   -0.311194
     21          6           0       -2.108039    2.317956    0.077181
     22          6           0       -2.412540    1.713688   -1.147016
     23          6           0       -3.079483    0.485600   -1.186187
     24          6           0       -3.428671   -0.112955    0.023397
     25          6           0       -3.139258    0.463973    1.258987
     26          6           0       -2.471728    1.692274    1.274166
     27          1           0       -1.589713    3.272047    0.098291
     28          1           0       -2.131311    2.197304   -2.078182
     29          1           0       -3.327544   -0.004370   -2.119896
     30          1           0       -3.432432   -0.042318    2.170654
     31          1           0       -2.236541    2.159233    2.226363
     32          7           0       -4.135044   -1.413189   -0.005371
     33          8           0       -4.431847   -1.920086    1.074258
     34          8           0       -4.378523   -1.900795   -1.107005
 ---------------------------------------------------------------------

 SCF Done:  E(RHF) =  -669.534408299     A.U. after   15 cycles
 E2 =    -0.2092621643D+01 EUMP2 =    -0.67162702994150D+03

 The electronic state is 1-A.
 Alpha  occ. eigenvalues --  -20.60780 -20.60774 -15.85833 -11.31222 -11.27789
 Alpha  occ. eigenvalues --  -11.27782 -11.27518 -11.26802 -11.26791 -11.21871
 Alpha  occ. eigenvalues --  -11.21750 -11.21597 -11.21537 -11.21214 -11.21123
 Alpha  occ. eigenvalues --   -1.59854  -1.39407  -1.19398  -1.08804  -1.08621
 Alpha  occ. eigenvalues --   -1.04798  -1.03713  -0.96152  -0.95623  -0.87165
 Alpha  occ. eigenvalues --   -0.86200  -0.82451  -0.79783  -0.78441  -0.77490
 Alpha  occ. eigenvalues --   -0.72053  -0.71175  -0.70514  -0.65258  -0.65051
 Alpha  occ. eigenvalues --   -0.64803  -0.62143  -0.61115  -0.59591  -0.57802
 Alpha  occ. eigenvalues --   -0.55433  -0.55311  -0.53676  -0.52893  -0.52602
 Alpha  occ. eigenvalues --   -0.52236  -0.50089  -0.48813  -0.48806  -0.48098
 Alpha  occ. eigenvalues --   -0.46827  -0.45978  -0.45911  -0.44808  -0.43971
 Alpha  occ. eigenvalues --   -0.37275  -0.36381
 Alpha virt. eigenvalues --    0.05015   0.11212   0.16470   0.21294   0.22695
 Alpha virt. eigenvalues --    0.24215   0.26445   0.27257   0.27290   0.27761
 Alpha virt. eigenvalues --    0.28399   0.30910   0.31215   0.31739   0.32327

 Mulliken charges:
               1
     1  C   -0.298122
     2  C   -0.299815
     3  C   -0.475745
     4  H    0.148972
     5  H    0.148463
     6  H    0.152742
     7  H    0.152502
     8  H    0.154786
     9  H    0.154972
    10  H    0.161010
    11  C   -0.298285
    12  C   -0.299371
    13  C   -0.480513
    14  H    0.150900
    15  H    0.150487
    16  H    0.149068
    17  H    0.148070
    18  H    0.155090
    19  H    0.155316
    20  H    0.163824
    21  C   -0.175907
    22  C   -0.216361
    23  C   -0.169419
    24  C    0.159769
    25  C   -0.171029
    26  C   -0.214253
    27  H    0.226323
    28  H    0.223977
    29  H    0.275773
    30  H    0.275731
    31  H    0.223669
    32  N    0.488018
    33  O   -0.460354
    34  O   -0.460291
 Sum of Mulliken charges =  -0.00000

 Dipole moment (field-independent basis, Debye):
    X=              2.4030    Y=              4.5664    Z=              0.1063  Tot=              5.1612
 Quadrupole moment (field-independent basis, Debye-Ang):
   XX=           -113.9062   YY=            -96.5339   ZZ=            -88.6711
   XY=            -16.5213   XZ=             -0.4708   YZ=              0.1823

 Normal termination of Gaussian 16 at Thu May  6 13:41:01 2021.
