 Gaussian 16, Revision A.03,
 Gaussian 16:  EM64L-G16RevA.03 25-Dec-2016

 -------------
 #p 6-31g* mp2
 -------------

 ------------------------------------------------------
 Input file generated by CHIRIPA (05-May-2021 14:51:13)
 ------------------------------------------------------
 Symbolic Z-matrix:
 Charge =  0 Multiplicity = 1

                         Standard orientation:
 ---------------------------------------------------------------------
 Center     Atomic      Atomic             Coordinates (Angstroms)
 Number     Number       Type             X           Y           Z
 ---------------------------------------------------------------------
      1          6           0        3.050015   -0.135274    0.970448
      2          6           0        1.813590    0.760366    0.886385
      3          6           0        0.956682    0.705371    2.151485
      4          1           0        2.732976   -1.170728    1.155559
      5          1           0        3.654372    0.166263    1.837179
      6          1           0        1.212451    0.458126    0.019264
      7          1           0        2.133600    1.793777    0.701261
      8          1           0        1.535611    1.027171    3.023200
      9          1           0        0.609228   -0.316069    2.337328
     10          1           0        0.078161    1.352972    2.069782
     11          6           0        3.916713   -0.091054   -0.286774
     12          6           0        5.153138   -0.986694   -0.202711
     13          6           0        6.010046   -0.931699   -1.467811
     14          1           0        3.312356   -0.392591   -1.153505
     15          1           0        4.233752    0.944400   -0.471886
     16          1           0        4.833128   -2.020105   -0.017587
     17          1           0        5.754277   -0.684454    0.664410
     18          1           0        6.357500    0.089741   -1.653654
     19          1           0        5.431117   -1.253499   -2.339526
     20          1           0        6.888566   -1.579300   -1.386109
     21          6           0       -3.493441    0.870117   -0.443584
     22          6           0       -2.098895    1.482281   -0.579528
     23          6           0       -2.135559    2.997285   -0.782537
     24          1           0       -4.080085    1.107056   -1.341722
     25          1           0       -4.012494    1.341878    0.402242
     26          1           0       -1.582116    1.008528   -1.423988
     27          1           0       -1.515439    1.243695    0.318955
     28          1           0       -2.627440    3.487580    0.063787
     29          1           0       -2.694495    3.251076   -1.689059
     30          1           0       -1.128033    3.414137   -0.877324
     31          6           0       -3.473286   -0.643789   -0.240090
     32          6           0       -4.867833   -1.255953   -0.104145
     33          6           0       -4.831169   -2.770958    0.098864
     34          1           0       -2.954234   -1.115550   -1.085916
     35          1           0       -2.886643   -0.880728    0.658048
     36          1           0       -5.451288   -1.017367   -1.002629
     37          1           0       -5.384612   -0.782200    0.740314
     38          1           0       -4.272232   -3.024749    1.005385
     39          1           0       -4.339287   -3.261252   -0.747461
     40          1           0       -5.838695   -3.187809    0.193651
 ---------------------------------------------------------------------

 SCF Done:  E(RHF) =  -470.733130894     A.U. after   11 cycles
 E2 =    -0.1583007171D+01 EUMP2 =    -0.47231613806489D+03

 The electronic state is 1-A.
 Alpha  occ. eigenvalues --  -11.21600 -11.21600 -11.21582 -11.21551 -11.21402
 Alpha  occ. eigenvalues --  -11.21396 -11.21342 -11.21336 -11.21091 -11.21074
 Alpha  occ. eigenvalues --  -11.21071 -11.21060  -1.08442  -1.08407  -1.03568
 Alpha  occ. eigenvalues --   -1.03487  -0.96005  -0.95956  -0.87017  -0.86976
 Alpha  occ. eigenvalues --   -0.79606  -0.79575  -0.78280  -0.78195  -0.65096
 Alpha  occ. eigenvalues --   -0.65026  -0.61013  -0.60885  -0.59497  -0.59207
 Alpha  occ. eigenvalues --   -0.57715  -0.57449  -0.55282  -0.55251  -0.52722
 Alpha  occ. eigenvalues --   -0.52647  -0.52437  -0.52375  -0.49937  -0.49897
 Alpha  occ. eigenvalues --   -0.47934  -0.47889  -0.46621  -0.46590  -0.45846
 Alpha  occ. eigenvalues --   -0.45761  -0.45687  -0.45624  -0.43787  -0.43758
 Alpha virt. eigenvalues --    0.21222   0.23129   0.23544   0.24900   0.26140
 Alpha virt. eigenvalues --    0.26464   0.26959   0.27625   0.28079   0.29218
 Alpha virt. eigenvalues --    0.30622   0.30969   0.31374   0.31832   0.32256

 Mulliken charges:
               1
     1  C   -0.298245
     2  C   -0.301955
     3  C   -0.479106
     4  H    0.149687
     5  H    0.149432
     6  H    0.155505
     7  H    0.151618
     8  H    0.155634
     9  H    0.154925
    10  H    0.162313
    11  C   -0.298271
    12  C   -0.299660
    13  C   -0.475705
    14  H    0.149535
    15  H    0.149602
    16  H    0.151964
    17  H    0.151924
    18  H    0.155168
    19  H    0.155158
    20  H    0.160252
    21  C   -0.297653
    22  C   -0.308741
    23  C   -0.475892
    24  H    0.149502
    25  H    0.149311
    26  H    0.151474
    27  H    0.161942
    28  H    0.154718
    29  H    0.155237
    30  H    0.160704
    31  C   -0.298512
    32  C   -0.299606
    33  C   -0.475712
    34  H    0.149121
    35  H    0.149880
    36  H    0.151951
    37  H    0.152020
    38  H    0.155161
    39  H    0.155034
    40  H    0.160283
 Sum of Mulliken charges =  -0.00000

 Dipole moment (field-independent basis, Debye):
    X=              0.0081    Y=              0.0000    Z=              0.0048  Tot=              0.0094
 Quadrupole moment (field-independent basis, Debye-Ang):
   XX=            -85.1209   YY=            -85.3940   ZZ=            -84.3547
   XY=              0.3374   XZ=              0.8511   YZ=              0.5765

 Normal termination of Gaussian 16 at Wed May  5 21:35:25 2021.
