 Gaussian 16, Revision A.03,
 Gaussian 16:  EM64L-G16RevA.03 25-Dec-2016

 -------------
 #p 6-31g* mp2
 -------------

 ------------------------------------------------------
 Input file generated by CHIRIPA (05-May-2021 14:51:12)
 ------------------------------------------------------
 Symbolic Z-matrix:
 Charge =  0 Multiplicity = 1

                         Standard orientation:
 ---------------------------------------------------------------------
 Center     Atomic      Atomic             Coordinates (Angstroms)
 Number     Number       Type             X           Y           Z
 ---------------------------------------------------------------------
      1          6           0       -3.722259   -0.311556   -0.536387
      2          6           0       -5.064352   -0.958718   -0.192944
      3          6           0       -5.208775   -2.365023   -0.775388
      4          1           0       -3.610858   -0.270848   -1.628576
      5          1           0       -2.909253   -0.949420   -0.162830
      6          1           0       -5.874605   -0.319134   -0.565821
      7          1           0       -5.172656   -0.997715    0.898553
      8          1           0       -4.420897   -3.022675   -0.394147
      9          1           0       -5.126835   -2.340237   -1.866842
     10          1           0       -6.175421   -2.808950   -0.517737
     11          6           0       -3.562928    1.094654    0.038866
     12          6           0       -2.220835    1.741816   -0.304577
     13          6           0       -2.076413    3.148121    0.277867
     14          1           0       -4.375934    1.732518   -0.334691
     15          1           0       -3.674329    1.053946    1.131055
     16          1           0       -2.112532    1.780813   -1.396074
     17          1           0       -1.410582    1.102231    0.068301
     18          1           0       -2.158353    3.123335    1.369321
     19          1           0       -2.864291    3.805772   -0.103374
     20          1           0       -1.109766    3.592047    0.020216
     21          6           0        4.402244   -0.313272    0.233404
     22          6           0        4.959249   -0.077383   -1.170906
     23          6           0        6.480325    0.077253   -1.185273
     24          1           0        4.693207    0.524455    0.881864
     25          1           0        4.867288   -1.213601    0.658301
     26          1           0        4.492266    0.821450   -1.593565
     27          1           0        4.666765   -0.915676   -1.816146
     28          1           0        6.962715   -0.821808   -0.788296
     29          1           0        6.787224    0.925188   -0.564451
     30          1           0        6.857249    0.245007   -2.199002
     31          6           0        2.882943   -0.469825    0.264116
     32          6           0        2.325939   -0.705714    1.668427
     33          6           0        0.804862   -0.860351    1.682793
     34          1           0        2.417899    0.430503   -0.160780
     35          1           0        2.591981   -1.307552   -0.384343
     36          1           0        2.618423    0.132578    2.313667
     37          1           0        2.792922   -1.604549    2.091086
     38          1           0        0.497963   -1.708286    1.061971
     39          1           0        0.322473    0.038710    1.285817
     40          1           0        0.427938   -1.028105    2.696523
 ---------------------------------------------------------------------

 SCF Done:  E(RHF) =  -470.733365403     A.U. after   11 cycles
 E2 =    -0.1582587363D+01 EUMP2 =    -0.47231595276553D+03

 The electronic state is 1-A.
 Alpha  occ. eigenvalues --  -11.21642 -11.21610 -11.21565 -11.21558 -11.21423
 Alpha  occ. eigenvalues --  -11.21363 -11.21362 -11.21301 -11.21129 -11.21078
 Alpha  occ. eigenvalues --  -11.21070 -11.21042  -1.08453  -1.08392  -1.03563
 Alpha  occ. eigenvalues --   -1.03499  -0.96012  -0.95951  -0.87034  -0.86964
 Alpha  occ. eigenvalues --   -0.79655  -0.79537  -0.78277  -0.78190  -0.65111
 Alpha  occ. eigenvalues --   -0.65003  -0.61052  -0.60824  -0.59383  -0.59316
 Alpha  occ. eigenvalues --   -0.57631  -0.57553  -0.55341  -0.55201  -0.52706
 Alpha  occ. eigenvalues --   -0.52654  -0.52456  -0.52366  -0.50040  -0.49830
 Alpha  occ. eigenvalues --   -0.48050  -0.47810  -0.46784  -0.46459  -0.45884
 Alpha  occ. eigenvalues --   -0.45749  -0.45721  -0.45495  -0.43811  -0.43753
 Alpha virt. eigenvalues --    0.21418   0.23025   0.23749   0.24675   0.25783
 Alpha virt. eigenvalues --    0.26631   0.27140   0.27606   0.28015   0.29208
 Alpha virt. eigenvalues --    0.30165   0.31618   0.31774   0.31907   0.31961

 Mulliken charges:
               1
     1  C   -0.299023
     2  C   -0.299632
     3  C   -0.475691
     4  H    0.149385
     5  H    0.150900
     6  H    0.151742
     7  H    0.151996
     8  H    0.155219
     9  H    0.155052
    10  H    0.160106
    11  C   -0.297447
    12  C   -0.308704
    13  C   -0.475384
    14  H    0.149286
    15  H    0.149706
    16  H    0.151935
    17  H    0.159925
    18  H    0.155165
    19  H    0.155396
    20  H    0.159430
    21  C   -0.298355
    22  C   -0.299687
    23  C   -0.475727
    24  H    0.149690
    25  H    0.149565
    26  H    0.152023
    27  H    0.152011
    28  H    0.155186
    29  H    0.155195
    30  H    0.160307
    31  C   -0.298414
    32  C   -0.299189
    33  C   -0.483465
    34  H    0.149662
    35  H    0.149812
    36  H    0.152126
    37  H    0.152119
    38  H    0.155259
    39  H    0.162128
    40  H    0.160389
 Sum of Mulliken charges =  -0.00000

 Dipole moment (field-independent basis, Debye):
    X=              0.0207    Y=             -0.0101    Z=              0.0064  Tot=              0.0239
 Quadrupole moment (field-independent basis, Debye-Ang):
   XX=            -85.9146   YY=            -84.7163   ZZ=            -84.1998
   XY=             -0.6594   XZ=              0.4190   YZ=             -0.5400

 Normal termination of Gaussian 16 at Wed May  5 21:32:54 2021.
