 Gaussian 16, Revision A.03,
 Gaussian 16:  EM64L-G16RevA.03 25-Dec-2016

 -------------
 #p 6-31g* mp2
 -------------

 ------------------------------------------------------
 Input file generated by CHIRIPA (05-May-2021 14:57:21)
 ------------------------------------------------------
 Symbolic Z-matrix:
 Charge =  0 Multiplicity = 1

                         Standard orientation:
 ---------------------------------------------------------------------
 Center     Atomic      Atomic             Coordinates (Angstroms)
 Number     Number       Type             X           Y           Z
 ---------------------------------------------------------------------
      1          6           0       -1.496846   -1.086812    0.772983
      2          6           0       -2.695536   -1.749431    1.056885
      3          6           0       -3.918807   -1.211119    0.646549
      4          6           0       -3.906459   -0.002982   -0.048822
      5          6           0       -2.728928    0.681063   -0.346804
      6          6           0       -1.517332    0.124185    0.073278
      7          1           0       -0.551114   -1.512197    1.095528
      8          1           0       -2.682656   -2.690055    1.600122
      9          1           0       -4.861575   -1.703043    0.852992
     10          1           0       -2.773693    1.617173   -0.890047
     11          1           0       -0.587963    0.640991   -0.148602
     12          7           0       -5.195302    0.576732   -0.488385
     13          8           0       -5.157471    1.642412   -1.099558
     14          8           0       -6.218924   -0.045544   -0.213419
     15          6           0        3.525167    2.530323    0.627353
     16          6           0        4.677292    2.053792   -0.006717
     17          6           0        4.781816    0.708333   -0.371907
     18          6           0        3.710369   -0.136572   -0.086557
     19          6           0        2.549365    0.308117    0.544008
     20          6           0        2.466746    1.657502    0.900211
     21          1           0        3.452478    3.577032    0.907551
     22          1           0        5.500841    2.729351   -0.219870
     23          1           0        5.662185    0.312869   -0.863819
     24          1           0        1.744898   -0.389393    0.743338
     25          1           0        1.570776    2.024798    1.392530
     26          7           0        3.809429   -1.563028   -0.468410
     27          8           0        2.851563   -2.287060   -0.205914
     28          8           0        4.843063   -1.930039   -1.022973
 ---------------------------------------------------------------------

 SCF Done:  E(RHF) =  -868.337316951     A.U. after   16 cycles
 E2 =    -0.2600538557D+01 EUMP2 =    -0.87093785550809D+03

 The electronic state is 1-A.
 Alpha  occ. eigenvalues --  -20.61681 -20.61649 -20.60901 -20.60891 -15.86723
 Alpha  occ. eigenvalues --  -15.85955 -11.32152 -11.31348 -11.28849 -11.28645
 Alpha  occ. eigenvalues --  -11.28389 -11.27972 -11.27901 -11.27780 -11.27694
 Alpha  occ. eigenvalues --  -11.27648 -11.27019 -11.26893  -1.60735  -1.59974
 Alpha  occ. eigenvalues --   -1.40292  -1.39526  -1.20314  -1.19534  -1.09673
 Alpha  occ. eigenvalues --   -1.08928  -1.05744  -1.04947  -0.96514  -0.95754
 Alpha  occ. eigenvalues --   -0.87120  -0.86358  -0.83356  -0.82587  -0.78426
 Alpha  occ. eigenvalues --   -0.77624  -0.72943  -0.72175  -0.72054  -0.71441
 Alpha  occ. eigenvalues --   -0.71297  -0.70629  -0.65974  -0.65733  -0.65194
 Alpha  occ. eigenvalues --   -0.65000  -0.63096  -0.62258  -0.56181  -0.55460
 Alpha  occ. eigenvalues --   -0.54042  -0.53807  -0.53263  -0.53034  -0.49711
 Alpha  occ. eigenvalues --   -0.49681  -0.48934  -0.48925  -0.45683  -0.44926
 Alpha  occ. eigenvalues --   -0.38245  -0.37510  -0.37338  -0.36549
 Alpha virt. eigenvalues --    0.04101   0.04923   0.10308   0.11075   0.15484
 Alpha virt. eigenvalues --    0.16399   0.18389   0.22113   0.24934   0.25946
 Alpha virt. eigenvalues --    0.27490   0.29071   0.30341   0.31076   0.32403

 Mulliken charges:
               1
     1  C   -0.175602
     2  C   -0.218019
     3  C   -0.170194
     4  C    0.158530
     5  C   -0.170862
     6  C   -0.224701
     7  H    0.232620
     8  H    0.227105
     9  H    0.276768
    10  H    0.275079
    11  H    0.218941
    12  N    0.488096
    13  O   -0.460939
    14  O   -0.459351
    15  C   -0.169702
    16  C   -0.217881
    17  C   -0.168733
    18  C    0.159061
    19  C   -0.177409
    20  C   -0.224162
    21  H    0.229776
    22  H    0.227597
    23  H    0.278836
    24  H    0.273245
    25  H    0.224758
    26  N    0.487803
    27  O   -0.465413
    28  O   -0.455246
 Sum of Mulliken charges =  -0.00000

 Dipole moment (field-independent basis, Debye):
    X=              4.4352    Y=              2.9906    Z=              2.8643  Tot=              6.0679
 Quadrupole moment (field-independent basis, Debye-Ang):
   XX=           -136.1335   YY=           -103.3927   ZZ=           -105.0856
   XY=             30.6303   XZ=             -4.5962   YZ=             -2.6921

 Normal termination of Gaussian 16 at Wed May  5 19:16:24 2021.
