 Gaussian 16, Revision A.03,
 Gaussian 16:  EM64L-G16RevA.03 25-Dec-2016

 -------------
 #p 6-31g* mp2
 -------------

 ------------------------------------------------------
 Input file generated by CHIRIPA (05-May-2021 14:51:10)
 ------------------------------------------------------
 Symbolic Z-matrix:
 Charge =  0 Multiplicity = 1

                         Standard orientation:
 ---------------------------------------------------------------------
 Center     Atomic      Atomic             Coordinates (Angstroms)
 Number     Number       Type             X           Y           Z
 ---------------------------------------------------------------------
      1          6           0       -3.958662   -0.407832   -0.167143
      2          6           0       -5.115209    0.591045   -0.218425
      3          6           0       -6.304942    0.076792   -1.029519
      4          1           0       -3.634425   -0.636588   -1.191587
      5          1           0       -4.317728   -1.352027    0.265246
      6          1           0       -4.753729    1.533534   -0.649313
      7          1           0       -5.436605    0.817597    0.806268
      8          1           0       -6.692859   -0.851634   -0.598072
      9          1           0       -6.006103   -0.131629   -2.061923
     10          1           0       -7.120260    0.806560   -1.053079
     11          6           0       -2.761888    0.091937    0.640130
     12          6           0       -1.605342   -0.906940    0.691412
     13          6           0       -0.415609   -0.392686    1.502506
     14          1           0       -2.402822    1.036133    0.207740
     15          1           0       -3.086126    0.320694    1.664574
     16          1           0       -1.283946   -1.133491   -0.333281
     17          1           0       -1.966822   -1.849428    1.122300
     18          1           0       -0.714447   -0.184265    2.534909
     19          1           0       -0.027692    0.535740    1.071058
     20          1           0        0.399709   -1.122454    1.526066
     21          6           0        3.014611    0.782438    0.035461
     22          6           0        3.614552    2.086051   -0.492411
     23          6           0        2.912380    3.326546    0.060686
     24          1           0        1.947205    0.746755   -0.222060
     25          1           0        3.071707    0.778572    1.132786
     26          1           0        3.557599    2.086849   -1.588481
     27          1           0        4.680697    2.118546   -0.233770
     28          1           0        2.980901    3.353120    1.153024
     29          1           0        1.851421    3.321243   -0.209386
     30          1           0        3.357220    4.247210   -0.329642
     31          6           0        3.705940   -0.466544   -0.508448
     32          6           0        3.105998   -1.770156    0.019425
     33          6           0        3.808170   -3.010653   -0.533673
     34          1           0        3.648844   -0.462677   -1.605772
     35          1           0        4.773345   -0.430860   -0.250926
     36          1           0        2.039853   -1.802653   -0.239217
     37          1           0        3.162953   -1.770955    1.115495
     38          1           0        4.869130   -3.005348   -0.263600
     39          1           0        3.739650   -3.037226   -1.626010
     40          1           0        3.363330   -3.931315   -0.143345
 ---------------------------------------------------------------------

 SCF Done:  E(RHF) =  -470.732254833     A.U. after   11 cycles
 E2 =    -0.1583771139D+01 EUMP2 =    -0.47231602597259D+03

 The electronic state is 1-A.
 Alpha  occ. eigenvalues --  -11.21599 -11.21597 -11.21579 -11.21577 -11.21397
 Alpha  occ. eigenvalues --  -11.21377 -11.21337 -11.21289 -11.21078 -11.21074
 Alpha  occ. eigenvalues --  -11.21070 -11.20904  -1.08445  -1.08391  -1.03534
 Alpha  occ. eigenvalues --   -1.03499  -0.95996  -0.95927  -0.86996  -0.86967
 Alpha  occ. eigenvalues --   -0.79602  -0.79592  -0.78285  -0.78162  -0.65139
 Alpha  occ. eigenvalues --   -0.64973  -0.60939  -0.60908  -0.59488  -0.59197
 Alpha  occ. eigenvalues --   -0.57648  -0.57504  -0.55363  -0.55155  -0.52794
 Alpha  occ. eigenvalues --   -0.52539  -0.52524  -0.52253  -0.50014  -0.49830
 Alpha  occ. eigenvalues --   -0.48080  -0.47700  -0.46736  -0.46567  -0.45836
 Alpha  occ. eigenvalues --   -0.45744  -0.45707  -0.45455  -0.43797  -0.43674
 Alpha virt. eigenvalues --    0.21373   0.23211   0.23685   0.24023   0.26172
 Alpha virt. eigenvalues --    0.26376   0.27142   0.27345   0.27890   0.29755
 Alpha virt. eigenvalues --    0.30238   0.30825   0.31562   0.31943   0.32223

 Mulliken charges:
               1
     1  C   -0.298192
     2  C   -0.299630
     3  C   -0.475689
     4  H    0.149353
     5  H    0.149561
     6  H    0.151840
     7  H    0.152003
     8  H    0.155193
     9  H    0.155096
    10  H    0.160253
    11  C   -0.298037
    12  C   -0.301151
    13  C   -0.482752
    14  H    0.149044
    15  H    0.149935
    16  H    0.150719
    17  H    0.151897
    18  H    0.154026
    19  H    0.158298
    20  H    0.166743
    21  C   -0.302042
    22  C   -0.299391
    23  C   -0.475835
    24  H    0.155263
    25  H    0.150150
    26  H    0.151409
    27  H    0.151759
    28  H    0.155608
    29  H    0.154136
    30  H    0.160397
    31  C   -0.297869
    32  C   -0.303672
    33  C   -0.475287
    34  H    0.148991
    35  H    0.149453
    36  H    0.155927
    37  H    0.152080
    38  H    0.155195
    39  H    0.155090
    40  H    0.160130
 Sum of Mulliken charges =  -0.00000

 Dipole moment (field-independent basis, Debye):
    X=              0.0265    Y=             -0.0047    Z=              0.0116  Tot=              0.0293
 Quadrupole moment (field-independent basis, Debye-Ang):
   XX=            -85.3320   YY=            -85.7095   ZZ=            -83.8581
   XY=              0.3473   XZ=             -0.1641   YZ=             -0.7805

 Normal termination of Gaussian 16 at Thu May  6 00:37:59 2021.
