 Gaussian 16, Revision A.03,
 Gaussian 16:  EM64L-G16RevA.03 25-Dec-2016

 -------------
 #p 6-31g* mp2
 -------------

 ------------------------------------------------------
 Input file generated by CHIRIPA (05-May-2021 14:57:27)
 ------------------------------------------------------
 Symbolic Z-matrix:
 Charge =  0 Multiplicity = 1

                         Standard orientation:
 ---------------------------------------------------------------------
 Center     Atomic      Atomic             Coordinates (Angstroms)
 Number     Number       Type             X           Y           Z
 ---------------------------------------------------------------------
      1          6           0       -0.737519   -1.327034    0.513692
      2          6           0       -1.009377   -0.840509   -0.769237
      3          6           0       -2.249858   -0.266408   -1.062771
      4          6           0       -3.199634   -0.194665   -0.044896
      5          6           0       -2.958838   -0.670485    1.243088
      6          6           0       -1.711400   -1.240621    1.513997
      7          1           0        0.228819   -1.771469    0.732928
      8          1           0       -0.254946   -0.906291   -1.548052
      9          1           0       -2.486849    0.118110   -2.047352
     10          1           0       -3.730897   -0.590925    1.998742
     11          1           0       -1.503053   -1.617638    2.511240
     12          7           0       -4.516558    0.411012   -0.343671
     13          8           0       -5.336422    0.462410    0.570560
     14          8           0       -4.703963    0.822874   -1.486424
     15          6           0        2.460587    2.690086    0.591087
     16          6           0        2.704973    2.336964   -0.740115
     17          6           0        2.995193    1.012684   -1.081590
     18          6           0        3.033054    0.062889   -0.061910
     19          6           0        2.794095    0.383492    1.273531
     20          6           0        2.505848    1.713945    1.591897
     21          1           0        2.235903    3.721217    0.847378
     22          1           0        2.670492    3.092943   -1.519442
     23          1           0        3.188385    0.711758   -2.104106
     24          1           0        2.835517   -0.392286    2.028429
     25          1           0        2.316473    1.985298    2.626571
     26          7           0        3.339252   -1.342333   -0.411182
     27          8           0        3.366656   -2.160377    0.505709
     28          8           0        3.546049   -1.599095   -1.595220
 ---------------------------------------------------------------------

 SCF Done:  E(RHF) =  -868.339137420     A.U. after   16 cycles
 E2 =    -0.2600818240D+01 EUMP2 =    -0.87093995566029D+03

 The electronic state is 1-A.
 Alpha  occ. eigenvalues --  -20.61999 -20.61982 -20.60756 -20.60751 -15.86995
 Alpha  occ. eigenvalues --  -15.85809 -11.32150 -11.31101 -11.28692 -11.28659
 Alpha  occ. eigenvalues --  -11.28298 -11.27681 -11.27663 -11.27607 -11.27587
 Alpha  occ. eigenvalues --  -11.27301 -11.26653 -11.26607  -1.61058  -1.59835
 Alpha  occ. eigenvalues --   -1.40614  -1.39390  -1.20284  -1.19263  -1.09708
 Alpha  occ. eigenvalues --   -1.08654  -1.05640  -1.04661  -0.96579  -0.95505
 Alpha  occ. eigenvalues --   -0.87050  -0.86054  -0.83409  -0.82344  -0.78507
 Alpha  occ. eigenvalues --   -0.77417  -0.73201  -0.72430  -0.72024  -0.71357
 Alpha  occ. eigenvalues --   -0.71160  -0.70299  -0.65922  -0.65618  -0.64908
 Alpha  occ. eigenvalues --   -0.64654  -0.62994  -0.62015  -0.56106  -0.55112
 Alpha  occ. eigenvalues --   -0.54008  -0.53715  -0.52952  -0.52741  -0.49991
 Alpha  occ. eigenvalues --   -0.49944  -0.48787  -0.48778  -0.46033  -0.44812
 Alpha  occ. eigenvalues --   -0.38259  -0.37382  -0.37014  -0.36268
 Alpha virt. eigenvalues --    0.03974   0.05115   0.10337   0.11377   0.15542
 Alpha virt. eigenvalues --    0.16650   0.20495   0.21492   0.26385   0.27016
 Alpha virt. eigenvalues --    0.27450   0.28318   0.30428   0.30677   0.32192

 Mulliken charges:
               1
     1  C   -0.175493
     2  C   -0.219376
     3  C   -0.172023
     4  C    0.157635
     5  C   -0.171700
     6  C   -0.221025
     7  H    0.234140
     8  H    0.225497
     9  H    0.274303
    10  H    0.274342
    11  H    0.222496
    12  N    0.488060
    13  O   -0.461278
    14  O   -0.461334
    15  C   -0.168639
    16  C   -0.217114
    17  C   -0.174184
    18  C    0.155224
    19  C   -0.174674
    20  C   -0.215795
    21  H    0.230380
    22  H    0.227468
    23  H    0.276333
    24  H    0.273395
    25  H    0.226425
    26  N    0.485390
    27  O   -0.462290
    28  O   -0.456165
 Sum of Mulliken charges =  -0.00000

 Dipole moment (field-independent basis, Debye):
    X=              3.7997    Y=              3.0173    Z=              2.2729  Tot=              5.3579
 Quadrupole moment (field-independent basis, Debye-Ang):
   XX=           -142.2531   YY=           -103.6393   ZZ=            -95.9606
   XY=             21.8956   XZ=             -1.8534   YZ=             -2.5189

 Normal termination of Gaussian 16 at Fri May  7 00:30:56 2021.
