 Gaussian 16, Revision A.03,
 Gaussian 16:  EM64L-G16RevA.03 25-Dec-2016

 -------------
 #p 6-31g* mp2
 -------------

 ------------------------------------------------------
 Input file generated by CHIRIPA (05-May-2021 14:51:10)
 ------------------------------------------------------
 Symbolic Z-matrix:
 Charge =  0 Multiplicity = 1

                         Standard orientation:
 ---------------------------------------------------------------------
 Center     Atomic      Atomic             Coordinates (Angstroms)
 Number     Number       Type             X           Y           Z
 ---------------------------------------------------------------------
      1          6           0        3.221416    0.406776    0.074725
      2          6           0        2.543544    0.953504    1.331532
      3          6           0        1.290089    1.771367    1.018889
      4          1           0        3.483639    1.244052   -0.586449
      5          1           0        2.504778   -0.215852   -0.478593
      6          1           0        3.261672    1.573792    1.883031
      7          1           0        2.283076    0.114843    1.989878
      8          1           0        0.552997    1.159353    0.489044
      9          1           0        1.537153    2.626592    0.381590
     10          1           0        0.821451    2.152546    1.931545
     11          6           0        4.475967   -0.413024    0.370965
     12          6           0        5.153839   -0.959752   -0.885842
     13          6           0        6.407294   -1.777615   -0.573199
     14          1           0        5.192605    0.209603    0.924283
     15          1           0        4.213743   -1.250300    1.032139
     16          1           0        5.414307   -0.121091   -1.544188
     17          1           0        4.435711   -1.580040   -1.437341
     18          1           0        6.160229   -2.632840    0.064100
     19          1           0        7.144385   -1.165601   -0.043355
     20          1           0        6.875931   -2.158794   -1.485855
     21          6           0       -4.204652   -0.634156   -0.447785
     22          6           0       -4.811780   -1.429834    0.708190
     23          6           0       -5.520462   -2.702022    0.242249
     24          1           0       -4.998053   -0.373186   -1.161475
     25          1           0       -3.494084   -1.273111   -0.990210
     26          1           0       -5.519962   -0.789134    1.249112
     27          1           0       -4.016873   -1.688776    1.419307
     28          1           0       -4.821146   -3.363622   -0.279137
     29          1           0       -6.332776   -2.458868   -0.450300
     30          1           0       -5.947066   -3.255410    1.084646
     31          6           0       -3.492731    0.640404    0.002095
     32          6           0       -2.885603    1.436082   -1.153879
     33          6           0       -2.176920    2.708271   -0.687940
     34          1           0       -4.203299    1.279358    0.544520
     35          1           0       -2.699329    0.379433    0.715786
     36          1           0       -3.680509    1.695024   -1.864996
     37          1           0       -2.177421    0.795382   -1.694801
     38          1           0       -1.364607    2.465116    0.004609
     39          1           0       -2.876236    3.369870   -0.166552
     40          1           0       -1.750316    3.261658   -1.530336
 ---------------------------------------------------------------------

 SCF Done:  E(RHF) =  -470.732932576     A.U. after   11 cycles
 E2 =    -0.1582656852D+01 EUMP2 =    -0.47231558942762D+03

 The electronic state is 1-A.
 Alpha  occ. eigenvalues --  -11.21645 -11.21626 -11.21589 -11.21534 -11.21440
 Alpha  occ. eigenvalues --  -11.21380 -11.21377 -11.21315 -11.21136 -11.21090
 Alpha  occ. eigenvalues --  -11.21064 -11.20874  -1.08468  -1.08392  -1.03581
 Alpha  occ. eigenvalues --   -1.03468  -0.96055  -0.95896  -0.87099  -0.86891
 Alpha  occ. eigenvalues --   -0.79692  -0.79493  -0.78284  -0.78199  -0.65116
 Alpha  occ. eigenvalues --   -0.65014  -0.61046  -0.60821  -0.59395  -0.59289
 Alpha  occ. eigenvalues --   -0.57656  -0.57521  -0.55413  -0.55141  -0.52776
 Alpha  occ. eigenvalues --   -0.52613  -0.52508  -0.52241  -0.50043  -0.49780
 Alpha  occ. eigenvalues --   -0.48021  -0.47775  -0.46713  -0.46514  -0.45851
 Alpha  occ. eigenvalues --   -0.45759  -0.45711  -0.45607  -0.43814  -0.43736
 Alpha virt. eigenvalues --    0.21553   0.22998   0.23713   0.24790   0.26247
 Alpha virt. eigenvalues --    0.26616   0.27239   0.27554   0.27757   0.29064
 Alpha virt. eigenvalues --    0.30725   0.31011   0.31707   0.31840   0.32148

 Mulliken charges:
               1
     1  C   -0.298395
     2  C   -0.300519
     3  C   -0.478068
     4  H    0.149917
     5  H    0.149332
     6  H    0.152226
     7  H    0.151880
     8  H    0.155797
     9  H    0.156984
    10  H    0.160783
    11  C   -0.298330
    12  C   -0.299650
    13  C   -0.475728
    14  H    0.149673
    15  H    0.149635
    16  H    0.152043
    17  H    0.151883
    18  H    0.155186
    19  H    0.155248
    20  H    0.160342
    21  C   -0.298167
    22  C   -0.299600
    23  C   -0.475668
    24  H    0.149718
    25  H    0.149120
    26  H    0.151976
    27  H    0.151754
    28  H    0.155036
    29  H    0.155210
    30  H    0.160184
    31  C   -0.298825
    32  C   -0.299440
    33  C   -0.484748
    34  H    0.149646
    35  H    0.149460
    36  H    0.151654
    37  H    0.150870
    38  H    0.168391
    39  H    0.154026
    40  H    0.159163
 Sum of Mulliken charges =  -0.00000

 Dipole moment (field-independent basis, Debye):
    X=              0.0496    Y=              0.0136    Z=              0.0215  Tot=              0.0558
 Quadrupole moment (field-independent basis, Debye-Ang):
   XX=            -84.9188   YY=            -85.0902   ZZ=            -84.8614
   XY=              0.1518   XZ=             -0.1585   YZ=             -0.1830

 Normal termination of Gaussian 16 at Wed May  5 23:01:32 2021.
