 Gaussian 16, Revision A.03,
 Gaussian 16:  EM64L-G16RevA.03 25-Dec-2016

 -------------
 #p 6-31g* mp2
 -------------

 ------------------------------------------------------
 Input file generated by CHIRIPA (05-May-2021 14:53:18)
 ------------------------------------------------------
 Symbolic Z-matrix:
 Charge =  0 Multiplicity = 1

                         Standard orientation:
 ---------------------------------------------------------------------
 Center     Atomic      Atomic             Coordinates (Angstroms)
 Number     Number       Type             X           Y           Z
 ---------------------------------------------------------------------
      1          6           0        3.037990    0.928365   -0.330160
      2          6           0        1.704853    1.395148   -0.915689
      3          6           0        1.631397    2.913295   -1.081911
      4          1           0        3.193453    1.413194    0.643348
      5          1           0        3.855335    1.266763   -0.981950
      6          1           0        0.890172    1.054784   -0.263720
      7          1           0        1.552456    0.909005   -1.887828
      8          1           0        2.423982    3.266540   -1.749465
      9          1           0        1.757936    3.413147   -0.116128
     10          1           0        0.670039    3.225123   -1.501926
     11          6           0        3.126637   -0.586966   -0.157996
     12          6           0        4.459774   -1.053749    0.427533
     13          6           0        4.533229   -2.571895    0.593755
     14          1           0        2.309292   -0.925363    0.493794
     15          1           0        2.971174   -1.071795   -1.131504
     16          1           0        4.612171   -0.567605    1.399672
     17          1           0        5.274454   -0.713384   -0.224436
     18          1           0        4.406691   -3.071748   -0.372028
     19          1           0        3.740644   -2.925140    1.261308
     20          1           0        5.494588   -2.883724    1.013770
     21          6           0       -3.166720   -1.956459   -1.379875
     22          6           0       -3.165067   -2.178149    0.001202
     23          6           0       -2.746772   -1.175206    0.880794
     24          6           0       -2.334712    0.042891    0.342522
     25          6           0       -2.324976    0.294190   -1.028625
     26          6           0       -2.747409   -0.723171   -1.889481
     27          1           0       -3.493270   -2.741169   -2.055885
     28          1           0       -3.490182   -3.134952    0.399794
     29          1           0       -2.735447   -1.319987    1.954259
     30          1           0       -1.995319    1.258365   -1.396201
     31          1           0       -2.747641   -0.548190   -2.961595
     32          7           0       -1.889692    1.112295    1.263789
     33          8           0       -1.531366    2.176670    0.764445
     34          8           0       -1.907637    0.865868    2.467778
 ---------------------------------------------------------------------

 SCF Done:  E(RHF) =  -669.535960720     A.U. after   15 cycles
 E2 =    -0.2092452007D+01 EUMP2 =    -0.67162841272698D+03

 The electronic state is 1-A.
 Alpha  occ. eigenvalues --  -20.60943 -20.60926 -15.85949 -11.31252 -11.27820
 Alpha  occ. eigenvalues --  -11.27811 -11.27553 -11.26820 -11.26807 -11.21356
 Alpha  occ. eigenvalues --  -11.21092 -11.21044 -11.20922 -11.20911 -11.20321
 Alpha  occ. eigenvalues --   -1.59993  -1.39549  -1.19422  -1.08832  -1.08042
 Alpha  occ. eigenvalues --   -1.04814  -1.03107  -0.95686  -0.95541  -0.86569
 Alpha  occ. eigenvalues --   -0.86218  -0.82510  -0.79201  -0.77881  -0.77552
 Alpha  occ. eigenvalues --   -0.72179  -0.71320  -0.70532  -0.65084  -0.64821
 Alpha  occ. eigenvalues --   -0.64657  -0.62167  -0.60486  -0.58942  -0.57170
 Alpha  occ. eigenvalues --   -0.55323  -0.54826  -0.53147  -0.52908  -0.52240
 Alpha  occ. eigenvalues --   -0.51985  -0.49489  -0.48943  -0.48932  -0.47524
 Alpha  occ. eigenvalues --   -0.46269  -0.45507  -0.45372  -0.44707  -0.43370
 Alpha  occ. eigenvalues --   -0.37396  -0.36404
 Alpha virt. eigenvalues --    0.04946   0.11192   0.16418   0.21076   0.23205
 Alpha virt. eigenvalues --    0.24252   0.26694   0.26912   0.27654   0.27840
 Alpha virt. eigenvalues --    0.29037   0.30594   0.31617   0.31743   0.32081

 Mulliken charges:
               1
     1  C   -0.298598
     2  C   -0.301859
     3  C   -0.470533
     4  H    0.153780
     5  H    0.147320
     6  H    0.155319
     7  H    0.142272
     8  H    0.148269
     9  H    0.163590
    10  H    0.159559
    11  C   -0.297585
    12  C   -0.299469
    13  C   -0.475393
    14  H    0.149135
    15  H    0.146131
    16  H    0.153806
    17  H    0.151225
    18  H    0.153140
    19  H    0.154656
    20  H    0.159810
    21  C   -0.170302
    22  C   -0.218592
    23  C   -0.170929
    24  C    0.156937
    25  C   -0.169808
    26  C   -0.218879
    27  H    0.225906
    28  H    0.223670
    29  H    0.275540
    30  H    0.276975
    31  H    0.223825
    32  N    0.488143
    33  O   -0.458082
    34  O   -0.458977
 Sum of Mulliken charges =  -0.00000

 Dipole moment (field-independent basis, Debye):
    X=             -1.7101    Y=             -3.6884    Z=             -3.1254  Tot=              5.1280
 Quadrupole moment (field-independent basis, Debye-Ang):
   XX=            -88.2358   YY=            -94.7089   ZZ=            -93.4778
   XY=              9.8657   XZ=              6.3207   YZ=             -3.5798

 Normal termination of Gaussian 16 at Thu May  6 15:38:56 2021.
