 Gaussian 16, Revision A.03,
 Gaussian 16:  EM64L-G16RevA.03 25-Dec-2016

 -------------
 #p 6-31g* mp2
 -------------

 ------------------------------------------------------
 Input file generated by CHIRIPA (05-May-2021 14:51:09)
 ------------------------------------------------------
 Symbolic Z-matrix:
 Charge =  0 Multiplicity = 1

                         Standard orientation:
 ---------------------------------------------------------------------
 Center     Atomic      Atomic             Coordinates (Angstroms)
 Number     Number       Type             X           Y           Z
 ---------------------------------------------------------------------
      1          6           0        3.620813   -0.171050   -0.509549
      2          6           0        5.011634   -0.750593   -0.249295
      3          6           0        5.209490   -2.123912   -0.891668
      4          1           0        2.862630   -0.868563   -0.128003
      5          1           0        3.459357   -0.096375   -1.593869
      6          1           0        5.170955   -0.822861    0.834222
      7          1           0        5.766600   -0.051530   -0.631333
      8          1           0        5.077274   -2.064279   -1.976824
      9          1           0        4.478244   -2.839993   -0.502941
     10          1           0        6.210433   -2.519562   -0.693088
     11          6           0        3.407770    1.201562    0.126279
     12          6           0        2.016949    1.781105   -0.133975
     13          6           0        1.819094    3.154424    0.508398
     14          1           0        3.569227    1.126887    1.210599
     15          1           0        4.165954    1.899076   -0.255267
     16          1           0        1.261984    1.082042    0.248063
     17          1           0        1.857629    1.853374   -1.217492
     18          1           0        2.550339    3.870505    0.119671
     19          1           0        1.951310    3.094791    1.593554
     20          1           0        0.818151    3.550074    0.309818
     21          6           0       -4.116894   -0.631132   -0.263200
     22          6           0       -5.064992    0.566600   -0.330520
     23          6           0       -6.265653    0.319496   -1.244384
     24          1           0       -3.765392   -0.869836   -1.276320
     25          1           0       -4.672879   -1.510610    0.090061
     26          1           0       -4.507063    1.443886   -0.682230
     27          1           0       -5.414129    0.802601    0.682901
     28          1           0       -6.846982   -0.539098   -0.892995
     29          1           0       -5.934761    0.105830   -2.265883
     30          1           0       -6.930282    1.188408   -1.277818
     31          6           0       -2.911689   -0.399381    0.646470
     32          6           0       -1.963591   -1.597113    0.713791
     33          6           0       -0.762931   -1.350007    1.627654
     34          1           0       -2.355704    0.480098    0.293209
     35          1           0       -3.263192   -0.160676    1.659589
     36          1           0       -1.614455   -1.833114   -0.299632
     37          1           0       -2.521522   -2.474398    1.065500
     38          1           0       -1.093823   -1.136343    2.649152
     39          1           0       -0.181602   -0.491414    1.276265
     40          1           0       -0.098302   -2.218921    1.661088
 ---------------------------------------------------------------------

 SCF Done:  E(RHF) =  -470.733391817     A.U. after   11 cycles
 E2 =    -0.1582710559D+01 EUMP2 =    -0.47231610237585D+03

 The electronic state is 1-A.
 Alpha  occ. eigenvalues --  -11.21628 -11.21619 -11.21607 -11.21591 -11.21417
 Alpha  occ. eigenvalues --  -11.21400 -11.21357 -11.21339 -11.21118 -11.21086
 Alpha  occ. eigenvalues --  -11.21075 -11.21064  -1.08449  -1.08427  -1.03559
 Alpha  occ. eigenvalues --   -1.03526  -0.96004  -0.95978  -0.87028  -0.86989
 Alpha  occ. eigenvalues --   -0.79652  -0.79565  -0.78278  -0.78222  -0.65142
 Alpha  occ. eigenvalues --   -0.65005  -0.61063  -0.60833  -0.59382  -0.59337
 Alpha  occ. eigenvalues --   -0.57630  -0.57573  -0.55315  -0.55249  -0.52700
 Alpha  occ. eigenvalues --   -0.52676  -0.52456  -0.52383  -0.50041  -0.49858
 Alpha  occ. eigenvalues --   -0.48033  -0.47837  -0.46808  -0.46493  -0.45875
 Alpha  occ. eigenvalues --   -0.45766  -0.45741  -0.45514  -0.43804  -0.43785
 Alpha virt. eigenvalues --    0.20783   0.23131   0.23782   0.24537   0.25914
 Alpha virt. eigenvalues --    0.26814   0.27167   0.27420   0.28110   0.29332
 Alpha virt. eigenvalues --    0.30159   0.31637   0.31671   0.31861   0.31956

 Mulliken charges:
               1
     1  C   -0.299373
     2  C   -0.299670
     3  C   -0.475699
     4  H    0.150879
     5  H    0.149219
     6  H    0.152113
     7  H    0.151873
     8  H    0.155073
     9  H    0.155224
    10  H    0.160232
    11  C   -0.297470
    12  C   -0.309271
    13  C   -0.475082
    14  H    0.149828
    15  H    0.149689
    16  H    0.159684
    17  H    0.151846
    18  H    0.155354
    19  H    0.155541
    20  H    0.159897
    21  C   -0.298360
    22  C   -0.299682
    23  C   -0.475723
    24  H    0.149813
    25  H    0.149553
    26  H    0.151993
    27  H    0.151944
    28  H    0.155182
    29  H    0.155218
    30  H    0.160282
    31  C   -0.298591
    32  C   -0.299085
    33  C   -0.484569
    34  H    0.149681
    35  H    0.149676
    36  H    0.152342
    37  H    0.152093
    38  H    0.155627
    39  H    0.162656
    40  H    0.160060
 Sum of Mulliken charges =  -0.00000

 Dipole moment (field-independent basis, Debye):
    X=             -0.0060    Y=             -0.0004    Z=              0.0053  Tot=              0.0080
 Quadrupole moment (field-independent basis, Debye-Ang):
   XX=            -85.3061   YY=            -85.4619   ZZ=            -83.9672
   XY=              0.6383   XZ=             -1.1605   YZ=             -1.0964

 Normal termination of Gaussian 16 at Wed May  5 19:43:29 2021.
