 Gaussian 16, Revision A.03,
 Gaussian 16:  EM64L-G16RevA.03 25-Dec-2016

 -------------
 #p 6-31g* mp2
 -------------

 ------------------------------------------------------
 Input file generated by CHIRIPA (05-May-2021 14:51:10)
 ------------------------------------------------------
 Symbolic Z-matrix:
 Charge =  0 Multiplicity = 1

                         Standard orientation:
 ---------------------------------------------------------------------
 Center     Atomic      Atomic             Coordinates (Angstroms)
 Number     Number       Type             X           Y           Z
 ---------------------------------------------------------------------
      1          6           0       -4.293715   -0.297724    0.324065
      2          6           0       -5.302406    0.013598   -0.782103
      3          6           0       -6.711156   -0.482033   -0.454129
      4          1           0       -4.271426   -1.382485    0.496523
      5          1           0       -4.635645    0.160956    1.262197
      6          1           0       -4.957970   -0.444368   -1.718183
      7          1           0       -5.322157    1.097726   -0.952080
      8          1           0       -7.079211   -0.015770    0.465510
      9          1           0       -6.712955   -1.566626   -0.304947
     10          1           0       -7.416080   -0.249016   -1.258272
     11          6           0       -2.880846    0.191565    0.010816
     12          6           0       -1.872155   -0.119757    1.116983
     13          6           0       -0.463405    0.375874    0.789010
     14          1           0       -2.538917   -0.267115   -0.927316
     15          1           0       -2.903135    1.276326   -0.161642
     16          1           0       -1.852405   -1.203885    1.286960
     17          1           0       -2.216591    0.338209    2.053064
     18          1           0       -0.461606    1.460467    0.639827
     19          1           0       -0.095351   -0.090389   -0.130629
     20          1           0        0.241519    0.142858    1.593152
     21          6           0        3.094776    0.636838   -0.177246
     22          6           0        3.776494    2.005492   -0.171635
     23          6           0        2.778069    3.163312   -0.191418
     24          1           0        2.455422    0.556389   -1.067021
     25          1           0        2.428983    0.563017    0.693769
     26          1           0        4.441854    2.076183   -1.041643
     27          1           0        4.414448    2.082619    0.718132
     28          1           0        2.121492    3.120809    0.683626
     29          1           0        2.149054    3.114337   -1.086147
     30          1           0        3.286876    4.132310   -0.187038
     31          6           0        4.079786   -0.530680   -0.157635
     32          6           0        3.398067   -1.899333   -0.163246
     33          6           0        4.396493   -3.057154   -0.143463
     34          1           0        4.745578   -0.456858   -1.028649
     35          1           0        4.719140   -0.450229    0.732140
     36          1           0        2.760114   -1.976460   -1.053012
     37          1           0        2.732707   -1.970024    0.706763
     38          1           0        5.025507   -3.008178    0.751268
     39          1           0        5.053069   -3.014650   -1.018506
     40          1           0        3.887685   -4.026152   -0.147843
 ---------------------------------------------------------------------

 SCF Done:  E(RHF) =  -470.732369003     A.U. after   11 cycles
 E2 =    -0.1583533531D+01 EUMP2 =    -0.47231590253392D+03

 The electronic state is 1-A.
 Alpha  occ. eigenvalues --  -11.21593 -11.21567 -11.21553 -11.21511 -11.21390
 Alpha  occ. eigenvalues --  -11.21330 -11.21307 -11.21181 -11.21065 -11.21048
 Alpha  occ. eigenvalues --  -11.21007 -11.21004  -1.08420  -1.08341  -1.03520
 Alpha  occ. eigenvalues --   -1.03458  -0.95993  -0.95887  -0.87032  -0.86895
 Alpha  occ. eigenvalues --   -0.79675  -0.79480  -0.78287  -0.78052  -0.65043
 Alpha  occ. eigenvalues --   -0.64994  -0.60924  -0.60857  -0.59368  -0.59269
 Alpha  occ. eigenvalues --   -0.57587  -0.57524  -0.55257  -0.55193  -0.52808
 Alpha  occ. eigenvalues --   -0.52599  -0.52397  -0.52257  -0.49906  -0.49841
 Alpha  occ. eigenvalues --   -0.47986  -0.47767  -0.46642  -0.46547  -0.45906
 Alpha  occ. eigenvalues --   -0.45707  -0.45631  -0.45488  -0.43727  -0.43627
 Alpha virt. eigenvalues --    0.21706   0.23073   0.23918   0.24397   0.25548
 Alpha virt. eigenvalues --    0.26171   0.26646   0.27515   0.27840   0.29737
 Alpha virt. eigenvalues --    0.31020   0.31163   0.31752   0.31869   0.32289

 Mulliken charges:
               1
     1  C   -0.298226
     2  C   -0.299597
     3  C   -0.475686
     4  H    0.149597
     5  H    0.149488
     6  H    0.151844
     7  H    0.151936
     8  H    0.155170
     9  H    0.155151
    10  H    0.160215
    11  C   -0.298559
    12  C   -0.300727
    13  C   -0.476880
    14  H    0.149310
    15  H    0.149640
    16  H    0.151692
    17  H    0.151316
    18  H    0.156589
    19  H    0.158748
    20  H    0.158548
    21  C   -0.303617
    22  C   -0.299220
    23  C   -0.476495
    24  H    0.149057
    25  H    0.159585
    26  H    0.151167
    27  H    0.151119
    28  H    0.156098
    29  H    0.155079
    30  H    0.159651
    31  C   -0.297761
    32  C   -0.299954
    33  C   -0.475569
    34  H    0.148848
    35  H    0.148915
    36  H    0.151155
    37  H    0.152163
    38  H    0.155113
    39  H    0.155161
    40  H    0.159931
 Sum of Mulliken charges =  -0.00000

 Dipole moment (field-independent basis, Debye):
    X=             -0.0178    Y=              0.0049    Z=              0.0067  Tot=              0.0197
 Quadrupole moment (field-independent basis, Debye-Ang):
   XX=            -86.5538   YY=            -85.0541   ZZ=            -83.5660
   XY=              0.0210   XZ=              0.0554   YZ=              0.4693

 Normal termination of Gaussian 16 at Thu May  6 00:38:12 2021.
