 Gaussian 16, Revision A.03,
 Gaussian 16:  EM64L-G16RevA.03 25-Dec-2016

 -------------
 #p 6-31g* mp2
 -------------

 ------------------------------------------------------
 Input file generated by CHIRIPA (05-May-2021 14:51:12)
 ------------------------------------------------------
 Symbolic Z-matrix:
 Charge =  0 Multiplicity = 1

                         Standard orientation:
 ---------------------------------------------------------------------
 Center     Atomic      Atomic             Coordinates (Angstroms)
 Number     Number       Type             X           Y           Z
 ---------------------------------------------------------------------
      1          6           0        4.214270    0.079225   -0.291574
      2          6           0        4.990328    1.319818    0.151877
      3          6           0        6.121874    1.684281   -0.809666
      4          1           0        4.908665   -0.767432   -0.380636
      5          1           0        3.802201    0.252439   -1.295362
      6          1           0        5.399647    1.144839    1.155100
      7          1           0        4.293972    2.163574    0.240080
      8          1           0        5.726946    1.885438   -1.810749
      9          1           0        6.838904    0.860915   -0.890530
     10          1           0        6.663431    2.573987   -0.473511
     11          6           0        3.079815   -0.297760    0.659542
     12          6           0        2.303757   -1.538353    0.216092
     13          6           0        1.172211   -1.902816    1.177634
     14          1           0        3.491884   -0.470974    1.663331
     15          1           0        2.385419    0.548896    0.748605
     16          1           0        3.000113   -2.382109    0.127889
     17          1           0        1.894438   -1.363375   -0.787132
     18          1           0        0.455181   -1.079451    1.258499
     19          1           0        1.567139   -2.103973    2.178718
     20          1           0        0.630654   -2.792522    0.841480
     21          6           0       -3.108338   -0.375076   -0.426145
     22          6           0       -3.505024   -1.844701   -0.281823
     23          6           0       -2.417047   -2.801414   -0.770495
     24          1           0       -2.879980   -0.165317   -1.480089
     25          1           0       -2.181497   -0.195762    0.136177
     26          1           0       -4.431593   -2.020873   -0.843115
     27          1           0       -3.732650   -2.050937    0.771870
     28          1           0       -1.491984   -2.654633   -0.203650
     29          1           0       -2.194898   -2.624397   -1.827811
     30          1           0       -2.721535   -3.846656   -0.658175
     31          6           0       -4.185746    0.593611    0.058176
     32          6           0       -3.789061    2.063236   -0.086145
     33          6           0       -4.877037    3.019949    0.402527
     34          1           0       -5.112588    0.414297   -0.504146
     35          1           0       -4.414105    0.383852    1.112120
     36          1           0       -3.561435    2.269473   -1.139838
     37          1           0       -2.862491    2.239409    0.475146
     38          1           0       -5.099186    2.842933    1.459842
     39          1           0       -5.802102    2.873168   -0.164318
     40          1           0       -4.572550    4.065192    0.290207
 ---------------------------------------------------------------------

 SCF Done:  E(RHF) =  -470.733120736     A.U. after   11 cycles
 E2 =    -0.1582751502D+01 EUMP2 =    -0.47231587223781D+03

 The electronic state is 1-A.
 Alpha  occ. eigenvalues --  -11.21628 -11.21610 -11.21608 -11.21560 -11.21422
 Alpha  occ. eigenvalues --  -11.21397 -11.21361 -11.21337 -11.21131 -11.21077
 Alpha  occ. eigenvalues --  -11.21075 -11.20961  -1.08451  -1.08413  -1.03566
 Alpha  occ. eigenvalues --   -1.03495  -0.96034  -0.95934  -0.87066  -0.86940
 Alpha  occ. eigenvalues --   -0.79652  -0.79539  -0.78264  -0.78225  -0.65109
 Alpha  occ. eigenvalues --   -0.65020  -0.61036  -0.60848  -0.59418  -0.59304
 Alpha  occ. eigenvalues --   -0.57702  -0.57495  -0.55354  -0.55195  -0.52804
 Alpha  occ. eigenvalues --   -0.52643  -0.52476  -0.52252  -0.49995  -0.49839
 Alpha  occ. eigenvalues --   -0.47956  -0.47849  -0.46715  -0.46537  -0.45826
 Alpha  occ. eigenvalues --   -0.45759  -0.45740  -0.45637  -0.43780  -0.43764
 Alpha virt. eigenvalues --    0.21093   0.23110   0.23567   0.24964   0.25841
 Alpha virt. eigenvalues --    0.26814   0.26870   0.27248   0.27882   0.29216
 Alpha virt. eigenvalues --    0.30261   0.31124   0.31689   0.31848   0.32015

 Mulliken charges:
               1
     1  C   -0.298347
     2  C   -0.299683
     3  C   -0.475722
     4  H    0.149717
     5  H    0.149744
     6  H    0.151904
     7  H    0.151980
     8  H    0.155245
     9  H    0.155199
    10  H    0.160276
    11  C   -0.298556
    12  C   -0.299931
    13  C   -0.481888
    14  H    0.149538
    15  H    0.149655
    16  H    0.152250
    17  H    0.153180
    18  H    0.156108
    19  H    0.155754
    20  H    0.164622
    21  C   -0.300370
    22  C   -0.298767
    23  C   -0.484308
    24  H    0.149404
    25  H    0.150893
    26  H    0.151631
    27  H    0.151900
    28  H    0.164803
    29  H    0.154359
    30  H    0.159499
    31  C   -0.298264
    32  C   -0.299576
    33  C   -0.475690
    34  H    0.149645
    35  H    0.149780
    36  H    0.151828
    37  H    0.151505
    38  H    0.155264
    39  H    0.155244
    40  H    0.160178
 Sum of Mulliken charges =  -0.00000

 Dipole moment (field-independent basis, Debye):
    X=              0.0381    Y=             -0.0065    Z=              0.0112  Tot=              0.0403
 Quadrupole moment (field-independent basis, Debye-Ang):
   XX=            -85.4626   YY=            -85.2793   ZZ=            -84.0841
   XY=             -0.2524   XZ=              1.4134   YZ=             -0.4123

 Normal termination of Gaussian 16 at Wed May  5 16:48:41 2021.
