 Gaussian 16, Revision A.03,
 Gaussian 16:  EM64L-G16RevA.03 25-Dec-2016

 -------------
 #p 6-31g* mp2
 -------------

 ------------------------------------------------------
 Input file generated by CHIRIPA (05-May-2021 14:55:22)
 ------------------------------------------------------
 Symbolic Z-matrix:
 Charge =  0 Multiplicity = 1

                         Standard orientation:
 ---------------------------------------------------------------------
 Center     Atomic      Atomic             Coordinates (Angstroms)
 Number     Number       Type             X           Y           Z
 ---------------------------------------------------------------------
      1          6           0        4.167992    1.051092   -0.017037
      2          6           0        4.111477   -0.037164   -0.893979
      3          6           0        3.046434   -0.940987   -0.836223
      4          6           0        2.050602   -0.725275    0.115132
      5          6           0        2.078646    0.349409    1.002576
      6          6           0        3.153185    1.240571    0.926778
      7          1           0        4.999031    1.748285   -0.068911
      8          1           0        4.898179   -0.186807   -1.627976
      9          1           0        2.977744   -1.791923   -1.503011
     10          1           0        1.279566    0.472337    1.723532
     11          1           0        3.194461    2.084839    1.609092
     12          7           0        0.918062   -1.675410    0.185826
     13          8           0        0.053275   -1.463211    1.033029
     14          8           0        0.916609   -2.614333   -0.607305
     15          6           0       -3.489219    0.292913   -0.186511
     16          6           0       -3.228374   -1.183950    0.111515
     17          6           0       -4.489354   -2.041348   -0.000694
     18          1           0       -4.253979    0.670626    0.505890
     19          1           0       -3.909053    0.387166   -1.197576
     20          1           0       -2.807868   -1.275265    1.121194
     21          1           0       -2.464008   -1.558141   -0.581552
     22          1           0       -4.908380   -1.979946   -1.010272
     23          1           0       -5.254193   -1.695462    0.702148
     24          1           0       -4.280076   -3.093466    0.216356
     25          6           0       -2.238161    1.162912   -0.078400
     26          6           0       -2.499006    2.639774   -0.376427
     27          6           0       -1.238026    3.497173   -0.264218
     28          1           0       -1.818328    1.068659    0.932664
     29          1           0       -1.473402    0.785198   -0.770802
     30          1           0       -3.263372    3.013966    0.316640
     31          1           0       -2.919514    2.731090   -1.386105
     32          1           0       -0.473187    3.151288   -0.967060
     33          1           0       -0.819000    3.435771    0.745361
     34          1           0       -1.447303    4.549291   -0.481268
 ---------------------------------------------------------------------

 SCF Done:  E(RHF) =  -669.535745538     A.U. after   15 cycles
 E2 =    -0.2093163981D+01 EUMP2 =    -0.67162890951834D+03

 The electronic state is 1-A.
 Alpha  occ. eigenvalues --  -20.60951 -20.60918 -15.85949 -11.31267 -11.27830
 Alpha  occ. eigenvalues --  -11.27825 -11.27562 -11.26833 -11.26820 -11.21189
 Alpha  occ. eigenvalues --  -11.20984 -11.20652 -11.20388 -11.19960 -11.19825
 Alpha  occ. eigenvalues --   -1.59989  -1.39547  -1.19433  -1.08840  -1.07575
 Alpha  occ. eigenvalues --   -1.04826  -1.02665  -0.95685  -0.95205  -0.86248
 Alpha  occ. eigenvalues --   -0.86215  -0.82526  -0.78779  -0.77621  -0.77203
 Alpha  occ. eigenvalues --   -0.72171  -0.71289  -0.70542  -0.65089  -0.64830
 Alpha  occ. eigenvalues --   -0.64225  -0.62175  -0.60072  -0.58628  -0.56750
 Alpha  occ. eigenvalues --   -0.55332  -0.54532  -0.53157  -0.52919  -0.51930
 Alpha  occ. eigenvalues --   -0.51618  -0.49206  -0.49006  -0.48937  -0.47006
 Alpha  occ. eigenvalues --   -0.45827  -0.45384  -0.44655  -0.44291  -0.42917
 Alpha  occ. eigenvalues --   -0.37408  -0.36421
 Alpha virt. eigenvalues --    0.04926   0.11209   0.16410   0.21065   0.23381
 Alpha virt. eigenvalues --    0.24993   0.26327   0.27580   0.27637   0.28602
 Alpha virt. eigenvalues --    0.29175   0.31092   0.31919   0.32323   0.32569

 Mulliken charges:
               1
     1  C   -0.170556
     2  C   -0.218692
     3  C   -0.170946
     4  C    0.157507
     5  C   -0.169385
     6  C   -0.218374
     7  H    0.225997
     8  H    0.223664
     9  H    0.275602
    10  H    0.275977
    11  H    0.224064
    12  N    0.489525
    13  O   -0.458249
    14  O   -0.460424
    15  C   -0.299945
    16  C   -0.296806
    17  C   -0.476546
    18  H    0.144754
    19  H    0.144809
    20  H    0.165411
    21  H    0.160615
    22  H    0.149434
    23  H    0.148865
    24  H    0.162144
    25  C   -0.294403
    26  C   -0.299152
    27  C   -0.474449
    28  H    0.151882
    29  H    0.145046
    30  H    0.150883
    31  H    0.151199
    32  H    0.153656
    33  H    0.148243
    34  H    0.158647
 Sum of Mulliken charges =  -0.00000

 Dipole moment (field-independent basis, Debye):
    X=              4.2054    Y=              3.1435    Z=             -0.1637  Tot=              5.2529
 Quadrupole moment (field-independent basis, Debye-Ang):
   XX=            -79.7610   YY=            -99.7507   ZZ=            -91.4040
   XY=              2.5087   XZ=             -2.2660   YZ=              2.9802

 Normal termination of Gaussian 16 at Thu May  6 19:13:09 2021.
