 Gaussian 16, Revision A.03,
 Gaussian 16:  EM64L-G16RevA.03 25-Dec-2016

 -------------
 #p 6-31g* mp2
 -------------

 ------------------------------------------------------
 Input file generated by CHIRIPA (05-May-2021 14:53:17)
 ------------------------------------------------------
 Symbolic Z-matrix:
 Charge =  0 Multiplicity = 1

                         Standard orientation:
 ---------------------------------------------------------------------
 Center     Atomic      Atomic             Coordinates (Angstroms)
 Number     Number       Type             X           Y           Z
 ---------------------------------------------------------------------
      1          6           0       -3.056084   -0.474374   -0.547521
      2          6           0       -3.424976   -1.673363    0.326739
      3          6           0       -3.648953   -2.949877   -0.484519
      4          1           0       -3.853393   -0.306965   -1.284554
      5          1           0       -2.147534   -0.711344   -1.118290
      6          1           0       -4.331776   -1.433687    0.896724
      7          1           0       -2.626785   -1.837819    1.061900
      8          1           0       -2.744612   -3.216239   -1.041133
      9          1           0       -4.459291   -2.809811   -1.207248
     10          1           0       -3.911589   -3.794399    0.160201
     11          6           0       -2.829013    0.809205    0.249090
     12          6           0       -2.460122    2.008194   -0.625170
     13          6           0       -2.236144    3.284708    0.186088
     14          1           0       -3.737564    1.046174    0.819859
     15          1           0       -2.031704    0.641796    0.986123
     16          1           0       -3.258312    2.172650   -1.360331
     17          1           0       -1.553321    1.768518   -1.195156
     18          1           0       -1.425807    3.144642    0.908817
     19          1           0       -3.140485    3.551070    0.742702
     20          1           0       -1.973509    4.129230   -0.458633
     21          6           0        3.063852   -0.090347   -2.287398
     22          6           0        1.717929    0.130672   -1.977293
     23          6           0        1.282828    0.110562   -0.648824
     24          6           0        2.224910   -0.134703    0.348982
     25          6           0        3.572667   -0.358520    0.071950
     26          6           0        3.985300   -0.333808   -1.263592
     27          1           0        3.393121   -0.072937   -3.322132
     28          1           0        1.000098    0.319996   -2.770338
     29          1           0        0.246844    0.278481   -0.380574
     30          1           0        4.264828   -0.544618    0.884168
     31          1           0        5.031188   -0.505788   -1.501470
     32          7           0        1.776181   -0.158429    1.759117
     33          8           0        2.625920   -0.376729    2.619888
     34          8           0        0.583226    0.041725    1.976908
 ---------------------------------------------------------------------

 SCF Done:  E(RHF) =  -669.535769374     A.U. after   15 cycles
 E2 =    -0.2093372765D+01 EUMP2 =    -0.67162914213898D+03

 The electronic state is 1-A.
 Alpha  occ. eigenvalues --  -20.60958 -20.60940 -15.85991 -11.31266 -11.27835
 Alpha  occ. eigenvalues --  -11.27797 -11.27565 -11.26837 -11.26821 -11.21736
 Alpha  occ. eigenvalues --  -11.21409 -11.21329 -11.21056 -11.20941 -11.20934
 Alpha  occ. eigenvalues --   -1.60015  -1.39573  -1.19438  -1.08849  -1.08343
 Alpha  occ. eigenvalues --   -1.04830  -1.03435  -0.95868  -0.95694  -0.86882
 Alpha  occ. eigenvalues --   -0.86233  -0.82541  -0.79501  -0.78132  -0.77604
 Alpha  occ. eigenvalues --   -0.72226  -0.71327  -0.70566  -0.65230  -0.65094
 Alpha  occ. eigenvalues --   -0.64648  -0.62154  -0.60809  -0.59231  -0.57472
 Alpha  occ. eigenvalues --   -0.55349  -0.55136  -0.53161  -0.52914  -0.52569
 Alpha  occ. eigenvalues --   -0.52273  -0.49810  -0.48997  -0.48956  -0.47809
 Alpha  occ. eigenvalues --   -0.46537  -0.45709  -0.45489  -0.44993  -0.43677
 Alpha  occ. eigenvalues --   -0.37417  -0.36424
 Alpha virt. eigenvalues --    0.04907   0.11203   0.16408   0.19209   0.23109
 Alpha virt. eigenvalues --    0.24347   0.25310   0.27028   0.27850   0.28129
 Alpha virt. eigenvalues --    0.30090   0.31133   0.31674   0.31906   0.32192

 Mulliken charges:
               1
     1  C   -0.296468
     2  C   -0.302061
     3  C   -0.475573
     4  H    0.148413
     5  H    0.136153
     6  H    0.153055
     7  H    0.162864
     8  H    0.152549
     9  H    0.153268
    10  H    0.161636
    11  C   -0.318688
    12  C   -0.298757
    13  C   -0.477245
    14  H    0.152489
    15  H    0.179083
    16  H    0.151908
    17  H    0.134900
    18  H    0.164014
    19  H    0.157376
    20  H    0.157331
    21  C   -0.170140
    22  C   -0.223404
    23  C   -0.179201
    24  C    0.157190
    25  C   -0.169726
    26  C   -0.219101
    27  H    0.226113
    28  H    0.224818
    29  H    0.291909
    30  H    0.275705
    31  H    0.223836
    32  N    0.492706
    33  O   -0.458747
    34  O   -0.468203
 Sum of Mulliken charges =  -0.00000

 Dipole moment (field-independent basis, Debye):
    X=              1.6263    Y=              0.0750    Z=             -4.7076  Tot=              4.9811
 Quadrupole moment (field-independent basis, Debye-Ang):
   XX=            -82.1715   YY=            -96.4622   ZZ=            -98.5165
   XY=             -1.5721   XZ=             -9.7138   YZ=              0.0187

 Normal termination of Gaussian 16 at Thu May  6 18:57:51 2021.
