 Gaussian 16, Revision A.03,
 Gaussian 16:  EM64L-G16RevA.03 25-Dec-2016

 -------------
 #p 6-31g* mp2
 -------------

 ------------------------------------------------------
 Input file generated by CHIRIPA (05-May-2021 14:53:15)
 ------------------------------------------------------
 Symbolic Z-matrix:
 Charge =  0 Multiplicity = 1

                         Standard orientation:
 ---------------------------------------------------------------------
 Center     Atomic      Atomic             Coordinates (Angstroms)
 Number     Number       Type             X           Y           Z
 ---------------------------------------------------------------------
      1          6           0        5.450760    0.287096   -0.217332
      2          6           0        6.758975   -0.299722    0.313898
      3          6           0        7.988985    0.479156   -0.153241
      4          1           0        5.482048    0.301692   -1.315399
      5          1           0        5.368109    1.333713    0.106948
      6          1           0        6.838476   -1.345334   -0.010126
      7          1           0        6.724491   -0.313099    1.410825
      8          1           0        7.936489    1.519809    0.182744
      9          1           0        8.051122    0.481710   -1.246280
     10          1           0        8.913144    0.042517    0.238084
     11          6           0        4.212154   -0.480673    0.241049
     12          6           0        2.903940    0.106145   -0.290181
     13          6           0        1.673930   -0.672733    0.176959
     14          1           0        4.294806   -1.527290   -0.083231
     15          1           0        4.180867   -0.495269    1.339117
     16          1           0        2.938423    0.119522   -1.387107
     17          1           0        2.824438    1.151757    0.033843
     18          1           0        1.611793   -0.675287    1.269997
     19          1           0        1.726425   -1.713386   -0.159026
     20          1           0        0.749770   -0.236094   -0.214367
     21          6           0       -3.580436    2.590491    0.051005
     22          6           0       -2.427763    1.800785   -0.014038
     23          6           0       -2.523378    0.406419   -0.047911
     24          6           0       -3.793345   -0.167513   -0.015091
     25          6           0       -4.960358    0.592206    0.049690
     26          6           0       -4.840832    1.984750    0.082605
     27          1           0       -3.496872    3.672961    0.076946
     28          1           0       -1.447609    2.268475   -0.038703
     29          1           0       -1.647410   -0.228846   -0.098285
     30          1           0       -5.923583    0.097157    0.072976
     31          1           0       -5.737731    2.595542    0.133116
     32          7           0       -3.907225   -1.642701   -0.050445
     33          8           0       -5.037753   -2.123994   -0.020431
     34          8           0       -2.863799   -2.289729   -0.107498
 ---------------------------------------------------------------------

 SCF Done:  E(RHF) =  -669.535442274     A.U. after   15 cycles
 E2 =    -0.2090863750D+01 EUMP2 =    -0.67162630602394D+03

 The electronic state is 1-A.
 Alpha  occ. eigenvalues --  -20.60716 -20.60709 -15.85767 -11.31132 -11.27712
 Alpha  occ. eigenvalues --  -11.27680 -11.27462 -11.26732 -11.26717 -11.21988
 Alpha  occ. eigenvalues --  -11.21753 -11.21642 -11.21571 -11.21537 -11.21205
 Alpha  occ. eigenvalues --   -1.59790  -1.39343  -1.19311  -1.08708  -1.08681
 Alpha  occ. eigenvalues --   -1.04718  -1.03803  -0.96255  -0.95541  -0.87273
 Alpha  occ. eigenvalues --   -0.86114  -0.82374  -0.79864  -0.78479  -0.77419
 Alpha  occ. eigenvalues --   -0.71987  -0.71113  -0.70432  -0.65304  -0.64966
 Alpha  occ. eigenvalues --   -0.64729  -0.62116  -0.61186  -0.59633  -0.57865
 Alpha  occ. eigenvalues --   -0.55515  -0.55228  -0.53105  -0.53046  -0.52727
 Alpha  occ. eigenvalues --   -0.52614  -0.50168  -0.48746  -0.48740  -0.48179
 Alpha  occ. eigenvalues --   -0.46882  -0.46023  -0.45938  -0.44748  -0.44063
 Alpha  occ. eigenvalues --   -0.37298  -0.36320
 Alpha virt. eigenvalues --    0.05116   0.11332   0.16605   0.20131   0.22731
 Alpha virt. eigenvalues --    0.23841   0.25800   0.26435   0.27252   0.27947
 Alpha virt. eigenvalues --    0.28771   0.30473   0.31209   0.31573   0.31946

 Mulliken charges:
               1
     1  C   -0.298370
     2  C   -0.299950
     3  C   -0.475833
     4  H    0.150123
     5  H    0.148477
     6  H    0.153194
     7  H    0.152309
     8  H    0.154713
     9  H    0.155439
    10  H    0.161059
    11  C   -0.299269
    12  C   -0.299669
    13  C   -0.477508
    14  H    0.152417
    15  H    0.150506
    16  H    0.153413
    17  H    0.148022
    18  H    0.158028
    19  H    0.165511
    20  H    0.148394
    21  C   -0.170753
    22  C   -0.221485
    23  C   -0.181165
    24  C    0.160132
    25  C   -0.170262
    26  C   -0.219048
    27  H    0.225370
    28  H    0.223231
    29  H    0.287493
    30  H    0.275460
    31  H    0.223287
    32  N    0.487258
    33  O   -0.460771
    34  O   -0.459752
 Sum of Mulliken charges =  -0.00000

 Dipole moment (field-independent basis, Debye):
    X=              0.5462    Y=              5.1120    Z=              0.1379  Tot=              5.1429
 Quadrupole moment (field-independent basis, Debye-Ang):
   XX=            -93.3738   YY=            -96.8617   ZZ=            -95.0497
   XY=            -21.1667   XZ=             -0.5272   YZ=              0.5488

 Normal termination of Gaussian 16 at Wed May  5 23:30:33 2021.
