 Gaussian 16, Revision A.03,
 Gaussian 16:  EM64L-G16RevA.03 25-Dec-2016

 -------------
 #p 6-31g* mp2
 -------------

 ------------------------------------------------------
 Input file generated by CHIRIPA (05-May-2021 14:53:16)
 ------------------------------------------------------
 Symbolic Z-matrix:
 Charge =  0 Multiplicity = 1

                         Standard orientation:
 ---------------------------------------------------------------------
 Center     Atomic      Atomic             Coordinates (Angstroms)
 Number     Number       Type             X           Y           Z
 ---------------------------------------------------------------------
      1          6           0       -4.481840   -0.552840   -0.204948
      2          6           0       -5.772870   -0.770520    0.584887
      3          6           0       -6.501109   -2.054148    0.185185
      4          1           0       -4.716308   -0.524177   -1.277864
      5          1           0       -3.817552   -1.414848   -0.053092
      6          1           0       -6.433955    0.092278    0.432693
      7          1           0       -5.535326   -0.798476    1.656058
      8          1           0       -5.862849   -2.927566    0.353606
      9          1           0       -6.766583   -2.031750   -0.876711
     10          1           0       -7.421193   -2.190007    0.762115
     11          6           0       -3.742471    0.726338    0.183338
     12          6           0       -2.451440    0.944017   -0.606498
     13          6           0       -1.723202    2.227645   -0.206796
     14          1           0       -4.406759    1.588345    0.031482
     15          1           0       -3.508002    0.697675    1.256253
     16          1           0       -2.688984    0.971974   -1.677669
     17          1           0       -1.790356    0.081219   -0.454303
     18          1           0       -1.457728    2.205247    0.855100
     19          1           0       -2.361462    3.101063   -0.375217
     20          1           0       -0.803118    2.363505   -0.783726
     21          6           0        1.913201    2.094890    0.026326
     22          6           0        1.911212    1.286477   -1.115158
     23          6           0        2.627610    0.086113   -1.136329
     24          6           0        3.338244   -0.276850    0.006713
     25          6           0        3.359790    0.507056    1.159239
     26          6           0        2.636209    1.703289    1.157886
     27          1           0        1.353895    3.025758    0.034023
     28          1           0        1.350613    1.588084   -1.995390
     29          1           0        2.643333   -0.558735   -2.006583
     30          1           0        3.928093    0.179893    2.021455
     31          1           0        2.639563    2.329121    2.045787
     32          7           0        4.100466   -1.545436   -0.003778
     33          8           0        4.718541   -1.842830    1.016112
     34          8           0        4.065385   -2.218339   -1.031692
 ---------------------------------------------------------------------

 SCF Done:  E(RHF) =  -669.534190241     A.U. after   15 cycles
 E2 =    -0.2092322056D+01 EUMP2 =    -0.67162651229728D+03

 The electronic state is 1-A.
 Alpha  occ. eigenvalues --  -20.60753 -20.60748 -15.85809 -11.31163 -11.27757
 Alpha  occ. eigenvalues --  -11.27754 -11.27456 -11.26750 -11.26735 -11.22255
 Alpha  occ. eigenvalues --  -11.21980 -11.21892 -11.21880 -11.21727 -11.21282
 Alpha  occ. eigenvalues --   -1.59830  -1.39384  -1.19352  -1.08901  -1.08740
 Alpha  occ. eigenvalues --   -1.04760  -1.04032  -0.96519  -0.95571  -0.87543
 Alpha  occ. eigenvalues --   -0.86156  -0.82413  -0.80109  -0.78672  -0.77461
 Alpha  occ. eigenvalues --   -0.72028  -0.71155  -0.70483  -0.65514  -0.65017
 Alpha  occ. eigenvalues --   -0.64797  -0.62130  -0.61419  -0.59909  -0.58100
 Alpha  occ. eigenvalues --   -0.55807  -0.55262  -0.53400  -0.52997  -0.52880
 Alpha  occ. eigenvalues --   -0.52737  -0.50420  -0.48786  -0.48782  -0.48418
 Alpha  occ. eigenvalues --   -0.47111  -0.46226  -0.46120  -0.44792  -0.44291
 Alpha  occ. eigenvalues --   -0.37262  -0.36358
 Alpha virt. eigenvalues --    0.05078   0.11182   0.16548   0.20634   0.22560
 Alpha virt. eigenvalues --    0.24046   0.26177   0.26301   0.26898   0.27665
 Alpha virt. eigenvalues --    0.28571   0.30199   0.30880   0.31390   0.31882

 Mulliken charges:
               1
     1  C   -0.299020
     2  C   -0.300015
     3  C   -0.476067
     4  H    0.149954
     5  H    0.151571
     6  H    0.151833
     7  H    0.152482
     8  H    0.156483
     9  H    0.155442
    10  H    0.161113
    11  C   -0.298955
    12  C   -0.300514
    13  C   -0.476012
    14  H    0.149787
    15  H    0.150636
    16  H    0.151590
    17  H    0.156285
    18  H    0.155734
    19  H    0.156172
    20  H    0.149716
    21  C   -0.166985
    22  C   -0.218821
    23  C   -0.171737
    24  C    0.157698
    25  C   -0.170684
    26  C   -0.221086
    27  H    0.228598
    28  H    0.223318
    29  H    0.275657
    30  H    0.275519
    31  H    0.223343
    32  N    0.488162
    33  O   -0.460620
    34  O   -0.460576
 Sum of Mulliken charges =  -0.00000

 Dipole moment (field-independent basis, Debye):
    X=             -2.7996    Y=              4.4174    Z=              0.0783  Tot=              5.2304
 Quadrupole moment (field-independent basis, Debye-Ang):
   XX=           -112.8417   YY=            -98.4314   ZZ=            -90.0011
   XY=             15.4306   XZ=              1.9651   YZ=              0.5280

 Normal termination of Gaussian 16 at Thu May  6 17:11:59 2021.
