 Gaussian 16, Revision A.03,
 Gaussian 16:  EM64L-G16RevA.03 25-Dec-2016

 -------------
 #p 6-31g* mp2
 -------------

 ------------------------------------------------------
 Input file generated by CHIRIPA (05-May-2021 14:51:09)
 ------------------------------------------------------
 Symbolic Z-matrix:
 Charge =  0 Multiplicity = 1

                         Standard orientation:
 ---------------------------------------------------------------------
 Center     Atomic      Atomic             Coordinates (Angstroms)
 Number     Number       Type             X           Y           Z
 ---------------------------------------------------------------------
      1          6           0        3.764839   -0.046103   -0.203533
      2          6           0        5.249786   -0.114893    0.154496
      3          6           0        6.017045    1.140378   -0.261923
      4          1           0        3.662008    0.105768   -1.286726
      5          1           0        3.318813    0.834433    0.279283
      6          1           0        5.692570   -0.995811   -0.327730
      7          1           0        5.349091   -0.266809    1.236936
      8          1           0        5.602242    2.026263    0.229755
      9          1           0        5.947673    1.293119   -1.343801
     10          1           0        7.076496    1.069866    0.003502
     11          6           0        2.984395   -1.293727    0.206429
     12          6           0        1.499447   -1.224937   -0.151601
     13          6           0        0.732189   -2.480208    0.264819
     14          1           0        3.430420   -2.174263   -0.276388
     15          1           0        3.087225   -1.445598    1.289621
     16          1           0        1.400143   -1.073021   -1.234040
     17          1           0        1.056663   -0.344019    0.330625
     18          1           0        0.801560   -2.632949    1.346696
     19          1           0        1.146991   -3.366093   -0.226860
     20          1           0       -0.327263   -2.409696   -0.000607
     21          6           0       -3.678229   -0.015247   -0.149113
     22          6           0       -5.191030   -0.067442    0.066975
     23          6           0       -5.783792   -1.444660   -0.232517
     24          1           0       -3.452653   -0.295240   -1.187219
     25          1           0       -3.197413   -0.769163    0.489495
     26          1           0       -5.668735    0.687292   -0.570826
     27          1           0       -5.413044    0.212894    1.104635
     28          1           0       -5.334241   -2.206192    0.412909
     29          1           0       -5.591385   -1.729099   -1.272071
     30          1           0       -6.866252   -1.459480   -0.071519
     31          6           0       -3.071004    1.355077    0.146219
     32          6           0       -1.558203    1.407272   -0.069870
     33          6           0       -0.965441    2.784490    0.229621
     34          1           0       -3.551821    2.108993   -0.492390
     35          1           0       -3.296580    1.635070    1.184325
     36          1           0       -1.336189    1.126936   -1.107530
     37          1           0       -1.080499    0.652538    0.567930
     38          1           0       -1.157849    3.068929    1.269177
     39          1           0       -1.414992    3.546022   -0.415805
     40          1           0        0.117019    2.799310    0.068624
 ---------------------------------------------------------------------

 SCF Done:  E(RHF) =  -470.733168032     A.U. after   11 cycles
 E2 =    -0.1583155090D+01 EUMP2 =    -0.47231632312278D+03

 The electronic state is 1-A.
 Alpha  occ. eigenvalues --  -11.21608 -11.21594 -11.21571 -11.21526 -11.21411
 Alpha  occ. eigenvalues --  -11.21388 -11.21349 -11.21325 -11.21084 -11.21073
 Alpha  occ. eigenvalues --  -11.21066 -11.21047  -1.08447  -1.08397  -1.03561
 Alpha  occ. eigenvalues --   -1.03481  -0.95987  -0.95959  -0.87001  -0.86975
 Alpha  occ. eigenvalues --   -0.79710  -0.79475  -0.78332  -0.78131  -0.65131
 Alpha  occ. eigenvalues --   -0.64988  -0.61049  -0.60810  -0.59449  -0.59234
 Alpha  occ. eigenvalues --   -0.57638  -0.57524  -0.55286  -0.55239  -0.52701
 Alpha  occ. eigenvalues --   -0.52632  -0.52406  -0.52383  -0.49960  -0.49879
 Alpha  occ. eigenvalues --   -0.48104  -0.47735  -0.46829  -0.46449  -0.45931
 Alpha  occ. eigenvalues --   -0.45772  -0.45700  -0.45403  -0.43786  -0.43758
 Alpha virt. eigenvalues --    0.21205   0.22992   0.23715   0.24180   0.25979
 Alpha virt. eigenvalues --    0.26234   0.26647   0.27189   0.28765   0.29069
 Alpha virt. eigenvalues --    0.30702   0.31312   0.31606   0.31765   0.32208

 Mulliken charges:
               1
     1  C   -0.298337
     2  C   -0.299588
     3  C   -0.475722
     4  H    0.149605
     5  H    0.149112
     6  H    0.151978
     7  H    0.151920
     8  H    0.155170
     9  H    0.155149
    10  H    0.160244
    11  C   -0.297805
    12  C   -0.304492
    13  C   -0.477742
    14  H    0.149298
    15  H    0.149245
    16  H    0.151655
    17  H    0.158359
    18  H    0.154349
    19  H    0.155285
    20  H    0.161901
    21  C   -0.299332
    22  C   -0.299608
    23  C   -0.475777
    24  H    0.149604
    25  H    0.150103
    26  H    0.152030
    27  H    0.151989
    28  H    0.155295
    29  H    0.155168
    30  H    0.160299
    31  C   -0.297757
    32  C   -0.303660
    33  C   -0.477094
    34  H    0.149456
    35  H    0.149413
    36  H    0.152777
    37  H    0.156433
    38  H    0.154847
    39  H    0.155549
    40  H    0.160680
 Sum of Mulliken charges =  -0.00000

 Dipole moment (field-independent basis, Debye):
    X=             -0.0157    Y=              0.0076    Z=             -0.0071  Tot=              0.0188
 Quadrupole moment (field-independent basis, Debye-Ang):
   XX=            -85.6197   YY=            -86.1779   ZZ=            -83.0633
   XY=             -1.2277   XZ=              0.0223   YZ=              0.1579

 Normal termination of Gaussian 16 at Wed May  5 19:45:30 2021.
