 Gaussian 16, Revision A.03,
 Gaussian 16:  EM64L-G16RevA.03 25-Dec-2016

 -------------
 #p 6-31g* mp2
 -------------

 ------------------------------------------------------
 Input file generated by CHIRIPA (05-May-2021 14:51:13)
 ------------------------------------------------------
 Symbolic Z-matrix:
 Charge =  0 Multiplicity = 1

                         Standard orientation:
 ---------------------------------------------------------------------
 Center     Atomic      Atomic             Coordinates (Angstroms)
 Number     Number       Type             X           Y           Z
 ---------------------------------------------------------------------
      1          6           0       -2.921170   -0.332877   -0.744772
      2          6           0       -1.967751   -1.525343   -0.828448
      3          6           0       -2.498693   -2.645008   -1.724129
      4          1           0       -3.894527   -0.675529   -0.367797
      5          1           0       -3.097808    0.058135   -1.756357
      6          1           0       -1.791873   -1.913126    0.183138
      7          1           0       -0.996492   -1.179778   -1.205087
      8          1           0       -2.657079   -2.280048   -2.744089
      9          1           0       -3.456980   -3.017563   -1.347976
     10          1           0       -1.801470   -3.487425   -1.769674
     11          6           0       -2.404272    0.794632    0.147006
     12          6           0       -3.357691    1.987098    0.230682
     13          6           0       -2.826748    3.106764    1.126362
     14          1           0       -2.227633    0.403621    1.158590
     15          1           0       -1.430914    1.137285   -0.229970
     16          1           0       -4.328950    1.641533    0.607320
     17          1           0       -3.533569    2.374882   -0.780905
     18          1           0       -1.868462    3.479319    0.750210
     19          1           0       -2.668362    2.741804    2.146323
     20          1           0       -3.523971    3.949181    1.171908
     21          6           0        2.752000    0.218475   -0.312299
     22          6           0        4.119323    0.900533   -0.368911
     23          6           0        4.282780    1.796144   -1.597308
     24          1           0        2.608566   -0.377449   -1.224026
     25          1           0        1.966413    0.986749   -0.314232
     26          1           0        4.902134    0.131240   -0.365474
     27          1           0        4.259598    1.494750    0.543146
     28          1           0        3.523026    2.584394   -1.603204
     29          1           0        4.169213    1.213137   -2.516985
     30          1           0        5.267329    2.273746   -1.617787
     31          6           0        2.573442   -0.680230    0.910065
     32          6           0        1.206118   -1.362290    0.966677
     33          6           0        1.042661   -2.257899    2.195074
     34          1           0        3.359028   -1.448506    0.911998
     35          1           0        2.716875   -0.084307    1.821793
     36          1           0        1.065844   -1.956505    0.054621
     37          1           0        0.423307   -0.592997    0.963240
     38          1           0        1.156229   -1.674893    3.114752
     39          1           0        1.802415   -3.046150    2.200969
     40          1           0        0.058112   -2.735502    2.215553
 ---------------------------------------------------------------------

 SCF Done:  E(RHF) =  -470.732050243     A.U. after   11 cycles
 E2 =    -0.1584625954D+01 EUMP2 =    -0.47231667619683D+03

 The electronic state is 1-A.
 Alpha  occ. eigenvalues --  -11.21633 -11.21603 -11.21486 -11.21432 -11.21428
 Alpha  occ. eigenvalues --  -11.21390 -11.21345 -11.21295 -11.21111 -11.21082
 Alpha  occ. eigenvalues --  -11.21036 -11.21034  -1.08476  -1.08360  -1.03577
 Alpha  occ. eigenvalues --   -1.03444  -0.95990  -0.95955  -0.87008  -0.86967
 Alpha  occ. eigenvalues --   -0.79817  -0.79429  -0.78499  -0.77903  -0.65070
 Alpha  occ. eigenvalues --   -0.65026  -0.60948  -0.60873  -0.59536  -0.59177
 Alpha  occ. eigenvalues --   -0.57671  -0.57487  -0.55279  -0.55243  -0.52705
 Alpha  occ. eigenvalues --   -0.52628  -0.52411  -0.52385  -0.49931  -0.49895
 Alpha  occ. eigenvalues --   -0.48234  -0.47684  -0.46683  -0.46565  -0.46224
 Alpha  occ. eigenvalues --   -0.45750  -0.45594  -0.45083  -0.43790  -0.43727
 Alpha virt. eigenvalues --    0.21215   0.22945   0.23463   0.24230   0.24696
 Alpha virt. eigenvalues --    0.25824   0.26549   0.27828   0.28598   0.29925
 Alpha virt. eigenvalues --    0.30539   0.30879   0.31488   0.31849   0.32088

 Mulliken charges:
               1
     1  C   -0.297774
     2  C   -0.303684
     3  C   -0.475945
     4  H    0.149187
     5  H    0.149263
     6  H    0.155174
     7  H    0.156224
     8  H    0.154822
     9  H    0.154716
    10  H    0.159629
    11  C   -0.301305
    12  C   -0.299382
    13  C   -0.475735
    14  H    0.150005
    15  H    0.150595
    16  H    0.152199
    17  H    0.152169
    18  H    0.154740
    19  H    0.155107
    20  H    0.160529
    21  C   -0.299140
    22  C   -0.299453
    23  C   -0.475687
    24  H    0.149018
    25  H    0.149104
    26  H    0.152109
    27  H    0.152132
    28  H    0.154889
    29  H    0.155052
    30  H    0.160347
    31  C   -0.298066
    32  C   -0.305348
    33  C   -0.477760
    34  H    0.148852
    35  H    0.149135
    36  H    0.153858
    37  H    0.160583
    38  H    0.154783
    39  H    0.154983
    40  H    0.160074
 Sum of Mulliken charges =  -0.00000

 Dipole moment (field-independent basis, Debye):
    X=             -0.0167    Y=              0.0083    Z=             -0.0046  Tot=              0.0192
 Quadrupole moment (field-independent basis, Debye-Ang):
   XX=            -84.6871   YY=            -85.3342   ZZ=            -85.0023
   XY=             -0.5421   XZ=             -0.5635   YZ=              0.1137

 Normal termination of Gaussian 16 at Thu May  6 00:48:37 2021.
