 Gaussian 16, Revision A.03,
 Gaussian 16:  EM64L-G16RevA.03 25-Dec-2016

 -------------
 #p 6-31g* mp2
 -------------

 ------------------------------------------------------
 Input file generated by CHIRIPA (05-May-2021 14:55:19)
 ------------------------------------------------------
 Symbolic Z-matrix:
 Charge =  0 Multiplicity = 1

                         Standard orientation:
 ---------------------------------------------------------------------
 Center     Atomic      Atomic             Coordinates (Angstroms)
 Number     Number       Type             X           Y           Z
 ---------------------------------------------------------------------
      1          6           0       -4.967579   -1.254150    0.711625
      2          6           0       -5.109050   -0.151679   -0.137530
      3          6           0       -3.983718    0.534688   -0.603445
      4          6           0       -2.726365    0.089390   -0.198400
      5          6           0       -2.552764   -1.005585    0.646692
      6          6           0       -3.692136   -1.676840    1.100341
      7          1           0       -5.847218   -1.781467    1.068794
      8          1           0       -6.098336    0.178822   -0.441054
      9          1           0       -4.064431    1.391223   -1.261663
     10          1           0       -1.553534   -1.311497    0.931955
     11          1           0       -3.579248   -2.532715    1.759719
     12          7           0       -1.527594    0.808016   -0.685150
     13          8           0       -0.430891    0.395828   -0.313695
     14          8           0       -1.707400    1.769857   -1.428903
     15          6           0        3.896750    0.749118    0.381112
     16          6           0        2.653301    1.631345    0.497270
     17          6           0        2.977834    3.052646    0.958112
     18          1           0        4.405422    0.713430    1.354212
     19          1           0        4.601699    1.211991   -0.323296
     20          1           0        1.950312    1.166246    1.200196
     21          1           0        2.147424    1.664783   -0.476171
     22          1           0        3.660309    3.539536    0.254005
     23          1           0        3.462076    3.038166    1.939897
     24          1           0        2.074625    3.666050    1.034330
     25          6           0        3.588527   -0.674754   -0.078577
     26          6           0        4.831977   -1.556982   -0.194734
     27          6           0        4.507443   -2.978282   -0.655576
     28          1           0        2.883577   -1.137627    0.625831
     29          1           0        3.079855   -0.639066   -1.051677
     30          1           0        5.337853   -1.590419    0.778707
     31          1           0        5.534966   -1.091882   -0.897661
     32          1           0        4.023201   -2.963802   -1.637361
     33          1           0        3.824968   -3.465172    0.048531
     34          1           0        5.410652   -3.591686   -0.731795
 ---------------------------------------------------------------------

 SCF Done:  E(RHF) =  -669.535499249     A.U. after   15 cycles
 E2 =    -0.2091623829D+01 EUMP2 =    -0.67162712307810D+03

 The electronic state is 1-A.
 Alpha  occ. eigenvalues --  -20.60942 -20.60931 -15.85966 -11.31299 -11.27864
 Alpha  occ. eigenvalues --  -11.27860 -11.27601 -11.26872 -11.26862 -11.20790
 Alpha  occ. eigenvalues --  -11.20461 -11.20259 -11.20117 -11.19782 -11.19715
 Alpha  occ. eigenvalues --   -1.60004  -1.39560  -1.19469  -1.08873  -1.07245
 Alpha  occ. eigenvalues --   -1.04866  -1.02367  -0.95714  -0.94893  -0.86266
 Alpha  occ. eigenvalues --   -0.85919  -0.82552  -0.78443  -0.77611  -0.76943
 Alpha  occ. eigenvalues --   -0.72172  -0.71317  -0.70577  -0.65123  -0.64869
 Alpha  occ. eigenvalues --   -0.63897  -0.62214  -0.59777  -0.58277  -0.56455
 Alpha  occ. eigenvalues --   -0.55369  -0.54214  -0.53197  -0.52958  -0.51618
 Alpha  occ. eigenvalues --   -0.51303  -0.49043  -0.48955  -0.48853  -0.46714
 Alpha  occ. eigenvalues --   -0.45482  -0.45011  -0.44406  -0.44356  -0.42622
 Alpha  occ. eigenvalues --   -0.37447  -0.36468
 Alpha virt. eigenvalues --    0.04920   0.11187   0.16408   0.21295   0.23897
 Alpha virt. eigenvalues --    0.25395   0.27139   0.27648   0.28117   0.28820
 Alpha virt. eigenvalues --    0.29093   0.30957   0.32326   0.32513   0.32969

 Mulliken charges:
               1
     1  C   -0.170619
     2  C   -0.218565
     3  C   -0.170642
     4  C    0.157666
     5  C   -0.170824
     6  C   -0.218501
     7  H    0.226013
     8  H    0.223819
     9  H    0.275832
    10  H    0.275553
    11  H    0.223839
    12  N    0.490535
    13  O   -0.459845
    14  O   -0.459882
    15  C   -0.299421
    16  C   -0.297036
    17  C   -0.476086
    18  H    0.142568
    19  H    0.145124
    20  H    0.153603
    21  H    0.171805
    22  H    0.150593
    23  H    0.147284
    24  H    0.160229
    25  C   -0.295234
    26  C   -0.298870
    27  C   -0.474406
    28  H    0.146767
    29  H    0.155472
    30  H    0.148728
    31  H    0.150448
    32  H    0.155194
    33  H    0.151801
    34  H    0.157059
 Sum of Mulliken charges =  -0.00000

 Dipole moment (field-independent basis, Debye):
    X=             -4.6011    Y=             -2.5143    Z=              1.5877  Tot=              5.4783
 Quadrupole moment (field-independent basis, Debye-Ang):
   XX=            -71.9264   YY=            -95.4208   ZZ=            -94.0871
   XY=              4.5150   XZ=             -2.7924   YZ=             -2.2370

 Normal termination of Gaussian 16 at Wed May  5 22:08:19 2021.
