 Gaussian 16, Revision A.03,
 Gaussian 16:  EM64L-G16RevA.03 25-Dec-2016

 -------------
 #p 6-31g* mp2
 -------------

 ------------------------------------------------------
 Input file generated by CHIRIPA (05-May-2021 14:55:20)
 ------------------------------------------------------
 Symbolic Z-matrix:
 Charge =  0 Multiplicity = 1

                         Standard orientation:
 ---------------------------------------------------------------------
 Center     Atomic      Atomic             Coordinates (Angstroms)
 Number     Number       Type             X           Y           Z
 ---------------------------------------------------------------------
      1          6           0        4.571767    1.253591    0.583124
      2          6           0        4.887920   -0.108615    0.552106
      3          6           0        3.919831   -1.054378    0.201557
      4          6           0        2.639884   -0.600799   -0.113551
      5          6           0        2.294111    0.749481   -0.091776
      6          6           0        3.278152    1.677544    0.261651
      7          1           0        5.329998    1.981407    0.856557
      8          1           0        5.891734   -0.440747    0.801287
      9          1           0        4.137426   -2.115057    0.169487
     10          1           0        1.284773    1.050176   -0.345225
     11          1           0        3.029776    2.734811    0.284896
     12          7           0        1.606568   -1.592667   -0.486185
     13          8           0        0.486267   -1.167406   -0.759529
     14          8           0        1.936521   -2.776572   -0.497856
     15          6           0       -3.462986    1.266725   -0.189565
     16          6           0       -2.014417    1.716904    0.002714
     17          6           0       -1.761873    3.133250   -0.514955
     18          1           0       -3.718060    1.319480   -1.256851
     19          1           0       -4.130084    1.971089    0.326426
     20          1           0       -1.350164    1.011128   -0.512325
     21          1           0       -1.762701    1.662887    1.069643
     22          1           0       -2.400677    3.853542    0.006303
     23          1           0       -1.985797    3.198079   -1.584654
     24          1           0       -0.720142    3.434780   -0.367526
     25          6           0       -3.731093   -0.147167    0.323033
     26          6           0       -5.179663   -0.597346    0.130755
     27          6           0       -5.432207   -2.013692    0.648423
     28          1           0       -3.063996   -0.851531   -0.192958
     29          1           0       -3.476019   -0.199922    1.390319
     30          1           0       -5.431378   -0.543329   -0.936175
     31          1           0       -5.843915    0.108430    0.645793
     32          1           0       -5.208283   -2.078521    1.718122
     33          1           0       -4.793403   -2.733984    0.127165
     34          1           0       -6.473937   -2.315222    0.500994
 ---------------------------------------------------------------------

 SCF Done:  E(RHF) =  -669.536107631     A.U. after   15 cycles
 E2 =    -0.2091847387D+01 EUMP2 =    -0.67162795501803D+03

 The electronic state is 1-A.
 Alpha  occ. eigenvalues --  -20.60903 -20.60897 -15.85943 -11.31237 -11.27807
 Alpha  occ. eigenvalues --  -11.27783 -11.27544 -11.26811 -11.26797 -11.21169
 Alpha  occ. eigenvalues --  -11.21079 -11.20968 -11.20880 -11.20592 -11.20428
 Alpha  occ. eigenvalues --   -1.59967  -1.39524  -1.19409  -1.08819  -1.07869
 Alpha  occ. eigenvalues --   -1.04802  -1.03082  -0.95666  -0.95544  -0.86557
 Alpha  occ. eigenvalues --   -0.86205  -0.82502  -0.79145  -0.77713  -0.77473
 Alpha  occ. eigenvalues --   -0.72172  -0.71279  -0.70521  -0.65071  -0.64818
 Alpha  occ. eigenvalues --   -0.64475  -0.62167  -0.60460  -0.58952  -0.57155
 Alpha  occ. eigenvalues --   -0.55309  -0.54818  -0.53136  -0.52893  -0.52288
 Alpha  occ. eigenvalues --   -0.51969  -0.49479  -0.48938  -0.48913  -0.47434
 Alpha  occ. eigenvalues --   -0.46113  -0.45222  -0.45086  -0.44870  -0.43304
 Alpha  occ. eigenvalues --   -0.37391  -0.36402
 Alpha virt. eigenvalues --    0.04976   0.11248   0.16475   0.20185   0.23347
 Alpha virt. eigenvalues --    0.24075   0.26440   0.27134   0.27605   0.28357
 Alpha virt. eigenvalues --    0.29404   0.30571   0.31621   0.31862   0.32532

 Mulliken charges:
               1
     1  C   -0.170221
     2  C   -0.219054
     3  C   -0.170134
     4  C    0.156030
     5  C   -0.173709
     6  C   -0.221293
     7  H    0.225840
     8  H    0.223592
     9  H    0.275587
    10  H    0.285587
    11  H    0.224060
    12  N    0.492480
    13  O   -0.467263
    14  O   -0.459461
    15  C   -0.296557
    16  C   -0.316149
    17  C   -0.474662
    18  H    0.149551
    19  H    0.145861
    20  H    0.175970
    21  H    0.148420
    22  H    0.155660
    23  H    0.157252
    24  H    0.146284
    25  C   -0.302343
    26  C   -0.299403
    27  C   -0.475845
    28  H    0.166000
    29  H    0.147212
    30  H    0.151213
    31  H    0.148409
    32  H    0.153920
    33  H    0.159572
    34  H    0.157598
 Sum of Mulliken charges =  -0.00000

 Dipole moment (field-independent basis, Debye):
    X=              3.7303    Y=              3.2927    Z=              1.2501  Tot=              5.1303
 Quadrupole moment (field-independent basis, Debye-Ang):
   XX=            -74.0961   YY=            -97.9039   ZZ=            -95.1831
   XY=              4.2012   XZ=              3.7800   YZ=             -0.9784

 Normal termination of Gaussian 16 at Wed May  5 15:54:19 2021.
