 Gaussian 16, Revision A.03,
 Gaussian 16:  EM64L-G16RevA.03 25-Dec-2016

 -------------
 #p 6-31g* mp2
 -------------

 ------------------------------------------------------
 Input file generated by CHIRIPA (05-May-2021 14:55:24)
 ------------------------------------------------------
 Symbolic Z-matrix:
 Charge =  0 Multiplicity = 1

                         Standard orientation:
 ---------------------------------------------------------------------
 Center     Atomic      Atomic             Coordinates (Angstroms)
 Number     Number       Type             X           Y           Z
 ---------------------------------------------------------------------
      1          6           0       -5.276217    0.468976   -0.783021
      2          6           0       -4.328751   -0.171477   -1.588409
      3          6           0       -3.053091   -0.457773   -1.093157
      4          6           0       -2.757444   -0.087878    0.217973
      5          6           0       -3.679765    0.551286    1.045066
      6          6           0       -4.949276    0.827681    0.528834
      7          1           0       -6.264792    0.687531   -1.175893
      8          1           0       -4.579875   -0.451209   -2.607591
      9          1           0       -2.300481   -0.952650   -1.694898
     10          1           0       -3.400106    0.817948    2.057044
     11          1           0       -5.683087    1.325164    1.156590
     12          7           0       -1.410215   -0.385726    0.753379
     13          8           0       -1.174509   -0.049557    1.911857
     14          8           0       -0.615473   -0.949707    0.004416
     15          6           0        3.638422    0.729599   -0.466664
     16          6           0        4.410235    1.888839    0.164568
     17          6           0        4.048602    3.242557   -0.447367
     18          1           0        3.837307    0.710145   -1.546947
     19          1           0        2.560665    0.909403   -0.350450
     20          1           0        5.486235    1.706222    0.048418
     21          1           0        4.209641    1.905418    1.243504
     22          1           0        2.981530    3.450823   -0.318593
     23          1           0        4.265378    3.250494   -1.520468
     24          1           0        4.611887    4.057097    0.018569
     25          6           0        3.989056   -0.630298    0.134552
     26          6           0        3.217244   -1.789538   -0.496679
     27          6           0        3.578876   -3.143256    0.115254
     28          1           0        5.066813   -0.810102    0.018339
     29          1           0        3.790172   -0.610844    1.214835
     30          1           0        3.417838   -1.806118   -1.575616
     31          1           0        2.141244   -1.606922   -0.380531
     32          1           0        3.362101   -3.151195    1.188356
     33          1           0        4.645949   -3.351522   -0.013519
     34          1           0        3.015592   -3.957796   -0.350680
 ---------------------------------------------------------------------

 SCF Done:  E(RHF) =  -669.536515864     A.U. after   15 cycles
 E2 =    -0.2091035370D+01 EUMP2 =    -0.67162755123387D+03

 The electronic state is 1-A.
 Alpha  occ. eigenvalues --  -20.61062 -20.61045 -15.86084 -11.31357 -11.27914
 Alpha  occ. eigenvalues --  -11.27909 -11.27644 -11.26911 -11.26901 -11.20674
 Alpha  occ. eigenvalues --  -11.20342 -11.20213 -11.20088 -11.19984 -11.19810
 Alpha  occ. eigenvalues --   -1.60113  -1.39669  -1.19520  -1.08934  -1.07219
 Alpha  occ. eigenvalues --   -1.04909  -1.02373  -0.95783  -0.94872  -0.86311
 Alpha  occ. eigenvalues --   -0.85896  -0.82619  -0.78451  -0.77676  -0.76998
 Alpha  occ. eigenvalues --   -0.72305  -0.71422  -0.70628  -0.65177  -0.64912
 Alpha  occ. eigenvalues --   -0.63831  -0.62256  -0.59754  -0.58259  -0.56471
 Alpha  occ. eigenvalues --   -0.55416  -0.54162  -0.53243  -0.53000  -0.51602
 Alpha  occ. eigenvalues --   -0.51302  -0.49123  -0.49056  -0.48791  -0.46769
 Alpha  occ. eigenvalues --   -0.45442  -0.45107  -0.44574  -0.44338  -0.42624
 Alpha  occ. eigenvalues --   -0.37497  -0.36508
 Alpha virt. eigenvalues --    0.04849   0.11148   0.16356   0.21279   0.24061
 Alpha virt. eigenvalues --    0.25426   0.27210   0.27783   0.28166   0.28777
 Alpha virt. eigenvalues --    0.29079   0.30869   0.32315   0.32512   0.32891

 Mulliken charges:
               1
     1  C   -0.170418
     2  C   -0.218556
     3  C   -0.170703
     4  C    0.157213
     5  C   -0.170312
     6  C   -0.218631
     7  H    0.226252
     8  H    0.224121
     9  H    0.276110
    10  H    0.275933
    11  H    0.224029
    12  N    0.492765
    13  O   -0.458906
    14  O   -0.464139
    15  C   -0.299567
    16  C   -0.298996
    17  C   -0.474935
    18  H    0.144408
    19  H    0.158425
    20  H    0.148751
    21  H    0.153102
    22  H    0.154737
    23  H    0.152528
    24  H    0.157117
    25  C   -0.296325
    26  C   -0.313418
    27  C   -0.474065
    28  H    0.142810
    29  H    0.152199
    30  H    0.142969
    31  H    0.184132
    32  H    0.156357
    33  H    0.148515
    34  H    0.156499
 Sum of Mulliken charges =  -0.00000

 Dipole moment (field-independent basis, Debye):
    X=             -5.1729    Y=              1.0495    Z=             -1.8026  Tot=              5.5777
 Quadrupole moment (field-independent basis, Debye-Ang):
   XX=            -69.7438   YY=            -96.6485   ZZ=            -91.6140
   XY=             -3.0189   XZ=              2.8011   YZ=              2.9492

 Normal termination of Gaussian 16 at Wed May  5 23:58:41 2021.
