 Gaussian 16, Revision A.03,
 Gaussian 16:  EM64L-G16RevA.03 25-Dec-2016

 -------------
 #p 6-31g* mp2
 -------------

 ------------------------------------------------------
 Input file generated by CHIRIPA (05-May-2021 14:55:24)
 ------------------------------------------------------
 Symbolic Z-matrix:
 Charge =  0 Multiplicity = 1

                         Standard orientation:
 ---------------------------------------------------------------------
 Center     Atomic      Atomic             Coordinates (Angstroms)
 Number     Number       Type             X           Y           Z
 ---------------------------------------------------------------------
      1          6           0       -4.826140    1.326820    0.522413
      2          6           0       -3.547083    1.885530    0.430888
      3          6           0       -2.447051    1.090029    0.096736
      4          6           0       -2.663250   -0.266544   -0.140452
      5          6           0       -3.925328   -0.852636   -0.057108
      6          6           0       -5.010854   -0.038074    0.278553
      7          1           0       -5.675037    1.952188    0.782576
      8          1           0       -3.400656    2.945218    0.619738
      9          1           0       -1.446014    1.496591    0.018958
     10          1           0       -4.039948   -1.912206   -0.250992
     11          1           0       -6.003051   -0.474698    0.348907
     12          7           0       -1.506374   -1.118795   -0.495002
     13          8           0       -1.723309   -2.311218   -0.699213
     14          8           0       -0.404585   -0.578228   -0.561974
     15          6           0        3.506785   -0.543829   -0.149421
     16          6           0        3.797019   -1.633353    0.883383
     17          6           0        3.499545   -3.038699    0.359642
     18          1           0        2.453232   -0.607707   -0.454203
     19          1           0        4.105128   -0.734365   -1.051129
     20          1           0        3.199343   -1.440043    1.783400
     21          1           0        4.849955   -1.566751    1.185884
     22          1           0        4.106101   -3.256383   -0.525403
     23          1           0        2.446111   -3.128953    0.075507
     24          1           0        3.714045   -3.802045    1.114064
     25          6           0        3.799243    0.866599    0.359387
     26          6           0        3.509009    1.956125   -0.673417
     27          6           0        3.806483    3.361471   -0.149677
     28          1           0        3.200900    1.057137    1.261094
     29          1           0        4.852796    0.930479    0.664168
     30          1           0        2.456073    1.889523   -0.975919
     31          1           0        4.106685    1.762813   -1.573435
     32          1           0        4.859917    3.451725    0.134458
     33          1           0        3.199927    3.579154    0.735369
     34          1           0        3.591983    4.124816   -0.904099
 ---------------------------------------------------------------------

 SCF Done:  E(RHF) =  -669.536461848     A.U. after   15 cycles
 E2 =    -0.2091179801D+01 EUMP2 =    -0.67162764164876D+03

 The electronic state is 1-A.
 Alpha  occ. eigenvalues --  -20.61053 -20.61048 -15.86087 -11.31362 -11.27921
 Alpha  occ. eigenvalues --  -11.27915 -11.27648 -11.26917 -11.26907 -11.20847
 Alpha  occ. eigenvalues --  -11.20596 -11.20439 -11.20414 -11.19938 -11.19780
 Alpha  occ. eigenvalues --   -1.60111  -1.39669  -1.19526  -1.08938  -1.07367
 Alpha  occ. eigenvalues --   -1.04916  -1.02557  -0.95788  -0.95001  -0.86318
 Alpha  occ. eigenvalues --   -0.86021  -0.82625  -0.78648  -0.77686  -0.77117
 Alpha  occ. eigenvalues --   -0.72313  -0.71422  -0.70634  -0.65185  -0.64918
 Alpha  occ. eigenvalues --   -0.63981  -0.62264  -0.59953  -0.58411  -0.56606
 Alpha  occ. eigenvalues --   -0.55421  -0.54279  -0.53249  -0.53007  -0.51756
 Alpha  occ. eigenvalues --   -0.51421  -0.49128  -0.49058  -0.48879  -0.46959
 Alpha  occ. eigenvalues --   -0.45683  -0.45098  -0.44701  -0.44460  -0.42771
 Alpha  occ. eigenvalues --   -0.37502  -0.36515
 Alpha virt. eigenvalues --    0.04848   0.11141   0.16354   0.21166   0.23722
 Alpha virt. eigenvalues --    0.25267   0.26949   0.27424   0.28034   0.28854
 Alpha virt. eigenvalues --    0.29046   0.30940   0.32071   0.32468   0.32568

 Mulliken charges:
               1
     1  C   -0.170451
     2  C   -0.218537
     3  C   -0.170729
     4  C    0.157394
     5  C   -0.170290
     6  C   -0.218611
     7  H    0.226291
     8  H    0.224199
     9  H    0.275441
    10  H    0.276042
    11  H    0.224071
    12  N    0.494513
    13  O   -0.458473
    14  O   -0.466973
    15  C   -0.312660
    16  C   -0.296809
    17  C   -0.478789
    18  H    0.181916
    19  H    0.144129
    20  H    0.149309
    21  H    0.145298
    22  H    0.151405
    23  H    0.169675
    24  H    0.154198
    25  C   -0.295907
    26  C   -0.299979
    27  C   -0.474926
    28  H    0.146062
    29  H    0.144998
    30  H    0.155010
    31  H    0.151038
    32  H    0.154379
    33  H    0.151105
    34  H    0.156662
 Sum of Mulliken charges =  -0.00000

 Dipole moment (field-independent basis, Debye):
    X=             -4.4695    Y=              2.8954    Z=              1.1580  Tot=              5.4498
 Quadrupole moment (field-independent basis, Debye-Ang):
   XX=            -71.9399   YY=            -95.1049   ZZ=            -96.1012
   XY=             -4.6690   XZ=             -3.3534   YZ=             -0.4982

 Normal termination of Gaussian 16 at Thu May  6 03:10:18 2021.
