 Gaussian 16, Revision A.03,
 Gaussian 16:  EM64L-G16RevA.03 25-Dec-2016

 -------------
 #p 6-31g* mp2
 -------------

 ------------------------------------------------------
 Input file generated by CHIRIPA (05-May-2021 14:55:20)
 ------------------------------------------------------
 Symbolic Z-matrix:
 Charge =  0 Multiplicity = 1

                         Standard orientation:
 ---------------------------------------------------------------------
 Center     Atomic      Atomic             Coordinates (Angstroms)
 Number     Number       Type             X           Y           Z
 ---------------------------------------------------------------------
      1          6           0       -2.738647   -2.219793   -0.506850
      2          6           0       -4.031282   -1.944774   -0.048613
      3          6           0       -4.438638   -0.626824    0.178578
      4          6           0       -3.523452    0.396354   -0.063971
      5          6           0       -2.228768    0.154478   -0.520676
      6          6           0       -1.843094   -1.171138   -0.741006
      7          1           0       -2.430624   -3.246586   -0.680673
      8          1           0       -4.728900   -2.757174    0.134091
      9          1           0       -5.433353   -0.385561    0.533194
     10          1           0       -1.555690    0.985391   -0.693788
     11          1           0       -0.838588   -1.381749   -1.096893
     12          7           0       -3.943225    1.795667    0.172914
     13          8           0       -3.118082    2.679297   -0.048384
     14          8           0       -5.089438    1.982322    0.575398
     15          6           0        3.675334   -0.373008    0.160892
     16          6           0        3.383343   -1.843683    0.460627
     17          6           0        1.886341   -2.149898    0.515492
     18          1           0        3.199559    0.252536    0.928536
     19          1           0        3.209286   -0.101594   -0.796463
     20          1           0        3.850974   -2.112610    1.416459
     21          1           0        3.860029   -2.465808   -0.307712
     22          1           0        1.408623   -1.909164   -0.439721
     23          1           0        1.399515   -1.553958    1.294246
     24          1           0        1.700368   -3.206699    0.731002
     25          6           0        5.167593   -0.051262    0.102820
     26          6           0        5.459583    1.419413   -0.196916
     27          6           0        6.956586    1.725627   -0.251781
     28          1           0        5.633642   -0.322676    1.060174
     29          1           0        5.643368   -0.676806   -0.664824
     30          1           0        4.982897    2.041538    0.571424
     31          1           0        4.991954    1.688340   -1.152748
     32          1           0        7.443412    1.129688   -1.030535
     33          1           0        7.434304    1.484894    0.703433
     34          1           0        7.142559    2.782429   -0.467291
 ---------------------------------------------------------------------

 SCF Done:  E(RHF) =  -669.535448023     A.U. after   15 cycles
 E2 =    -0.2090872549D+01 EUMP2 =    -0.67162632057205D+03

 The electronic state is 1-A.
 Alpha  occ. eigenvalues --  -20.60714 -20.60709 -15.85767 -11.31117 -11.27685
 Alpha  occ. eigenvalues --  -11.27670 -11.27415 -11.26702 -11.26651 -11.22256
 Alpha  occ. eigenvalues --  -11.22014 -11.21911 -11.21868 -11.21744 -11.21274
 Alpha  occ. eigenvalues --   -1.59790  -1.39344  -1.19285  -1.08905  -1.08682
 Alpha  occ. eigenvalues --   -1.04686  -1.04029  -0.96502  -0.95521  -0.87530
 Alpha  occ. eigenvalues --   -0.86081  -0.82354  -0.80105  -0.78687  -0.77403
 Alpha  occ. eigenvalues --   -0.71985  -0.71113  -0.70393  -0.65540  -0.64936
 Alpha  occ. eigenvalues --   -0.64705  -0.62070  -0.61406  -0.59879  -0.58090
 Alpha  occ. eigenvalues --   -0.55811  -0.55182  -0.53238  -0.53088  -0.52983
 Alpha  occ. eigenvalues --   -0.52611  -0.50437  -0.48750  -0.48741  -0.48395
 Alpha  occ. eigenvalues --   -0.47120  -0.46235  -0.46137  -0.44753  -0.44271
 Alpha  occ. eigenvalues --   -0.37263  -0.36282
 Alpha virt. eigenvalues --    0.05128   0.11337   0.16609   0.20363   0.22545
 Alpha virt. eigenvalues --    0.23841   0.25341   0.26467   0.27235   0.28353
 Alpha virt. eigenvalues --    0.28694   0.29932   0.31157   0.31566   0.32164

 Mulliken charges:
               1
     1  C   -0.172578
     2  C   -0.218582
     3  C   -0.171320
     4  C    0.158653
     5  C   -0.173264
     6  C   -0.220291
     7  H    0.225721
     8  H    0.223049
     9  H    0.275268
    10  H    0.275609
    11  H    0.230241
    12  N    0.488077
    13  O   -0.460615
    14  O   -0.460731
    15  C   -0.298927
    16  C   -0.299470
    17  C   -0.478938
    18  H    0.152043
    19  H    0.146941
    20  H    0.155305
    21  H    0.152891
    22  H    0.144971
    23  H    0.160676
    24  H    0.161037
    25  C   -0.298675
    26  C   -0.300256
    27  C   -0.476052
    28  H    0.150776
    29  H    0.149855
    30  H    0.153730
    31  H    0.152160
    32  H    0.155108
    33  H    0.155689
    34  H    0.161897
 Sum of Mulliken charges =  -0.00000

 Dipole moment (field-independent basis, Debye):
    X=              1.6556    Y=             -4.9297    Z=             -0.7656  Tot=              5.2563
 Quadrupole moment (field-independent basis, Debye-Ang):
   XX=           -101.7824   YY=            -98.8273   ZZ=            -94.0271
   XY=             19.4878   XZ=              1.5915   YZ=             -0.3790

 Normal termination of Gaussian 16 at Thu May  6 14:06:18 2021.
