 Gaussian 16, Revision A.03,
 Gaussian 16:  EM64L-G16RevA.03 25-Dec-2016

 -------------
 #p 6-31g* mp2
 -------------

 ------------------------------------------------------
 Input file generated by CHIRIPA (05-May-2021 14:55:24)
 ------------------------------------------------------
 Symbolic Z-matrix:
 Charge =  0 Multiplicity = 1

                         Standard orientation:
 ---------------------------------------------------------------------
 Center     Atomic      Atomic             Coordinates (Angstroms)
 Number     Number       Type             X           Y           Z
 ---------------------------------------------------------------------
      1          6           0       -3.200413   -1.316105   -1.863878
      2          6           0       -2.067929   -0.502331   -1.972382
      3          6           0       -1.588144    0.198452   -0.861861
      4          6           0       -2.268383    0.061801    0.347226
      5          6           0       -3.399310   -0.741145    0.487120
      6          6           0       -3.861324   -1.432709   -0.636637
      7          1           0       -3.566219   -1.856909   -2.731699
      8          1           0       -1.552645   -0.409881   -2.924212
      9          1           0       -0.713712    0.835363   -0.917812
     10          1           0       -3.891768   -0.813348    1.449248
     11          1           0       -4.741068   -2.063971   -0.549431
     12          7           0       -1.769862    0.798809    1.529891
     13          8           0       -2.387054    0.661572    2.583873
     14          8           0       -0.771370    1.499757    1.380489
     15          6           0        3.261351   -0.628576   -0.345436
     16          6           0        3.603727   -1.430940    0.910341
     17          6           0        4.107778   -2.839129    0.592963
     18          1           0        2.500000   -1.170606   -0.922924
     19          1           0        4.152250   -0.564565   -0.985434
     20          1           0        2.712828   -1.492240    1.548429
     21          1           0        4.364212   -0.886844    1.485005
     22          1           0        5.011121   -2.795018   -0.023988
     23          1           0        3.350352   -3.403854    0.039796
     24          1           0        4.346618   -3.395086    1.504954
     25          6           0        2.756043    0.781322   -0.044474
     26          6           0        2.413667    1.583686   -1.300251
     27          6           0        1.909617    2.991876   -0.982873
     28          1           0        1.865145    0.717311    0.595524
     29          1           0        3.517394    1.323352    0.533015
     30          1           0        1.653181    1.039590   -1.874915
     31          1           0        3.304568    1.644986   -1.938338
     32          1           0        2.667043    3.556600   -0.429707
     33          1           0        1.006275    2.947764   -0.365922
     34          1           0        1.670777    3.547833   -1.894864
 ---------------------------------------------------------------------

 SCF Done:  E(RHF) =  -669.536067199     A.U. after   15 cycles
 E2 =    -0.2093268391D+01 EUMP2 =    -0.67162933558986D+03

 The electronic state is 1-A.
 Alpha  occ. eigenvalues --  -20.61062 -20.61036 -15.86068 -11.31319 -11.27882
 Alpha  occ. eigenvalues --  -11.27855 -11.27609 -11.26877 -11.26863 -11.21477
 Alpha  occ. eigenvalues --  -11.21294 -11.21112 -11.20878 -11.20810 -11.20571
 Alpha  occ. eigenvalues --   -1.60104  -1.39665  -1.19487  -1.08905  -1.08111
 Alpha  occ. eigenvalues --   -1.04874  -1.03253  -0.95762  -0.95652  -0.86670
 Alpha  occ. eigenvalues --   -0.86279  -0.82602  -0.79314  -0.77922  -0.77641
 Alpha  occ. eigenvalues --   -0.72309  -0.71408  -0.70604  -0.65159  -0.65011
 Alpha  occ. eigenvalues --   -0.64638  -0.62253  -0.60605  -0.59030  -0.57269
 Alpha  occ. eigenvalues --   -0.55385  -0.54932  -0.53209  -0.52951  -0.52385
 Alpha  occ. eigenvalues --   -0.52059  -0.49605  -0.49094  -0.49039  -0.47604
 Alpha  occ. eigenvalues --   -0.46346  -0.45483  -0.45470  -0.44853  -0.43474
 Alpha  occ. eigenvalues --   -0.37465  -0.36469
 Alpha virt. eigenvalues --    0.04815   0.11156   0.16306   0.19769   0.23095
 Alpha virt. eigenvalues --    0.24157   0.26257   0.27302   0.28031   0.28314
 Alpha virt. eigenvalues --    0.29284   0.30814   0.31584   0.31944   0.32231

 Mulliken charges:
               1
     1  C   -0.170070
     2  C   -0.222055
     3  C   -0.177064
     4  C    0.156513
     5  C   -0.169936
     6  C   -0.219031
     7  H    0.226260
     8  H    0.224663
     9  H    0.289134
    10  H    0.275773
    11  H    0.223974
    12  N    0.492666
    13  O   -0.457631
    14  O   -0.466657
    15  C   -0.297041
    16  C   -0.299629
    17  C   -0.475358
    18  H    0.142910
    19  H    0.147228
    20  H    0.155096
    21  H    0.153267
    22  H    0.154061
    23  H    0.152622
    24  H    0.160392
    25  C   -0.310069
    26  C   -0.299158
    27  C   -0.488771
    28  H    0.172036
    29  H    0.151091
    30  H    0.133306
    31  H    0.151881
    32  H    0.157818
    33  H    0.178012
    34  H    0.153767
 Sum of Mulliken charges =  -0.00000

 Dipole moment (field-independent basis, Debye):
    X=             -1.9228    Y=             -2.5306    Z=             -3.9134  Tot=              5.0414
 Quadrupole moment (field-independent basis, Debye-Ang):
   XX=            -83.6390   YY=            -96.0404   ZZ=            -96.7716
   XY=              8.5548   XZ=              7.1042   YZ=             -2.0520

 Normal termination of Gaussian 16 at Wed May  5 20:45:16 2021.
