 Gaussian 16, Revision A.03,
 Gaussian 16:  EM64L-G16RevA.03 25-Dec-2016

 -------------
 #p 6-31g* mp2
 -------------

 ------------------------------------------------------
 Input file generated by CHIRIPA (05-May-2021 14:55:20)
 ------------------------------------------------------
 Symbolic Z-matrix:
 Charge =  0 Multiplicity = 1

                         Standard orientation:
 ---------------------------------------------------------------------
 Center     Atomic      Atomic             Coordinates (Angstroms)
 Number     Number       Type             X           Y           Z
 ---------------------------------------------------------------------
      1          6           0        1.243916    1.642216    1.148053
      2          6           0        2.076143    1.979357    0.075552
      3          6           0        2.949609    1.033795   -0.469899
      4          6           0        2.964947   -0.245269    0.084220
      5          6           0        2.148070   -0.611629    1.152762
      6          6           0        1.282468    0.350078    1.682293
      7          1           0        0.568441    2.383022    1.565589
      8          1           0        2.048337    2.982079   -0.341366
      9          1           0        3.604735    1.267923   -1.300207
     10          1           0        2.198273   -1.619305    1.547080
     11          1           0        0.637287    0.085433    2.515209
     12          7           0        3.885484   -1.254839   -0.484798
     13          8           0        3.880013   -2.374847    0.021354
     14          8           0        4.595041   -0.907016   -1.426172
     15          6           0       -4.228412   -0.320790   -0.336596
     16          6           0       -4.090983   -1.755257    0.174679
     17          6           0       -5.354428   -2.586523   -0.050034
     18          1           0       -5.079533    0.160342    0.164455
     19          1           0       -4.468330   -0.342449   -1.408681
     20          1           0       -3.850031   -1.730875    1.245177
     21          1           0       -3.239972   -2.232967   -0.327506
     22          1           0       -5.595346   -2.640600   -1.116633
     23          1           0       -6.208872   -2.135655    0.464985
     24          1           0       -5.234221   -3.608463    0.322859
     25          6           0       -2.973460    0.522723   -0.119086
     26          6           0       -3.110889    1.957190   -0.630363
     27          6           0       -1.847444    2.788456   -0.405649
     28          1           0       -2.733542    0.544382    0.952998
     29          1           0       -2.122339    0.041592   -0.620137
     30          1           0       -3.961899    2.434900   -0.128177
     31          1           0       -3.351840    1.932808   -1.700860
     32          1           0       -0.993000    2.337588   -0.920667
     33          1           0       -1.606525    2.842533    0.660951
     34          1           0       -1.967652    3.810396   -0.778542
 ---------------------------------------------------------------------

 SCF Done:  E(RHF) =  -669.534771988     A.U. after   15 cycles
 E2 =    -0.2092269079D+01 EUMP2 =    -0.67162704106666D+03

 The electronic state is 1-A.
 Alpha  occ. eigenvalues --  -20.60734 -20.60729 -15.85790 -11.31133 -11.27728
 Alpha  occ. eigenvalues --  -11.27724 -11.27414 -11.26707 -11.26695 -11.22293
 Alpha  occ. eigenvalues --  -11.21997 -11.21988 -11.21981 -11.21829 -11.21371
 Alpha  occ. eigenvalues --   -1.59812  -1.39365  -1.19320  -1.08984  -1.08707
 Alpha  occ. eigenvalues --   -1.04722  -1.04100  -0.96578  -0.95542  -0.87600
 Alpha  occ. eigenvalues --   -0.86113  -0.82384  -0.80182  -0.78775  -0.77431
 Alpha  occ. eigenvalues --   -0.72007  -0.71137  -0.70436  -0.65607  -0.64967
 Alpha  occ. eigenvalues --   -0.64720  -0.62071  -0.61499  -0.59942  -0.58195
 Alpha  occ. eigenvalues --   -0.55939  -0.55187  -0.53270  -0.53230  -0.52810
 Alpha  occ. eigenvalues --   -0.52766  -0.50505  -0.48766  -0.48763  -0.48466
 Alpha  occ. eigenvalues --   -0.47193  -0.46321  -0.46224  -0.44776  -0.44343
 Alpha  occ. eigenvalues --   -0.37222  -0.36331
 Alpha virt. eigenvalues --    0.05105   0.11223   0.16565   0.20484   0.22514
 Alpha virt. eigenvalues --    0.23936   0.25548   0.26282   0.26839   0.27752
 Alpha virt. eigenvalues --    0.28794   0.30063   0.31104   0.31481   0.32038

 Mulliken charges:
               1
     1  C   -0.165574
     2  C   -0.221737
     3  C   -0.171486
     4  C    0.157708
     5  C   -0.170830
     6  C   -0.220098
     7  H    0.228996
     8  H    0.224226
     9  H    0.275405
    10  H    0.275471
    11  H    0.223092
    12  N    0.488135
    13  O   -0.460711
    14  O   -0.460748
    15  C   -0.298747
    16  C   -0.300042
    17  C   -0.476020
    18  H    0.149872
    19  H    0.151614
    20  H    0.149618
    21  H    0.154094
    22  H    0.156569
    23  H    0.155179
    24  H    0.161731
    25  C   -0.298332
    26  C   -0.299375
    27  C   -0.480294
    28  H    0.143182
    29  H    0.154083
    30  H    0.153098
    31  H    0.155466
    32  H    0.161364
    33  H    0.143719
    34  H    0.161372
 Sum of Mulliken charges =  -0.00000

 Dipole moment (field-independent basis, Debye):
    X=             -3.3550    Y=              3.5174    Z=              1.9259  Tot=              5.2285
 Quadrupole moment (field-independent basis, Debye-Ang):
   XX=           -114.5856   YY=            -95.1333   ZZ=            -91.8168
   XY=             12.1863   XZ=              4.3014   YZ=             -2.6432

 Normal termination of Gaussian 16 at Wed May  5 15:53:46 2021.
