 Gaussian 16, Revision A.03,
 Gaussian 16:  EM64L-G16RevA.03 25-Dec-2016

 -------------
 #p 6-31g* mp2
 -------------

 ------------------------------------------------------
 Input file generated by CHIRIPA (05-May-2021 14:53:13)
 ------------------------------------------------------
 Symbolic Z-matrix:
 Charge =  0 Multiplicity = 1

                         Standard orientation:
 ---------------------------------------------------------------------
 Center     Atomic      Atomic             Coordinates (Angstroms)
 Number     Number       Type             X           Y           Z
 ---------------------------------------------------------------------
      1          6           0       -2.683125   -0.034632   -0.024099
      2          6           0       -4.160174   -0.428036   -0.063392
      3          6           0       -4.369972   -1.942018   -0.022954
      4          1           0       -2.163322   -0.501051   -0.872157
      5          1           0       -2.225694   -0.444921    0.886843
      6          1           0       -4.615012   -0.015957   -0.973299
      7          1           0       -4.676560    0.039530    0.784750
      8          1           0       -3.942296   -2.365914    0.891380
      9          1           0       -3.880399   -2.421716   -0.876657
     10          1           0       -5.432977   -2.200933   -0.051997
     11          6           0       -2.457196    1.475700   -0.063857
     12          6           0       -0.980147    1.869104   -0.024564
     13          6           0       -0.770349    3.383086   -0.065002
     14          1           0       -2.914627    1.885989   -0.974799
     15          1           0       -2.976999    1.942119    0.784201
     16          1           0       -0.463762    1.401538   -0.872706
     17          1           0       -0.525309    1.457025    0.885342
     18          1           0       -1.259922    3.862784    0.788701
     19          1           0       -1.198025    3.806982   -0.979336
     20          1           0        0.292656    3.642001   -0.035959
     21          6           0        1.423396   -3.017213    0.008567
     22          6           0        1.759620   -2.365160   -1.182357
     23          6           0        2.085231   -1.005557   -1.179939
     24          6           0        2.064450   -0.325645    0.036851
     25          6           0        1.733682   -0.947258    1.239964
     26          6           0        1.411520   -2.307432    1.213803
     27          1           0        1.171793   -4.073608   -0.002533
     28          1           0        1.769670   -2.913864   -2.119836
     29          1           0        2.349250   -0.476013   -2.087295
     30          1           0        1.732386   -0.373715    2.158913
     31          1           0        1.150795   -2.811232    2.140222
     32          7           0        2.407333    1.114009    0.051979
     33          8           0        2.381660    1.690583    1.137125
     34          8           0        2.695265    1.638575   -1.021595
 ---------------------------------------------------------------------

 SCF Done:  E(RHF) =  -669.536006292     A.U. after   15 cycles
 E2 =    -0.2094780732D+01 EUMP2 =    -0.67163078702399D+03

 The electronic state is 1-A.
 Alpha  occ. eigenvalues --  -20.60945 -20.60940 -15.85923 -11.31227 -11.27794
 Alpha  occ. eigenvalues --  -11.27790 -11.27528 -11.26816 -11.26806 -11.21600
 Alpha  occ. eigenvalues --  -11.21272 -11.21231 -11.21050 -11.20985 -11.20023
 Alpha  occ. eigenvalues --   -1.59979  -1.39540  -1.19401  -1.08812  -1.08180
 Alpha  occ. eigenvalues --   -1.04802  -1.03198  -0.95666  -0.95615  -0.86639
 Alpha  occ. eigenvalues --   -0.86204  -0.82503  -0.79336  -0.78034  -0.77549
 Alpha  occ. eigenvalues --   -0.72172  -0.71266  -0.70518  -0.65070  -0.64832
 Alpha  occ. eigenvalues --   -0.64799  -0.62157  -0.60607  -0.59025  -0.57184
 Alpha  occ. eigenvalues --   -0.55306  -0.54934  -0.53151  -0.52899  -0.52254
 Alpha  occ. eigenvalues --   -0.52046  -0.49602  -0.48946  -0.48922  -0.47602
 Alpha  occ. eigenvalues --   -0.46431  -0.45644  -0.45504  -0.44658  -0.43423
 Alpha  occ. eigenvalues --   -0.37328  -0.36388
 Alpha virt. eigenvalues --    0.04933   0.11148   0.16418   0.21320   0.23047
 Alpha virt. eigenvalues --    0.24712   0.26624   0.27216   0.27504   0.28252
 Alpha virt. eigenvalues --    0.28485   0.30720   0.31307   0.31919   0.32578

 Mulliken charges:
               1
     1  C   -0.296928
     2  C   -0.299304
     3  C   -0.474730
     4  H    0.147698
     5  H    0.145781
     6  H    0.152498
     7  H    0.152335
     8  H    0.152176
     9  H    0.152779
    10  H    0.160313
    11  C   -0.297308
    12  C   -0.308889
    13  C   -0.478774
    14  H    0.149049
    15  H    0.149291
    16  H    0.148138
    17  H    0.153369
    18  H    0.151086
    19  H    0.150436
    20  H    0.182540
    21  C   -0.170144
    22  C   -0.218410
    23  C   -0.172667
    24  C    0.162200
    25  C   -0.171862
    26  C   -0.218237
    27  H    0.225925
    28  H    0.223551
    29  H    0.275467
    30  H    0.275086
    31  H    0.223553
    32  N    0.491982
    33  O   -0.458693
    34  O   -0.459305
 Sum of Mulliken charges =  -0.00000

 Dipole moment (field-independent basis, Debye):
    X=             -1.0009    Y=             -4.9945    Z=             -0.0387  Tot=              5.0939
 Quadrupole moment (field-independent basis, Debye-Ang):
   XX=           -100.9142   YY=            -92.9159   ZZ=            -88.8627
   XY=            -10.3593   XZ=             -1.0226   YZ=              0.0765

 Normal termination of Gaussian 16 at Thu May  6 10:28:43 2021.
