 Gaussian 16, Revision A.03,
 Gaussian 16:  EM64L-G16RevA.03 25-Dec-2016

 -------------
 #p 6-31g* mp2
 -------------

 ------------------------------------------------------
 Input file generated by CHIRIPA (05-May-2021 14:51:09)
 ------------------------------------------------------
 Symbolic Z-matrix:
 Charge =  0 Multiplicity = 1

                         Standard orientation:
 ---------------------------------------------------------------------
 Center     Atomic      Atomic             Coordinates (Angstroms)
 Number     Number       Type             X           Y           Z
 ---------------------------------------------------------------------
      1          6           0       -3.776012    0.725995   -0.392616
      2          6           0       -3.701711    1.836474    0.655859
      3          6           0       -4.499815    3.078722    0.258814
      4          1           0       -3.404580    1.110985   -1.352182
      5          1           0       -4.828003    0.451604   -0.552052
      6          1           0       -2.650074    2.107727    0.814280
      7          1           0       -4.073184    1.448739    1.613088
      8          1           0       -5.556792    2.829446    0.120027
      9          1           0       -4.125597    3.492179   -0.683319
     10          1           0       -4.432915    3.859906    1.022448
     11          6           0       -2.983127   -0.522470   -0.009997
     12          6           0       -3.057428   -1.632949   -1.058472
     13          6           0       -2.259324   -2.875197   -0.661427
     14          1           0       -1.931136   -0.248079    0.149439
     15          1           0       -3.354559   -0.907460    0.949569
     16          1           0       -2.685955   -1.245214   -2.015700
     17          1           0       -4.109065   -1.904202   -1.216893
     18          1           0       -2.633542   -3.288654    0.280706
     19          1           0       -1.202347   -2.625921   -0.522640
     20          1           0       -2.326224   -3.656381   -1.425061
     21          6           0        3.113628   -0.803662    0.342884
     22          6           0        1.669317   -0.815073    0.844701
     23          6           0        1.151503   -2.226431    1.123506
     24          1           0        3.182052   -1.408235   -0.571859
     25          1           0        3.757322   -1.290785    1.088380
     26          1           0        1.028747   -0.326840    0.099105
     27          1           0        1.604285   -0.210245    1.758249
     28          1           0        1.766293   -2.719169    1.883666
     29          1           0        1.187485   -2.836427    0.215094
     30          1           0        0.117250   -2.211236    1.481209
     31          6           0        3.645511    0.600137    0.059729
     32          6           0        5.089822    0.611548   -0.442088
     33          6           0        5.607636    2.022906   -0.720894
     34          1           0        3.001817    1.087260   -0.685767
     35          1           0        3.577087    1.204710    0.974472
     36          1           0        5.154853    0.006721   -1.355636
     37          1           0        5.730392    0.123316    0.303509
     38          1           0        5.571654    2.632902    0.187518
     39          1           0        4.992846    2.515645   -1.481053
     40          1           0        6.641887    2.007712   -1.078596
 ---------------------------------------------------------------------

 SCF Done:  E(RHF) =  -470.732600539     A.U. after   11 cycles
 E2 =    -0.1583367004D+01 EUMP2 =    -0.47231596754384D+03

 The electronic state is 1-A.
 Alpha  occ. eigenvalues --  -11.21660 -11.21627 -11.21589 -11.21555 -11.21442
 Alpha  occ. eigenvalues --  -11.21391 -11.21382 -11.21332 -11.21093 -11.21062
 Alpha  occ. eigenvalues --  -11.21053 -11.20921  -1.08472  -1.08404  -1.03587
 Alpha  occ. eigenvalues --   -1.03475  -0.96052  -0.95906  -0.87097  -0.86897
 Alpha  occ. eigenvalues --   -0.79672  -0.79518  -0.78285  -0.78222  -0.65158
 Alpha  occ. eigenvalues --   -0.64995  -0.61119  -0.60779  -0.59485  -0.59224
 Alpha  occ. eigenvalues --   -0.57672  -0.57504  -0.55484  -0.55074  -0.52816
 Alpha  occ. eigenvalues --   -0.52635  -0.52433  -0.52260  -0.50140  -0.49685
 Alpha  occ. eigenvalues --   -0.47960  -0.47827  -0.46692  -0.46525  -0.45874
 Alpha  occ. eigenvalues --   -0.45761  -0.45748  -0.45604  -0.43792  -0.43748
 Alpha virt. eigenvalues --    0.20765   0.23136   0.23536   0.25123   0.25895
 Alpha virt. eigenvalues --    0.26742   0.26981   0.27199   0.28272   0.29183
 Alpha virt. eigenvalues --    0.30228   0.31236   0.31464   0.31756   0.32350

 Mulliken charges:
               1
     1  C   -0.298051
     2  C   -0.299741
     3  C   -0.475682
     4  H    0.149418
     5  H    0.149653
     6  H    0.152144
     7  H    0.151873
     8  H    0.155157
     9  H    0.155113
    10  H    0.160230
    11  C   -0.302393
    12  C   -0.298890
    13  C   -0.483693
    14  H    0.152946
    15  H    0.149314
    16  H    0.151069
    17  H    0.151549
    18  H    0.153978
    19  H    0.166825
    20  H    0.159146
    21  C   -0.298344
    22  C   -0.302745
    23  C   -0.481135
    24  H    0.149850
    25  H    0.150001
    26  H    0.152418
    27  H    0.152655
    28  H    0.156188
    29  H    0.155623
    30  H    0.165442
    31  C   -0.298310
    32  C   -0.299685
    33  C   -0.475727
    34  H    0.149247
    35  H    0.149764
    36  H    0.151995
    37  H    0.152059
    38  H    0.155232
    39  H    0.155140
    40  H    0.160366
 Sum of Mulliken charges =  -0.00000

 Dipole moment (field-independent basis, Debye):
    X=              0.0414    Y=             -0.0083    Z=              0.0236  Tot=              0.0484
 Quadrupole moment (field-independent basis, Debye-Ang):
   XX=            -84.6508   YY=            -86.5069   ZZ=            -83.7097
   XY=              0.2880   XZ=             -0.0521   YZ=              0.2124

 Normal termination of Gaussian 16 at Wed May  5 23:00:14 2021.
