 Gaussian 16, Revision A.03,
 Gaussian 16:  EM64L-G16RevA.03 25-Dec-2016

 -------------
 #p 6-31g* mp2
 -------------

 ------------------------------------------------------
 Input file generated by CHIRIPA (05-May-2021 14:55:18)
 ------------------------------------------------------
 Symbolic Z-matrix:
 Charge =  0 Multiplicity = 1

                         Standard orientation:
 ---------------------------------------------------------------------
 Center     Atomic      Atomic             Coordinates (Angstroms)
 Number     Number       Type             X           Y           Z
 ---------------------------------------------------------------------
      1          6           0        6.008306   -0.219702    1.078509
      2          6           0        5.161382   -1.304933    0.830488
      3          6           0        3.921556   -1.111612    0.214042
      4          6           0        3.558829    0.186229   -0.142791
      5          6           0        4.380562    1.287779    0.090944
      6          6           0        5.615885    1.070915    0.708598
      7          1           0        6.969683   -0.379023    1.557848
      8          1           0        5.463528   -2.308350    1.116682
      9          1           0        3.246414   -1.933842    0.010230
     10          1           0        4.051834    2.276372   -0.205769
     11          1           0        6.271575    1.915598    0.899978
     12          7           0        2.248664    0.403351   -0.796034
     13          8           0        1.952348    1.556596   -1.100761
     14          8           0        1.542882   -0.583825   -0.990949
     15          6           0       -5.526966   -0.335912    0.326886
     16          6           0       -6.424503    0.900631    0.384969
     17          6           0       -7.812115    0.597832    0.951219
     18          1           0       -6.014445   -1.106527   -0.285864
     19          1           0       -5.427960   -0.756324    1.337255
     20          1           0       -6.520665    1.319388   -0.624988
     21          1           0       -5.934744    1.668462    0.997494
     22          1           0       -7.734825    0.201089    1.968677
     23          1           0       -8.324074   -0.149969    0.336977
     24          1           0       -8.437133    1.495694    0.983755
     25          6           0       -4.136419   -0.049225   -0.236957
     26          6           0       -3.238883   -1.285768   -0.295041
     27          6           0       -1.851270   -0.982970   -0.861290
     28          1           0       -4.235425    0.371186   -1.247327
     29          1           0       -3.648941    0.721390    0.375792
     30          1           0       -3.728642   -2.053600   -0.907565
     31          1           0       -3.142721   -1.704526    0.714915
     32          1           0       -1.339311   -0.235169   -0.247050
     33          1           0       -1.928561   -0.586227   -1.878750
     34          1           0       -1.226253   -1.880831   -0.893827
 ---------------------------------------------------------------------

 SCF Done:  E(RHF) =  -669.535527318     A.U. after   15 cycles
 E2 =    -0.2091021809D+01 EUMP2 =    -0.67162654912653D+03

 The electronic state is 1-A.
 Alpha  occ. eigenvalues --  -20.60873 -20.60849 -15.85897 -11.31258 -11.27825
 Alpha  occ. eigenvalues --  -11.27822 -11.27568 -11.26840 -11.26830 -11.20962
 Alpha  occ. eigenvalues --  -11.20612 -11.20556 -11.20388 -11.20322 -11.19234
 Alpha  occ. eigenvalues --   -1.59927  -1.39482  -1.19429  -1.08826  -1.07516
 Alpha  occ. eigenvalues --   -1.04831  -1.02516  -0.95666  -0.94918  -0.86231
 Alpha  occ. eigenvalues --   -0.85918  -0.82493  -0.78604  -0.77544  -0.77285
 Alpha  occ. eigenvalues --   -0.72109  -0.71248  -0.70538  -0.65083  -0.64833
 Alpha  occ. eigenvalues --   -0.64162  -0.62178  -0.59927  -0.58373  -0.56533
 Alpha  occ. eigenvalues --   -0.55334  -0.54222  -0.53161  -0.52924  -0.51592
 Alpha  occ. eigenvalues --   -0.51349  -0.49001  -0.48872  -0.48722  -0.46881
 Alpha  occ. eigenvalues --   -0.45688  -0.44938  -0.44791  -0.44679  -0.42742
 Alpha  occ. eigenvalues --   -0.37410  -0.36434
 Alpha virt. eigenvalues --    0.04979   0.11220   0.16469   0.21352   0.23698
 Alpha virt. eigenvalues --    0.25336   0.27267   0.27516   0.28185   0.28345
 Alpha virt. eigenvalues --    0.29142   0.30920   0.32381   0.32416   0.32620

 Mulliken charges:
               1
     1  C   -0.170722
     2  C   -0.218532
     3  C   -0.170875
     4  C    0.157954
     5  C   -0.170780
     6  C   -0.218568
     7  H    0.225831
     8  H    0.223672
     9  H    0.275613
    10  H    0.275787
    11  H    0.223669
    12  N    0.489496
    13  O   -0.459913
    14  O   -0.458870
    15  C   -0.297174
    16  C   -0.298943
    17  C   -0.475147
    18  H    0.147872
    19  H    0.147192
    20  H    0.151661
    21  H    0.151299
    22  H    0.153887
    23  H    0.154246
    24  H    0.158471
    25  C   -0.297091
    26  C   -0.302813
    27  C   -0.464154
    28  H    0.149366
    29  H    0.149351
    30  H    0.146346
    31  H    0.145799
    32  H    0.160963
    33  H    0.154390
    34  H    0.160718
 Sum of Mulliken charges =  -0.00000

 Dipole moment (field-independent basis, Debye):
    X=              4.9735    Y=             -0.7239    Z=              2.2354  Tot=              5.5006
 Quadrupole moment (field-independent basis, Debye-Ang):
   XX=            -64.8406   YY=            -90.3727   ZZ=            -95.5508
   XY=             -1.0523   XZ=              8.6307   YZ=              0.4638

 Normal termination of Gaussian 16 at Thu May  6 14:01:40 2021.
