 Gaussian 16, Revision A.03,
 Gaussian 16:  EM64L-G16RevA.03 25-Dec-2016

 -------------
 #p 6-31g* mp2
 -------------

 ------------------------------------------------------
 Input file generated by CHIRIPA (05-May-2021 14:51:11)
 ------------------------------------------------------
 Symbolic Z-matrix:
 Charge =  0 Multiplicity = 1

                         Standard orientation:
 ---------------------------------------------------------------------
 Center     Atomic      Atomic             Coordinates (Angstroms)
 Number     Number       Type             X           Y           Z
 ---------------------------------------------------------------------
      1          6           0       -3.087259   -0.702608   -0.098453
      2          6           0       -2.168187   -1.315406    0.958794
      3          6           0       -1.541785   -2.634232    0.504801
      4          1           0       -3.880714   -1.420942   -0.346182
      5          1           0       -2.514447   -0.538872   -1.021747
      6          1           0       -2.742218   -1.476657    1.880262
      7          1           0       -1.376938   -0.595454    1.204175
      8          1           0       -0.945455   -2.485718   -0.401254
      9          1           0       -2.318492   -3.371927    0.278674
     10          1           0       -0.888579   -3.054798    1.275714
     11          6           0       -3.720996    0.616198    0.340701
     12          6           0       -4.640067    1.228995   -0.716546
     13          6           0       -5.266470    2.547822   -0.262553
     14          1           0       -4.293807    0.452461    1.263995
     15          1           0       -2.927540    1.334532    0.588430
     16          1           0       -5.431316    0.509044   -0.961927
     17          1           0       -4.066036    1.390246   -1.638014
     18          1           0       -4.489762    3.285516   -0.036427
     19          1           0       -5.862799    2.399307    0.643502
     20          1           0       -5.919675    2.968388   -1.033466
     21          6           0        3.302914   -0.601740   -0.517651
     22          6           0        2.209309   -1.502136    0.057934
     23          6           0        2.018632   -2.788507   -0.746235
     24          1           0        3.053472   -0.351912   -1.557992
     25          1           0        4.249042   -1.159673   -0.548410
     26          1           0        1.265831   -0.942218    0.088885
     27          1           0        2.461286   -1.749693    1.097088
     28          1           0        2.945409   -3.370972   -0.766714
     29          1           0        1.743163   -2.558910   -1.780645
     30          1           0        1.232173   -3.417270   -0.317286
     31          6           0        3.505341    0.688150    0.275404
     32          6           0        4.598945    1.588546   -0.300183
     33          6           0        4.789622    2.874917    0.503987
     34          1           0        2.559213    1.246084    0.306163
     35          1           0        3.754781    0.438323    1.315745
     36          1           0        4.346969    1.836104   -1.339336
     37          1           0        5.542423    1.028629   -0.331133
     38          1           0        5.065092    2.645320    1.538396
     39          1           0        3.862845    3.457382    0.524465
     40          1           0        5.576082    3.503681    0.075039
 ---------------------------------------------------------------------

 SCF Done:  E(RHF) =  -470.732317909     A.U. after   11 cycles
 E2 =    -0.1583502009D+01 EUMP2 =    -0.47231581991803D+03

 The electronic state is 1-A.
 Alpha  occ. eigenvalues --  -11.21618 -11.21610 -11.21603 -11.21576 -11.21422
 Alpha  occ. eigenvalues --  -11.21407 -11.21363 -11.21347 -11.21085 -11.21081
 Alpha  occ. eigenvalues --  -11.21016 -11.20955  -1.08460  -1.08412  -1.03600
 Alpha  occ. eigenvalues --   -1.03459  -0.96085  -0.95874  -0.87102  -0.86894
 Alpha  occ. eigenvalues --   -0.79644  -0.79545  -0.78262  -0.78236  -0.65173
 Alpha  occ. eigenvalues --   -0.64984  -0.61194  -0.60748  -0.59518  -0.59185
 Alpha  occ. eigenvalues --   -0.57625  -0.57577  -0.55425  -0.55053  -0.52914
 Alpha  occ. eigenvalues --   -0.52548  -0.52420  -0.52237  -0.49974  -0.49802
 Alpha  occ. eigenvalues --   -0.47918  -0.47903  -0.46664  -0.46562  -0.45840
 Alpha  occ. eigenvalues --   -0.45773  -0.45723  -0.45654  -0.43874  -0.43667
 Alpha virt. eigenvalues --    0.20990   0.23178   0.23520   0.25020   0.26095
 Alpha virt. eigenvalues --    0.26878   0.27029   0.27195   0.28157   0.29398
 Alpha virt. eigenvalues --    0.29501   0.31056   0.31616   0.31798   0.32467

 Mulliken charges:
               1
     1  C   -0.298556
     2  C   -0.302002
     3  C   -0.479950
     4  H    0.149869
     5  H    0.149134
     6  H    0.151977
     7  H    0.153376
     8  H    0.162112
     9  H    0.154683
    10  H    0.160327
    11  C   -0.298262
    12  C   -0.299641
    13  C   -0.475704
    14  H    0.149706
    15  H    0.149414
    16  H    0.152037
    17  H    0.151784
    18  H    0.155128
    19  H    0.155264
    20  H    0.160297
    21  C   -0.297971
    22  C   -0.302823
    23  C   -0.481074
    24  H    0.149301
    25  H    0.149740
    26  H    0.155012
    27  H    0.151632
    28  H    0.154813
    29  H    0.153252
    30  H    0.167569
    31  C   -0.298128
    32  C   -0.299631
    33  C   -0.475688
    34  H    0.148819
    35  H    0.149723
    36  H    0.151859
    37  H    0.152049
    38  H    0.155229
    39  H    0.155034
    40  H    0.160292
 Sum of Mulliken charges =  -0.00000

 Dipole moment (field-independent basis, Debye):
    X=             -0.0187    Y=             -0.0219    Z=              0.0080  Tot=              0.0299
 Quadrupole moment (field-independent basis, Debye-Ang):
   XX=            -84.1013   YY=            -86.1362   ZZ=            -84.5835
   XY=              0.3636   XZ=              0.1212   YZ=             -1.1438

 Normal termination of Gaussian 16 at Wed May  5 15:13:28 2021.
