 Gaussian 16, Revision A.03,
 Gaussian 16:  EM64L-G16RevA.03 25-Dec-2016

 -------------
 #p 6-31g* mp2
 -------------

 ------------------------------------------------------
 Input file generated by CHIRIPA (05-May-2021 14:55:23)
 ------------------------------------------------------
 Symbolic Z-matrix:
 Charge =  0 Multiplicity = 1

                         Standard orientation:
 ---------------------------------------------------------------------
 Center     Atomic      Atomic             Coordinates (Angstroms)
 Number     Number       Type             X           Y           Z
 ---------------------------------------------------------------------
      1          6           0        1.425567   -2.467480    0.609600
      2          6           0        2.640607   -2.627582   -0.064615
      3          6           0        3.430106   -1.517301   -0.378488
      4          6           0        2.972031   -0.255836   -0.001442
      5          6           0        1.766154   -0.063825    0.671077
      6          6           0        0.992981   -1.188367    0.974651
      7          1           0        0.818607   -3.335511    0.849424
      8          1           0        2.979063   -3.619760   -0.349352
      9          1           0        4.374894   -1.612573   -0.899754
     10          1           0        1.455154    0.937844    0.941919
     11          1           0        0.049800   -1.061024    1.498328
     12          7           0        3.799197    0.927117   -0.328274
     13          8           0        3.373352    2.027817    0.014877
     14          8           0        4.857711    0.731216   -0.921407
     15          6           0       -3.075636    0.906534    0.342616
     16          6           0       -2.546050    2.197944   -0.281709
     17          6           0       -1.438076    2.845385    0.549558
     18          1           0       -3.451141    1.122024    1.352321
     19          1           0       -2.244499    0.197910    0.462857
     20          1           0       -3.378194    2.903408   -0.402011
     21          1           0       -2.171937    1.979390   -1.290119
     22          1           0       -0.589438    2.162415    0.658951
     23          1           0       -1.802548    3.091682    1.552104
     24          1           0       -1.074090    3.767085    0.084968
     25          6           0       -4.183766    0.247518   -0.476820
     26          6           0       -4.713353   -1.043892    0.147506
     27          6           0       -5.821328   -1.691334   -0.683763
     28          1           0       -5.014904    0.956141   -0.597060
     29          1           0       -3.808262    0.032027   -1.486525
     30          1           0       -5.087465   -0.825338    1.155915
     31          1           0       -3.881208   -1.749356    0.267807
     32          1           0       -5.456855   -1.937631   -1.686308
     33          1           0       -6.669965   -1.008363   -0.793154
     34          1           0       -6.185313   -2.613033   -0.219172
 ---------------------------------------------------------------------

 SCF Done:  E(RHF) =  -669.535421377     A.U. after   15 cycles
 E2 =    -0.2091792741D+01 EUMP2 =    -0.67162721411823D+03

 The electronic state is 1-A.
 Alpha  occ. eigenvalues --  -20.60761 -20.60755 -15.85814 -11.31195 -11.27773
 Alpha  occ. eigenvalues --  -11.27756 -11.27518 -11.26791 -11.26777 -11.22152
 Alpha  occ. eigenvalues --  -11.22023 -11.21965 -11.21864 -11.21523 -11.21477
 Alpha  occ. eigenvalues --   -1.59836  -1.39388  -1.19374  -1.08942  -1.08764
 Alpha  occ. eigenvalues --   -1.04782  -1.03996  -0.96447  -0.95596  -0.87462
 Alpha  occ. eigenvalues --   -0.86175  -0.82429  -0.80063  -0.78780  -0.77469
 Alpha  occ. eigenvalues --   -0.72033  -0.71159  -0.70491  -0.65581  -0.65025
 Alpha  occ. eigenvalues --   -0.64790  -0.62190  -0.61344  -0.59800  -0.58058
 Alpha  occ. eigenvalues --   -0.55766  -0.55271  -0.53112  -0.53105  -0.53037
 Alpha  occ. eigenvalues --   -0.52700  -0.50377  -0.48795  -0.48786  -0.48376
 Alpha  occ. eigenvalues --   -0.47097  -0.46312  -0.46231  -0.44790  -0.44253
 Alpha  occ. eigenvalues --   -0.37354  -0.36375
 Alpha virt. eigenvalues --    0.05036   0.11216   0.16436   0.19522   0.22708
 Alpha virt. eigenvalues --    0.23753   0.24994   0.25852   0.26674   0.28472
 Alpha virt. eigenvalues --    0.29090   0.30270   0.31320   0.31508   0.31643

 Mulliken charges:
               1
     1  C   -0.171131
     2  C   -0.218609
     3  C   -0.170474
     4  C    0.159848
     5  C   -0.179289
     6  C   -0.223216
     7  H    0.225802
     8  H    0.223543
     9  H    0.275714
    10  H    0.284440
    11  H    0.227049
    12  N    0.487452
    13  O   -0.459783
    14  O   -0.460536
    15  C   -0.300217
    16  C   -0.300400
    17  C   -0.477742
    18  H    0.150147
    19  H    0.141965
    20  H    0.154749
    21  H    0.155407
    22  H    0.147172
    23  H    0.155662
    24  H    0.169540
    25  C   -0.298495
    26  C   -0.299008
    27  C   -0.475959
    28  H    0.152246
    29  H    0.151554
    30  H    0.152439
    31  H    0.146599
    32  H    0.156016
    33  H    0.157129
    34  H    0.160387
 Sum of Mulliken charges =  -0.00000

 Dipole moment (field-independent basis, Debye):
    X=             -3.0127    Y=             -4.0643    Z=              1.0773  Tot=              5.1726
 Quadrupole moment (field-independent basis, Debye-Ang):
   XX=           -109.8540   YY=            -90.8063   ZZ=            -94.5421
   XY=            -15.1806   XZ=              1.1698   YZ=              1.0996

 Normal termination of Gaussian 16 at Thu May  6 20:52:00 2021.
