 Gaussian 16, Revision A.03,
 Gaussian 16:  EM64L-G16RevA.03 25-Dec-2016

 -------------
 #p 6-31g* mp2
 -------------

 ------------------------------------------------------
 Input file generated by CHIRIPA (05-May-2021 14:53:15)
 ------------------------------------------------------
 Symbolic Z-matrix:
 Charge =  0 Multiplicity = 1

                         Standard orientation:
 ---------------------------------------------------------------------
 Center     Atomic      Atomic             Coordinates (Angstroms)
 Number     Number       Type             X           Y           Z
 ---------------------------------------------------------------------
      1          6           0        2.967318    0.175707   -0.431535
      2          6           0        4.173286   -0.393324    0.316683
      3          6           0        4.602367   -1.763526   -0.208894
      4          1           0        2.128123   -0.528717   -0.351019
      5          1           0        3.210239    0.251609   -1.500471
      6          1           0        3.928646   -0.466835    1.384093
      7          1           0        5.009649    0.312625    0.234539
      8          1           0        4.872957   -1.702430   -1.267973
      9          1           0        3.785812   -2.486319   -0.111888
     10          1           0        5.465999   -2.151638    0.340076
     11          6           0        2.526472    1.545096    0.082427
     12          6           0        1.320504    2.114127   -0.665791
     13          6           0        0.891423    3.484329   -0.140214
     14          1           0        2.283551    1.469194    1.151363
     15          1           0        3.365667    2.249520    0.001912
     16          1           0        0.484141    1.408178   -0.583647
     17          1           0        1.565143    2.187638   -1.733201
     18          1           0        1.707977    4.207122   -0.237220
     19          1           0        0.620832    3.423233    0.918866
     20          1           0        0.027791    3.872441   -0.689184
     21          6           0       -4.089590    0.921601   -0.083319
     22          6           0       -3.940708   -0.130393   -0.993079
     23          6           0       -2.867669   -1.019531   -0.880972
     24          6           0       -1.958114   -0.826270    0.157608
     25          6           0       -2.079247    0.212184    1.079687
     26          6           0       -3.160022    1.089237    0.948341
     27          1           0       -4.926157    1.607610   -0.177879
     28          1           0       -4.661088   -0.263008   -1.795271
     29          1           0       -2.728409   -1.842486   -1.571457
     30          1           0       -1.344963    0.318808    1.868913
     31          1           0       -3.273129    1.905335    1.656322
     32          7           0       -0.818040   -1.761164    0.286476
     33          8           0       -0.030375   -1.569310    1.210280
     34          8           0       -0.733702   -2.668084   -0.538763
 ---------------------------------------------------------------------

 SCF Done:  E(RHF) =  -669.536423504     A.U. after   15 cycles
 E2 =    -0.2093038122D+01 EUMP2 =    -0.67162946162527D+03

 The electronic state is 1-A.
 Alpha  occ. eigenvalues --  -20.61046 -20.61039 -15.86061 -11.31358 -11.27916
 Alpha  occ. eigenvalues --  -11.27900 -11.27630 -11.26901 -11.26892 -11.21280
 Alpha  occ. eigenvalues --  -11.21021 -11.20754 -11.20602 -11.20323 -11.19984
 Alpha  occ. eigenvalues --   -1.60102  -1.39657  -1.19518  -1.08925  -1.07702
 Alpha  occ. eigenvalues --   -1.04903  -1.02867  -0.95772  -0.95318  -0.86350
 Alpha  occ. eigenvalues --   -0.86298  -0.82605  -0.78982  -0.77667  -0.77452
 Alpha  occ. eigenvalues --   -0.72283  -0.71425  -0.70619  -0.65172  -0.64901
 Alpha  occ. eigenvalues --   -0.64308  -0.62250  -0.60264  -0.58753  -0.56918
 Alpha  occ. eigenvalues --   -0.55405  -0.54606  -0.53228  -0.52991  -0.52074
 Alpha  occ. eigenvalues --   -0.51742  -0.49301  -0.49043  -0.49013  -0.47288
 Alpha  occ. eigenvalues --   -0.46020  -0.45370  -0.44980  -0.44532  -0.43087
 Alpha  occ. eigenvalues --   -0.37473  -0.36485
 Alpha virt. eigenvalues --    0.04823   0.11099   0.16309   0.21068   0.23244
 Alpha virt. eigenvalues --    0.24954   0.26817   0.27260   0.27936   0.28526
 Alpha virt. eigenvalues --    0.28626   0.31035   0.31741   0.32097   0.32638

 Mulliken charges:
               1
     1  C   -0.305132
     2  C   -0.297775
     3  C   -0.478169
     4  H    0.168231
     5  H    0.144033
     6  H    0.154846
     7  H    0.145715
     8  H    0.150925
     9  H    0.167495
    10  H    0.156027
    11  C   -0.296661
    12  C   -0.301050
    13  C   -0.473994
    14  H    0.149813
    15  H    0.146252
    16  H    0.148632
    17  H    0.151506
    18  H    0.156126
    19  H    0.149346
    20  H    0.156233
    21  C   -0.170441
    22  C   -0.218383
    23  C   -0.170846
    24  C    0.159051
    25  C   -0.170471
    26  C   -0.217864
    27  H    0.226399
    28  H    0.224139
    29  H    0.276140
    30  H    0.275896
    31  H    0.224573
    32  N    0.487574
    33  O   -0.459890
    34  O   -0.458274
 Sum of Mulliken charges =  -0.00000

 Dipole moment (field-independent basis, Debye):
    X=             -4.2311    Y=              3.0690    Z=             -0.4105  Tot=              5.2431
 Quadrupole moment (field-independent basis, Debye-Ang):
   XX=            -79.3239   YY=           -100.5550   ZZ=            -91.6697
   XY=             -1.9479   XZ=              1.6826   YZ=              2.7226

 Normal termination of Gaussian 16 at Wed May  5 15:39:27 2021.
