 Gaussian 16, Revision A.03,
 Gaussian 16:  EM64L-G16RevA.03 25-Dec-2016

 -------------
 #p 6-31g* mp2
 -------------

 ------------------------------------------------------
 Input file generated by CHIRIPA (05-May-2021 14:55:24)
 ------------------------------------------------------
 Symbolic Z-matrix:
 Charge =  0 Multiplicity = 1

                         Standard orientation:
 ---------------------------------------------------------------------
 Center     Atomic      Atomic             Coordinates (Angstroms)
 Number     Number       Type             X           Y           Z
 ---------------------------------------------------------------------
      1          6           0       -1.328318   -2.394657    0.646983
      2          6           0       -2.180712   -1.747998    1.547970
      3          6           0       -2.803481   -0.546111    1.198439
      4          6           0       -2.550283   -0.016698   -0.066039
      5          6           0       -1.706196   -0.637161   -0.985730
      6          6           0       -1.094193   -1.838156   -0.614767
      7          1           0       -0.848717   -3.327965    0.926832
      8          1           0       -2.364380   -2.177868    2.528543
      9          1           0       -3.467942   -0.024473    1.876527
     10          1           0       -1.542534   -0.184240   -1.956036
     11          1           0       -0.432691   -2.338156   -1.316522
     12          7           0       -3.203883    1.255214   -0.447416
     13          8           0       -2.964413    1.701022   -1.567482
     14          8           0       -3.943267    1.782246    0.380947
     15          6           0        3.451685   -0.398895    0.063380
     16          6           0        2.635785   -1.513340   -0.592597
     17          6           0        3.299354   -2.884962   -0.465621
     18          1           0        4.450935   -0.367961   -0.392127
     19          1           0        3.599601   -0.638781    1.125440
     20          1           0        2.488273   -1.270746   -1.652787
     21          1           0        1.638297   -1.541500   -0.135608
     22          1           0        3.432105   -3.152672    0.587618
     23          1           0        4.286909   -2.880379   -0.938183
     24          1           0        2.699225   -3.666862   -0.941371
     25          6           0        2.801275    0.978285   -0.055232
     26          6           0        3.617174    2.092730    0.600745
     27          6           0        2.953605    3.464352    0.473770
     28          1           0        2.653358    1.218170   -1.117291
     29          1           0        1.802024    0.947351    0.400275
     30          1           0        4.614663    2.120890    0.143756
     31          1           0        3.764687    1.850136    1.660936
     32          1           0        1.966050    3.459769    0.946331
     33          1           0        2.820854    3.732061   -0.579469
     34          1           0        3.553735    4.246251    0.949519
 ---------------------------------------------------------------------

 SCF Done:  E(RHF) =  -669.534821190     A.U. after   15 cycles
 E2 =    -0.2092775642D+01 EUMP2 =    -0.67162759683160D+03

 The electronic state is 1-A.
 Alpha  occ. eigenvalues --  -20.60797 -20.60792 -15.85850 -11.31242 -11.27792
 Alpha  occ. eigenvalues --  -11.27780 -11.27535 -11.26827 -11.26786 -11.22152
 Alpha  occ. eigenvalues --  -11.21815 -11.21779 -11.21717 -11.21582 -11.21035
 Alpha  occ. eigenvalues --   -1.59872  -1.39424  -1.19413  -1.08830  -1.08749
 Alpha  occ. eigenvalues --   -1.04817  -1.03886  -0.96325  -0.95632  -0.87339
 Alpha  occ. eigenvalues --   -0.86215  -0.82462  -0.79988  -0.78563  -0.77493
 Alpha  occ. eigenvalues --   -0.72068  -0.71195  -0.70506  -0.65435  -0.65055
 Alpha  occ. eigenvalues --   -0.64806  -0.62174  -0.61275  -0.59738  -0.57932
 Alpha  occ. eigenvalues --   -0.55598  -0.55306  -0.53227  -0.53012  -0.52896
 Alpha  occ. eigenvalues --   -0.52729  -0.50253  -0.48834  -0.48821  -0.48265
 Alpha  occ. eigenvalues --   -0.47008  -0.46093  -0.45996  -0.44824  -0.44125
 Alpha  occ. eigenvalues --   -0.37357  -0.36351
 Alpha virt. eigenvalues --    0.05013   0.11143   0.16493   0.20478   0.22729
 Alpha virt. eigenvalues --    0.23969   0.26010   0.26480   0.27233   0.28147
 Alpha virt. eigenvalues --    0.28923   0.30131   0.31163   0.31683   0.31954

 Mulliken charges:
               1
     1  C   -0.172695
     2  C   -0.218275
     3  C   -0.171446
     4  C    0.158355
     5  C   -0.172108
     6  C   -0.217761
     7  H    0.226544
     8  H    0.223652
     9  H    0.275699
    10  H    0.276110
    11  H    0.228840
    12  N    0.488054
    13  O   -0.459954
    14  O   -0.460358
    15  C   -0.297010
    16  C   -0.309936
    17  C   -0.475918
    18  H    0.150648
    19  H    0.149371
    20  H    0.148757
    21  H    0.157152
    22  H    0.155547
    23  H    0.159539
    24  H    0.152913
    25  C   -0.299546
    26  C   -0.300052
    27  C   -0.476139
    28  H    0.149967
    29  H    0.151788
    30  H    0.151773
    31  H    0.151286
    32  H    0.157545
    33  H    0.157013
    34  H    0.160647
 Sum of Mulliken charges =  -0.00000

 Dipole moment (field-independent basis, Debye):
    X=              2.2885    Y=             -4.3890    Z=              1.3619  Tot=              5.1337
 Quadrupole moment (field-independent basis, Debye-Ang):
   XX=           -106.0439   YY=            -96.4238   ZZ=            -90.3320
   XY=             12.0423   XZ=             -6.3229   YZ=              0.2294

 Normal termination of Gaussian 16 at Thu May  6 06:22:50 2021.
