 Gaussian 16, Revision A.03,
 Gaussian 16:  EM64L-G16RevA.03 25-Dec-2016

 -------------
 #p 6-31g* mp2
 -------------

 ------------------------------------------------------
 Input file generated by CHIRIPA (05-May-2021 14:53:18)
 ------------------------------------------------------
 Symbolic Z-matrix:
 Charge =  0 Multiplicity = 1

                         Standard orientation:
 ---------------------------------------------------------------------
 Center     Atomic      Atomic             Coordinates (Angstroms)
 Number     Number       Type             X           Y           Z
 ---------------------------------------------------------------------
      1          6           0       -3.653642    0.229832    0.791088
      2          6           0       -2.790334    1.463788    0.526442
      3          6           0       -1.703302    1.662431    1.583180
      4          1           0       -4.116843    0.320173    1.783171
      5          1           0       -3.008961   -0.659267    0.826920
      6          1           0       -3.436622    2.350118    0.489744
      7          1           0       -2.329286    1.370588   -0.465206
      8          1           0       -1.034928    0.795941    1.615922
      9          1           0       -2.148556    1.781036    2.576298
     10          1           0       -1.098008    2.550098    1.374548
     11          6           0       -4.744846    0.017840   -0.256796
     12          6           0       -5.608154   -1.216116    0.007851
     13          6           0       -6.695186   -1.414759   -1.048887
     14          1           0       -5.389527    0.906939   -0.292627
     15          1           0       -4.281645   -0.072501   -1.248878
     16          1           0       -6.069202   -1.122916    0.999499
     17          1           0       -4.961866   -2.102446    0.044549
     18          1           0       -6.249932   -1.533364   -2.042005
     19          1           0       -7.363560   -0.548269   -1.081629
     20          1           0       -7.300480   -2.302426   -0.840256
     21          6           0        1.165957    1.128847   -0.834710
     22          6           0        1.092134   -0.118798   -0.206657
     23          6           0        2.257313   -0.806876    0.144705
     24          6           0        3.485101   -0.215233   -0.148188
     25          6           0        3.591453    1.026348   -0.773053
     26          6           0        2.413182    1.696438   -1.115410
     27          1           0        0.255733    1.656376   -1.104159
     28          1           0        0.124896   -0.562013    0.012561
     29          1           0        2.229102   -1.774066    0.631699
     30          1           0        4.570119    1.442694   -0.978692
     31          1           0        2.473550    2.665239   -1.603083
     32          7           0        4.725554   -0.934148    0.219015
     33          8           0        5.795015   -0.391404   -0.049906
     34          8           0        4.604870   -2.026765    0.768798
 ---------------------------------------------------------------------

 SCF Done:  E(RHF) =  -669.534558872     A.U. after   15 cycles
 E2 =    -0.2092626244D+01 EUMP2 =    -0.67162718511599D+03

 The electronic state is 1-A.
 Alpha  occ. eigenvalues --  -20.60741 -20.60736 -15.85796 -11.31159 -11.27737
 Alpha  occ. eigenvalues --  -11.27732 -11.27452 -11.26740 -11.26724 -11.22776
 Alpha  occ. eigenvalues --  -11.22377 -11.22249 -11.22162 -11.22074 -11.21601
 Alpha  occ. eigenvalues --   -1.59817  -1.39371  -1.19337  -1.09338  -1.08727
 Alpha  occ. eigenvalues --   -1.04753  -1.04396  -0.96830  -0.95558  -0.87838
 Alpha  occ. eigenvalues --   -0.86142  -0.82401  -0.80478  -0.79114  -0.77452
 Alpha  occ. eigenvalues --   -0.72015  -0.71140  -0.70458  -0.66044  -0.64987
 Alpha  occ. eigenvalues --   -0.64760  -0.62225  -0.61642  -0.60219  -0.58442
 Alpha  occ. eigenvalues --   -0.56121  -0.55225  -0.53529  -0.53251  -0.53038
 Alpha  occ. eigenvalues --   -0.52816  -0.50743  -0.48810  -0.48769  -0.48735
 Alpha  occ. eigenvalues --   -0.47532  -0.46648  -0.46568  -0.44777  -0.44643
 Alpha  occ. eigenvalues --   -0.37278  -0.36333
 Alpha virt. eigenvalues --    0.05082   0.11204   0.16507   0.18545   0.22604
 Alpha virt. eigenvalues --    0.24058   0.24707   0.25477   0.27133   0.27976
 Alpha virt. eigenvalues --    0.29101   0.29726   0.30814   0.31521   0.31739

 Mulliken charges:
               1
     1  C   -0.298269
     2  C   -0.305323
     3  C   -0.479255
     4  H    0.154664
     5  H    0.145223
     6  H    0.157594
     7  H    0.142616
     8  H    0.154520
     9  H    0.161422
    10  H    0.160321
    11  C   -0.298704
    12  C   -0.300267
    13  C   -0.476211
    14  H    0.151740
    15  H    0.148562
    16  H    0.153742
    17  H    0.152130
    18  H    0.155524
    19  H    0.156145
    20  H    0.162543
    21  C   -0.170915
    22  C   -0.219545
    23  C   -0.172338
    24  C    0.158352
    25  C   -0.170448
    26  C   -0.219670
    27  H    0.230016
    28  H    0.224333
    29  H    0.275499
    30  H    0.275518
    31  H    0.223444
    32  N    0.488101
    33  O   -0.460528
    34  O   -0.460534
 Sum of Mulliken charges =  -0.00000

 Dipole moment (field-independent basis, Debye):
    X=             -4.5714    Y=              2.5616    Z=             -1.2255  Tot=              5.3816
 Quadrupole moment (field-independent basis, Debye-Ang):
   XX=           -123.5274   YY=            -93.0180   ZZ=            -94.4275
   XY=             11.6231   XZ=             -6.2104   YZ=             -1.5231

 Normal termination of Gaussian 16 at Thu May  6 12:19:26 2021.
