 Gaussian 16, Revision A.03,
 Gaussian 16:  EM64L-G16RevA.03 25-Dec-2016

 -------------
 #p 6-31g* mp2
 -------------

 ------------------------------------------------------
 Input file generated by CHIRIPA (05-May-2021 14:57:25)
 ------------------------------------------------------
 Symbolic Z-matrix:
 Charge =  0 Multiplicity = 1

                         Standard orientation:
 ---------------------------------------------------------------------
 Center     Atomic      Atomic             Coordinates (Angstroms)
 Number     Number       Type             X           Y           Z
 ---------------------------------------------------------------------
      1          6           0       -5.175488   -0.082020    0.335495
      2          6           0       -4.540299    1.070179   -0.139365
      3          6           0       -3.173189    1.058013   -0.431614
      4          6           0       -2.468654   -0.128932   -0.236466
      5          6           0       -3.073025   -1.293192    0.235258
      6          6           0       -4.441118   -1.257956    0.520964
      7          1           0       -6.237874   -0.063608    0.559980
      8          1           0       -5.108111    1.984844   -0.284361
      9          1           0       -2.656315    1.935629   -0.800462
     10          1           0       -2.480557   -2.190034    0.369700
     11          1           0       -4.931780   -2.154276    0.889618
     12          7           0       -1.020836   -0.154023   -0.542393
     13          8           0       -0.422466   -1.212337   -0.361942
     14          8           0       -0.511819    0.885099   -0.956838
     15          6           0        3.207021   -2.322910   -0.167376
     16          6           0        2.770392   -1.870936    1.082262
     17          6           0        2.490535   -0.516949    1.289498
     18          6           0        2.658958    0.361431    0.220213
     19          6           0        3.092400   -0.058219   -1.036494
     20          6           0        3.366350   -1.416707   -1.220909
     21          1           0        3.422125   -3.376468   -0.319498
     22          1           0        2.645758   -2.572440    1.902264
     23          1           0        2.151115   -0.139988    2.246636
     24          1           0        3.207209    0.664945   -1.834786
     25          1           0        3.705297   -1.764881   -2.192472
     26          7           0        2.365813    1.797220    0.427524
     27          8           0        2.522158    2.550921   -0.530666
     28          8           0        1.985253    2.141702    1.544279
 ---------------------------------------------------------------------

 SCF Done:  E(RHF) =  -868.338294535     A.U. after   16 cycles
 E2 =    -0.2602881630D+01 EUMP2 =    -0.87094117616507D+03

 The electronic state is 1-A.
 Alpha  occ. eigenvalues --  -20.60958 -20.60940 -20.59124 -20.59076 -15.85936
 Alpha  occ. eigenvalues --  -15.84152 -11.31204 -11.29307 -11.27806 -11.27707
 Alpha  occ. eigenvalues --  -11.27500 -11.26787 -11.26721 -11.25985 -11.25910
 Alpha  occ. eigenvalues --  -11.25780 -11.25042 -11.25011  -1.60008  -1.58149
 Alpha  occ. eigenvalues --   -1.39560  -1.37728  -1.19370  -1.17499  -1.08793
 Alpha  occ. eigenvalues --   -1.06970  -1.04755  -1.02965  -0.95645  -0.93848
 Alpha  occ. eigenvalues --   -0.86160  -0.84407  -0.82478  -0.80738  -0.77536
 Alpha  occ. eigenvalues --   -0.75772  -0.72207  -0.71353  -0.70482  -0.70433
 Alpha  occ. eigenvalues --   -0.69335  -0.68782  -0.65025  -0.64763  -0.63255
 Alpha  occ. eigenvalues --   -0.63089  -0.62101  -0.60389  -0.55285  -0.53582
 Alpha  occ. eigenvalues --   -0.53096  -0.52849  -0.51473  -0.51162  -0.48956
 Alpha  occ. eigenvalues --   -0.48607  -0.47177  -0.47146  -0.44985  -0.43197
 Alpha  occ. eigenvalues --   -0.37359  -0.36352  -0.35423  -0.34473
 Alpha virt. eigenvalues --    0.04971   0.06868   0.11305   0.13120   0.16479
 Alpha virt. eigenvalues --    0.18351   0.21441   0.22866   0.27356   0.28341
 Alpha virt. eigenvalues --    0.28711   0.29760   0.30989   0.32289   0.32600

 Mulliken charges:
               1
     1  C   -0.170352
     2  C   -0.218703
     3  C   -0.169213
     4  C    0.159120
     5  C   -0.171370
     6  C   -0.218711
     7  H    0.225806
     8  H    0.225093
     9  H    0.280842
    10  H    0.272475
    11  H    0.222426
    12  N    0.488260
    13  O   -0.462462
    14  O   -0.459045
    15  C   -0.167000
    16  C   -0.210651
    17  C   -0.167377
    18  C    0.174621
    19  C   -0.161328
    20  C   -0.215628
    21  H    0.216887
    22  H    0.213486
    23  H    0.266556
    24  H    0.270937
    25  H    0.215517
    26  N    0.494680
    27  O   -0.462348
    28  O   -0.472518
 Sum of Mulliken charges =  -0.00000

 Dipole moment (field-independent basis, Debye):
    X=             -4.4254    Y=             -4.8270    Z=              0.1481  Tot=              6.5503
 Quadrupole moment (field-independent basis, Debye-Ang):
   XX=            -76.0562   YY=           -104.9622   ZZ=           -102.0893
   XY=            -12.7620   XZ=             -4.8814   YZ=             -4.3066

 Normal termination of Gaussian 16 at Fri May  7 08:06:26 2021.
