 Gaussian 16, Revision A.03,
 Gaussian 16:  EM64L-G16RevA.03 25-Dec-2016

 -------------
 #p 6-31g* mp2
 -------------

 ------------------------------------------------------
 Input file generated by CHIRIPA (05-May-2021 14:53:12)
 ------------------------------------------------------
 Symbolic Z-matrix:
 Charge =  0 Multiplicity = 1

                         Standard orientation:
 ---------------------------------------------------------------------
 Center     Atomic      Atomic             Coordinates (Angstroms)
 Number     Number       Type             X           Y           Z
 ---------------------------------------------------------------------
      1          6           0       -3.903185   -0.223995   -0.565707
      2          6           0       -3.562643   -1.677768   -0.236225
      3          6           0       -4.138356   -2.664667   -1.252285
      4          1           0       -4.995039   -0.110976   -0.610729
      5          1           0       -3.522471    0.016367   -1.568044
      6          1           0       -3.942673   -1.914903    0.765753
      7          1           0       -2.471476   -1.787297   -0.191793
      8          1           0       -3.749973   -2.456292   -2.254453
      9          1           0       -5.229530   -2.584624   -1.291466
     10          1           0       -3.882912   -3.697963   -0.997516
     11          6           0       -3.334592    0.774528    0.440962
     12          6           0       -3.675134    2.228301    0.111480
     13          6           0       -3.099420    3.215200    1.127540
     14          1           0       -3.715305    0.534167    1.443299
     15          1           0       -2.242738    0.661509    0.485984
     16          1           0       -4.766301    2.337830    0.067048
     17          1           0       -3.295104    2.465437   -0.890498
     18          1           0       -2.008247    3.135158    1.166721
     19          1           0       -3.487804    3.006826    2.129708
     20          1           0       -3.354865    4.248496    0.872770
     21          6           0        1.135063   -1.706406    1.179334
     22          6           0        0.718836   -0.776276    0.221140
     23          6           0        1.647679    0.055177   -0.411697
     24          6           0        2.990852   -0.070873   -0.060574
     25          6           0        3.436647   -0.987796    0.890115
     26          6           0        2.490251   -1.809017    1.510180
     27          1           0        0.406699   -2.348325    1.665977
     28          1           0       -0.332970   -0.694386   -0.037786
     29          1           0        1.352889    0.783889   -1.157014
     30          1           0        4.491995   -1.046218    1.127278
     31          1           0        2.816375   -2.530462    2.253957
     32          7           0        3.983466    0.803933   -0.723770
     33          8           0        5.161016    0.673285   -0.396746
     34          8           0        3.565133    1.603689   -1.558052
 ---------------------------------------------------------------------

 SCF Done:  E(RHF) =  -669.535069874     A.U. after   15 cycles
 E2 =    -0.2092071732D+01 EUMP2 =    -0.67162714160538D+03

 The electronic state is 1-A.
 Alpha  occ. eigenvalues --  -20.60754 -20.60749 -15.85807 -11.31171 -11.27746
 Alpha  occ. eigenvalues --  -11.27742 -11.27475 -11.26752 -11.26709 -11.22692
 Alpha  occ. eigenvalues --  -11.22320 -11.22261 -11.22217 -11.21893 -11.21547
 Alpha  occ. eigenvalues --   -1.59829  -1.39383  -1.19344  -1.09313  -1.08736
 Alpha  occ. eigenvalues --   -1.04750  -1.04314  -0.96737  -0.95572  -0.87750
 Alpha  occ. eigenvalues --   -0.86153  -0.82410  -0.80404  -0.79140  -0.77453
 Alpha  occ. eigenvalues --   -0.72026  -0.71153  -0.70448  -0.66080  -0.64995
 Alpha  occ. eigenvalues --   -0.64682  -0.62110  -0.61701  -0.60114  -0.58354
 Alpha  occ. eigenvalues --   -0.56024  -0.55240  -0.53420  -0.53168  -0.53062
 Alpha  occ. eigenvalues --   -0.52856  -0.50687  -0.48803  -0.48781  -0.48694
 Alpha  occ. eigenvalues --   -0.47454  -0.46614  -0.46544  -0.44789  -0.44587
 Alpha  occ. eigenvalues --   -0.37319  -0.36347
 Alpha virt. eigenvalues --    0.05078   0.11229   0.16520   0.19018   0.22807
 Alpha virt. eigenvalues --    0.23540   0.24973   0.26299   0.27058   0.27949
 Alpha virt. eigenvalues --    0.29408   0.30597   0.31143   0.31254   0.31897

 Mulliken charges:
               1
     1  C   -0.299611
     2  C   -0.303666
     3  C   -0.475510
     4  H    0.154653
     5  H    0.150679
     6  H    0.154374
     7  H    0.141960
     8  H    0.157638
     9  H    0.158964
    10  H    0.161258
    11  C   -0.303160
    12  C   -0.300080
    13  C   -0.476474
    14  H    0.152080
    15  H    0.143269
    16  H    0.154564
    17  H    0.153317
    18  H    0.156317
    19  H    0.155746
    20  H    0.163727
    21  C   -0.173627
    22  C   -0.228459
    23  C   -0.173433
    24  C    0.159070
    25  C   -0.171009
    26  C   -0.218615
    27  H    0.226090
    28  H    0.238459
    29  H    0.275530
    30  H    0.275602
    31  H    0.223406
    32  N    0.487967
    33  O   -0.460485
    34  O   -0.460539
 Sum of Mulliken charges =  -0.00000

 Dipole moment (field-independent basis, Debye):
    X=             -3.7154    Y=             -3.0363    Z=              2.3311  Tot=              5.3346
 Quadrupole moment (field-independent basis, Debye-Ang):
   XX=           -111.6589   YY=            -94.3355   ZZ=            -94.2212
   XY=            -11.1514   XZ=              8.9454   YZ=             -1.8626

 Normal termination of Gaussian 16 at Wed May  5 16:59:06 2021.
