 Gaussian 16, Revision A.03,
 Gaussian 16:  EM64L-G16RevA.03 25-Dec-2016

 -------------
 #p 6-31g* mp2
 -------------

 ------------------------------------------------------
 Input file generated by CHIRIPA (05-May-2021 14:55:22)
 ------------------------------------------------------
 Symbolic Z-matrix:
 Charge =  0 Multiplicity = 1

                         Standard orientation:
 ---------------------------------------------------------------------
 Center     Atomic      Atomic             Coordinates (Angstroms)
 Number     Number       Type             X           Y           Z
 ---------------------------------------------------------------------
      1          6           0       -1.127661   -0.037419    0.153390
      2          6           0       -1.835768    0.935330   -0.559957
      3          6           0       -3.226869    0.858488   -0.676073
      4          6           0       -3.880777   -0.209440   -0.063519
      5          6           0       -3.203399   -1.194187    0.653923
      6          6           0       -1.812529   -1.097204    0.756989
      7          1           0       -0.047110    0.030097    0.238524
      8          1           0       -1.306522    1.759487   -1.029753
      9          1           0       -3.799880    1.597817   -1.222396
     10          1           0       -3.758697   -2.004015    1.111350
     11          1           0       -1.265205   -1.854094    1.311606
     12          7           0       -5.353351   -0.301450   -0.179539
     13          8           0       -5.906042   -1.252202    0.369315
     14          8           0       -5.926979    0.578926   -0.817133
     15          6           0        4.934578   -0.461966    0.021752
     16          6           0        6.377512   -0.524798   -0.480223
     17          6           0        6.919261   -1.953127   -0.544860
     18          1           0        4.879234   -0.922064    1.017841
     19          1           0        4.297529   -1.067233   -0.637958
     20          1           0        7.011418    0.081527    0.179435
     21          1           0        6.429462   -0.064326   -1.475152
     22          1           0        6.311171   -2.565674   -1.218368
     23          1           0        6.896433   -2.418992    0.445619
     24          1           0        7.952122   -1.974777   -0.906233
     25          6           0        4.378904    0.959313    0.091907
     26          6           0        2.935970    1.022144    0.593881
     27          6           0        2.394221    2.450473    0.658519
     28          1           0        5.015953    1.564579    0.751617
     29          1           0        4.434248    1.419410   -0.904181
     30          1           0        2.884020    0.561672    1.588810
     31          1           0        2.302064    0.415818   -0.065776
     32          1           0        2.417050    2.916338   -0.331961
     33          1           0        3.002312    3.063020    1.332027
     34          1           0        1.361360    2.472123    1.019891
 ---------------------------------------------------------------------

 SCF Done:  E(RHF) =  -669.535650164     A.U. after   15 cycles
 E2 =    -0.2091247733D+01 EUMP2 =    -0.67162689789685D+03

 The electronic state is 1-A.
 Alpha  occ. eigenvalues --  -20.60720 -20.60714 -15.85773 -11.31128 -11.27698
 Alpha  occ. eigenvalues --  -11.27694 -11.27382 -11.26701 -11.26691 -11.22899
 Alpha  occ. eigenvalues --  -11.22345 -11.22258 -11.22257 -11.22175 -11.21622
 Alpha  occ. eigenvalues --   -1.59796  -1.39349  -1.19297  -1.09357  -1.08688
 Alpha  occ. eigenvalues --   -1.04700  -1.04457  -0.96874  -0.95526  -0.87887
 Alpha  occ. eigenvalues --   -0.86094  -0.82366  -0.80560  -0.79137  -0.77414
 Alpha  occ. eigenvalues --   -0.71991  -0.71119  -0.70416  -0.65983  -0.64946
 Alpha  occ. eigenvalues --   -0.64705  -0.62052  -0.61846  -0.60293  -0.58503
 Alpha  occ. eigenvalues --   -0.56147  -0.55153  -0.53584  -0.53297  -0.53019
 Alpha  occ. eigenvalues --   -0.52787  -0.50807  -0.48860  -0.48747  -0.48738
 Alpha  occ. eigenvalues --   -0.47584  -0.46671  -0.46570  -0.44757  -0.44692
 Alpha  occ. eigenvalues --   -0.37268  -0.36309
 Alpha virt. eigenvalues --    0.05111   0.11325   0.16580   0.19450   0.22364
 Alpha virt. eigenvalues --    0.23846   0.25413   0.26068   0.26485   0.27672
 Alpha virt. eigenvalues --    0.29114   0.30319   0.30562   0.30984   0.32107

 Mulliken charges:
               1
     1  C   -0.179818
     2  C   -0.222610
     3  C   -0.170734
     4  C    0.158186
     5  C   -0.170653
     6  C   -0.221406
     7  H    0.240612
     8  H    0.224010
     9  H    0.275385
    10  H    0.275316
    11  H    0.223867
    12  N    0.488002
    13  O   -0.460603
    14  O   -0.460609
    15  C   -0.299235
    16  C   -0.300347
    17  C   -0.476238
    18  H    0.150220
    19  H    0.148819
    20  H    0.153436
    21  H    0.153161
    22  H    0.155618
    23  H    0.155742
    24  H    0.162484
    25  C   -0.297446
    26  C   -0.306087
    27  C   -0.479743
    28  H    0.153355
    29  H    0.151886
    30  H    0.154375
    31  H    0.143816
    32  H    0.156871
    33  H    0.162402
    34  H    0.157965
 Sum of Mulliken charges =  -0.00000

 Dipole moment (field-independent basis, Debye):
    X=              5.4805    Y=              0.3687    Z=              0.4307  Tot=              5.5097
 Quadrupole moment (field-independent basis, Debye-Ang):
   XX=           -134.7630   YY=            -92.3314   ZZ=            -92.9850
   XY=             -1.6833   XZ=             -1.4408   YZ=             -2.7442

 Normal termination of Gaussian 16 at Wed May  5 22:18:36 2021.
