 Gaussian 16, Revision A.03,
 Gaussian 16:  EM64L-G16RevA.03 25-Dec-2016

 -------------
 #p 6-31g* mp2
 -------------

 ------------------------------------------------------
 Input file generated by CHIRIPA (05-May-2021 14:57:23)
 ------------------------------------------------------
 Symbolic Z-matrix:
 Charge =  0 Multiplicity = 1

                         Standard orientation:
 ---------------------------------------------------------------------
 Center     Atomic      Atomic             Coordinates (Angstroms)
 Number     Number       Type             X           Y           Z
 ---------------------------------------------------------------------
      1          6           0       -2.148036    0.487805    0.288997
      2          6           0       -2.563619   -0.457371   -0.654642
      3          6           0       -3.919236   -0.766596   -0.800342
      4          6           0       -4.836338   -0.108653    0.017781
      5          6           0       -4.453494    0.837711    0.967053
      6          6           0       -3.092635    1.131195    1.095411
      7          1           0       -1.092923    0.721904    0.395445
      8          1           0       -1.832253   -0.958601   -1.282271
      9          1           0       -4.268507   -1.494205   -1.522846
     10          1           0       -5.205971    1.320874    1.578404
     11          1           0       -2.772774    1.865661    1.829096
     12          7           0       -6.274245   -0.427683   -0.127286
     13          8           0       -7.062444    0.165885    0.605554
     14          8           0       -6.585849   -1.265266   -0.971083
     15          6           0        2.790438    1.748368   -0.521154
     16          6           0        4.135421    2.096255   -0.683996
     17          6           0        5.146069    1.166680   -0.421262
     18          6           0        4.774233   -0.107532    0.004663
     19          6           0        3.443121   -0.484312    0.176327
     20          6           0        2.449182    0.461463   -0.092270
     21          1           0        2.011833    2.476777   -0.727529
     22          1           0        4.403389    3.094945   -1.016945
     23          1           0        6.195187    1.409381   -0.539016
     24          1           0        3.207022   -1.487616    0.509575
     25          1           0        1.405477    0.188499    0.035066
     26          7           0        5.835316   -1.100207    0.285910
     27          8           0        5.481534   -2.216237    0.660014
     28          8           0        7.000681   -0.743440    0.126923
 ---------------------------------------------------------------------

 SCF Done:  E(RHF) =  -868.336273275     A.U. after   16 cycles
 E2 =    -0.2599554852D+01 EUMP2 =    -0.87093582812744D+03

 The electronic state is 1-A.
 Alpha  occ. eigenvalues --  -20.61354 -20.61347 -20.61252 -20.61246 -15.86416
 Alpha  occ. eigenvalues --  -15.86309 -11.31928 -11.31826 -11.28578 -11.28497
 Alpha  occ. eigenvalues --  -11.28396 -11.28389 -11.28360 -11.28328 -11.27731
 Alpha  occ. eigenvalues --  -11.27530 -11.27515 -11.27491  -1.60427  -1.60323
 Alpha  occ. eigenvalues --   -1.39976  -1.39872  -1.20139  -1.20024  -1.09517
 Alpha  occ. eigenvalues --   -1.09423  -1.05576  -1.05439  -0.96316  -0.96229
 Alpha  occ. eigenvalues --   -0.86982  -0.86848  -0.83155  -0.83042  -0.78168
 Alpha  occ. eigenvalues --   -0.78036  -0.72631  -0.72527  -0.71752  -0.71647
 Alpha  occ. eigenvalues --   -0.71286  -0.71209  -0.65803  -0.65702  -0.65640
 Alpha  occ. eigenvalues --   -0.65428  -0.62931  -0.62771  -0.56163  -0.56005
 Alpha  occ. eigenvalues --   -0.53883  -0.53771  -0.53672  -0.53542  -0.49404
 Alpha  occ. eigenvalues --   -0.49374  -0.49298  -0.49270  -0.45348  -0.45243
 Alpha  occ. eigenvalues --   -0.38137  -0.38060  -0.37175  -0.37026
 Alpha virt. eigenvalues --    0.04396   0.04483   0.10460   0.10613   0.15836
 Alpha virt. eigenvalues --    0.15919   0.17187   0.21914   0.24566   0.26544
 Alpha virt. eigenvalues --    0.27398   0.28801   0.30040   0.31082   0.31879

 Mulliken charges:
               1
     1  C   -0.174786
     2  C   -0.219215
     3  C   -0.169984
     4  C    0.159427
     5  C   -0.169985
     6  C   -0.218569
     7  H    0.219259
     8  H    0.222298
     9  H    0.278079
    10  H    0.277746
    11  H    0.224911
    12  N    0.487849
    13  O   -0.458652
    14  O   -0.458509
    15  C   -0.171454
    16  C   -0.218302
    17  C   -0.169569
    18  C    0.159336
    19  C   -0.170493
    20  C   -0.222690
    21  H    0.223793
    22  H    0.226159
    23  H    0.278297
    24  H    0.277498
    25  H    0.216905
    26  N    0.487911
    27  O   -0.459070
    28  O   -0.458190
 Sum of Mulliken charges =  -0.00000

 Dipole moment (field-independent basis, Debye):
    X=              1.3494    Y=              4.6148    Z=             -0.4952  Tot=              4.8334
 Quadrupole moment (field-independent basis, Debye-Ang):
   XX=           -185.3410   YY=           -101.9996   ZZ=           -103.0548
   XY=             13.2380   XZ=             -9.1551   YZ=              1.9024

 Normal termination of Gaussian 16 at Fri May  7 09:26:16 2021.
