 Gaussian 16, Revision A.03,
 Gaussian 16:  EM64L-G16RevA.03 25-Dec-2016

 -------------
 #p 6-31g* mp2
 -------------

 ------------------------------------------------------
 Input file generated by CHIRIPA (05-May-2021 14:57:25)
 ------------------------------------------------------
 Symbolic Z-matrix:
 Charge =  0 Multiplicity = 1

                         Standard orientation:
 ---------------------------------------------------------------------
 Center     Atomic      Atomic             Coordinates (Angstroms)
 Number     Number       Type             X           Y           Z
 ---------------------------------------------------------------------
      1          6           0        3.283618    2.706819   -0.280908
      2          6           0        2.216370    1.895292    0.117747
      3          6           0        2.389600    0.515802    0.264535
      4          6           0        3.649231   -0.021163    0.003216
      5          6           0        4.732067    0.761004   -0.395494
      6          6           0        4.535853    2.138088   -0.535806
      7          1           0        3.140122    3.777506   -0.392421
      8          1           0        1.242758    2.334232    0.316385
      9          1           0        1.580588   -0.135730    0.571819
     10          1           0        5.690919    0.294526   -0.586335
     11          1           0        5.366497    2.765891   -0.845547
     12          7           0        3.844788   -1.480294    0.155186
     13          8           0        4.964396   -1.928945   -0.081091
     14          8           0        2.874754   -2.147681    0.507700
     15          6           0       -1.949383   -2.112705    0.013793
     16          6           0       -3.132700   -2.218986   -0.724440
     17          6           0       -4.063843   -1.176148   -0.727323
     18          6           0       -3.778220   -0.036273    0.022608
     19          6           0       -2.608252    0.099530    0.768276
     20          6           0       -1.691390   -0.955826    0.756484
     21          1           0       -1.231596   -2.927668    0.010332
     22          1           0       -3.335704   -3.116254   -1.302146
     23          1           0       -4.987868   -1.232033   -1.289882
     24          1           0       -2.433739    1.006399    1.334448
     25          1           0       -0.773243   -0.870519    1.330744
     26          7           0       -4.756419    1.074358    0.027323
     27          8           0       -4.481271    2.068096    0.696215
     28          8           0       -5.779759    0.930104   -0.637961
 ---------------------------------------------------------------------

 SCF Done:  E(RHF) =  -868.338444977     A.U. after   16 cycles
 E2 =    -0.2599258285D+01 EUMP2 =    -0.87093770326158D+03

 The electronic state is 1-A.
 Alpha  occ. eigenvalues --  -20.61487 -20.61441 -20.60992 -20.60976 -15.86517
 Alpha  occ. eigenvalues --  -15.86042 -11.31773 -11.31371 -11.28399 -11.28277
 Alpha  occ. eigenvalues --  -11.28021 -11.27984 -11.27925 -11.27573 -11.27310
 Alpha  occ. eigenvalues --  -11.27258 -11.26982 -11.26855  -1.60536  -1.60064
 Alpha  occ. eigenvalues --   -1.40098  -1.39619  -1.19920  -1.19541  -1.09321
 Alpha  occ. eigenvalues --   -1.08910  -1.05316  -1.04958  -0.96186  -0.95753
 Alpha  occ. eigenvalues --   -0.86716  -0.86334  -0.83031  -0.82606  -0.78115
 Alpha  occ. eigenvalues --   -0.77679  -0.72744  -0.72258  -0.71850  -0.71389
 Alpha  occ. eigenvalues --   -0.71029  -0.70570  -0.65575  -0.65356  -0.65183
 Alpha  occ. eigenvalues --   -0.64926  -0.62735  -0.62255  -0.55787  -0.55337
 Alpha  occ. eigenvalues --   -0.53632  -0.53462  -0.53254  -0.52988  -0.49511
 Alpha  occ. eigenvalues --   -0.49472  -0.49020  -0.49009  -0.45528  -0.45034
 Alpha  occ. eigenvalues --   -0.37864  -0.37464  -0.36910  -0.36575
 Alpha virt. eigenvalues --    0.04439   0.04876   0.10734   0.11010   0.15974
 Alpha virt. eigenvalues --    0.16323   0.19055   0.22085   0.24968   0.26961
 Alpha virt. eigenvalues --    0.28228   0.29440   0.29973   0.31086   0.31986

 Mulliken charges:
               1
     1  C   -0.169980
     2  C   -0.219448
     3  C   -0.174029
     4  C    0.158976
     5  C   -0.169834
     6  C   -0.218366
     7  H    0.229187
     8  H    0.224763
     9  H    0.270647
    10  H    0.276910
    11  H    0.225900
    12  N    0.488194
    13  O   -0.456563
    14  O   -0.468053
    15  C   -0.170648
    16  C   -0.219103
    17  C   -0.170020
    18  C    0.158445
    19  C   -0.173159
    20  C   -0.225527
    21  H    0.237578
    22  H    0.226005
    23  H    0.276340
    24  H    0.271400
    25  H    0.224144
    26  N    0.488229
    27  O   -0.462750
    28  O   -0.459238
 Sum of Mulliken charges =  -0.00000

 Dipole moment (field-independent basis, Debye):
    X=              2.8787    Y=              1.1863    Z=             -0.6853  Tot=              3.1880
 Quadrupole moment (field-independent basis, Debye-Ang):
   XX=           -129.1001   YY=           -103.6877   ZZ=           -104.0038
   XY=             36.8209   XZ=             -1.2467   YZ=              1.6315

 Normal termination of Gaussian 16 at Thu May  6 19:41:33 2021.
