 Gaussian 16, Revision A.03,
 Gaussian 16:  EM64L-G16RevA.03 25-Dec-2016

 -------------
 #p 6-31g* mp2
 -------------

 ------------------------------------------------------
 Input file generated by CHIRIPA (05-May-2021 14:55:25)
 ------------------------------------------------------
 Symbolic Z-matrix:
 Charge =  0 Multiplicity = 1

                         Standard orientation:
 ---------------------------------------------------------------------
 Center     Atomic      Atomic             Coordinates (Angstroms)
 Number     Number       Type             X           Y           Z
 ---------------------------------------------------------------------
      1          6           0       -3.839680    1.611555   -0.580836
      2          6           0       -3.719737    0.458104   -1.362940
      3          6           0       -2.869880   -0.580417   -0.970812
      4          6           0       -2.151571   -0.431458    0.214571
      5          6           0       -2.249557    0.705412    1.015330
      6          6           0       -3.105501    1.731316    0.603714
      7          1           0       -4.502233    2.413403   -0.893020
      8          1           0       -4.288692    0.362355   -2.283357
      9          1           0       -2.758040   -1.484269   -1.557294
     10          1           0       -1.669559    0.771976    1.927793
     11          1           0       -3.196660    2.625960    1.213098
     12          7           0       -1.248643   -1.524216    0.640015
     13          8           0       -0.626648   -1.368598    1.688606
     14          8           0       -1.180019   -2.515645   -0.083170
     15          6           0        2.810760   -0.368905    0.112688
     16          6           0        3.141958   -1.515504   -0.843138
     17          6           0        2.869135   -2.890878   -0.233461
     18          1           0        3.398176   -0.486403    1.033602
     19          1           0        1.753847   -0.438267    0.405123
     20          1           0        4.197580   -1.443194   -1.134770
     21          1           0        2.553827   -1.395157   -1.761961
     22          1           0        1.813844   -2.987982    0.041372
     23          1           0        3.466937   -3.036292    0.672127
     24          1           0        3.112803   -3.695932   -0.933729
     25          6           0        3.078223    1.012383   -0.482487
     26          6           0        2.747025    2.158982    0.473339
     27          6           0        3.019848    3.534357   -0.136338
     28          1           0        4.135136    1.081746   -0.774921
     29          1           0        2.490806    1.129882   -1.403401
     30          1           0        3.335156    2.038635    1.392162
     31          1           0        1.691403    2.086672    0.764971
     32          1           0        2.422047    3.679770   -1.041925
     33          1           0        4.075139    3.631460   -0.411170
     34          1           0        2.776181    4.339410    0.563931
 ---------------------------------------------------------------------

 SCF Done:  E(RHF) =  -669.536835926     A.U. after   15 cycles
 E2 =    -0.2092689059D+01 EUMP2 =    -0.67162952498483D+03

 The electronic state is 1-A.
 Alpha  occ. eigenvalues --  -20.61159 -20.61153 -15.86133 -11.31403 -11.27951
 Alpha  occ. eigenvalues --  -11.27947 -11.27674 -11.26942 -11.26932 -11.21238
 Alpha  occ. eigenvalues --  -11.20871 -11.20784 -11.20531 -11.20338 -11.19530
 Alpha  occ. eigenvalues --   -1.60190  -1.39747  -1.19559  -1.08976  -1.07675
 Alpha  occ. eigenvalues --   -1.04943  -1.02736  -0.95826  -0.95163  -0.86347
 Alpha  occ. eigenvalues --   -0.86176  -0.82662  -0.78863  -0.77729  -0.77400
 Alpha  occ. eigenvalues --   -0.72349  -0.71502  -0.70664  -0.65213  -0.64943
 Alpha  occ. eigenvalues --   -0.64318  -0.62289  -0.60136  -0.58621  -0.56759
 Alpha  occ. eigenvalues --   -0.55451  -0.54447  -0.53278  -0.53032  -0.51891
 Alpha  occ. eigenvalues --   -0.51571  -0.49280  -0.49128  -0.48967  -0.47132
 Alpha  occ. eigenvalues --   -0.45913  -0.45375  -0.44941  -0.44531  -0.42987
 Alpha  occ. eigenvalues --   -0.37532  -0.36539
 Alpha virt. eigenvalues --    0.04747   0.11091   0.16234   0.21193   0.23413
 Alpha virt. eigenvalues --    0.25146   0.26732   0.27364   0.27830   0.28635
 Alpha virt. eigenvalues --    0.28900   0.30989   0.31982   0.32316   0.32401

 Mulliken charges:
               1
     1  C   -0.170291
     2  C   -0.218558
     3  C   -0.170676
     4  C    0.158531
     5  C   -0.171487
     6  C   -0.218461
     7  H    0.226532
     8  H    0.224289
     9  H    0.276138
    10  H    0.276621
    11  H    0.224504
    12  N    0.486999
    13  O   -0.456330
    14  O   -0.458224
    15  C   -0.302907
    16  C   -0.298324
    17  C   -0.484045
    18  H    0.149301
    19  H    0.159144
    20  H    0.146001
    21  H    0.147344
    22  H    0.181323
    23  H    0.150736
    24  H    0.153519
    25  C   -0.297708
    26  C   -0.297374
    27  C   -0.475056
    28  H    0.147697
    29  H    0.145521
    30  H    0.152915
    31  H    0.147114
    32  H    0.152747
    33  H    0.155605
    34  H    0.156859
 Sum of Mulliken charges =  -0.00000

 Dipole moment (field-independent basis, Debye):
    X=             -3.5144    Y=              3.7240    Z=             -1.3863  Tot=              5.3048
 Quadrupole moment (field-independent basis, Debye-Ang):
   XX=            -81.1288   YY=            -98.5967   ZZ=            -92.4023
   XY=             -6.5645   XZ=              4.6153   YZ=              4.1153

 Normal termination of Gaussian 16 at Wed May  5 22:28:01 2021.
