 Gaussian 16, Revision A.03,
 Gaussian 16:  EM64L-G16RevA.03 25-Dec-2016

 -------------
 #p 6-31g* mp2
 -------------

 ------------------------------------------------------
 Input file generated by CHIRIPA (05-May-2021 14:55:24)
 ------------------------------------------------------
 Symbolic Z-matrix:
 Charge =  0 Multiplicity = 1

                         Standard orientation:
 ---------------------------------------------------------------------
 Center     Atomic      Atomic             Coordinates (Angstroms)
 Number     Number       Type             X           Y           Z
 ---------------------------------------------------------------------
      1          6           0       -3.566382   -1.651510    0.420983
      2          6           0       -3.345712   -0.765421    1.480545
      3          6           0       -2.699259    0.454901    1.262686
      4          6           0       -2.284857    0.758397   -0.033250
      5          6           0       -2.490143   -0.103432   -1.109539
      6          6           0       -3.138648   -1.318275   -0.868404
      7          1           0       -4.069359   -2.597357    0.599262
      8          1           0       -3.676808   -1.021578    2.482944
      9          1           0       -2.515566    1.159415    2.064768
     10          1           0       -2.148629    0.179707   -2.097779
     11          1           0       -3.308675   -2.004481   -1.693181
     12          7           0       -1.599400    2.047397   -0.276208
     13          8           0       -1.243987    2.291317   -1.427217
     14          8           0       -1.430532    2.789388    0.688971
     15          6           0        3.442938   -0.032782    0.003897
     16          6           0        4.937963   -0.181629    0.288027
     17          6           0        5.671915    1.159499    0.310007
     18          1           0        3.308339    0.476330   -0.960277
     19          1           0        2.994941    0.618968    0.766731
     20          1           0        5.382743   -0.834022   -0.474318
     21          1           0        5.069019   -0.690618    1.251547
     22          1           0        5.255271    1.814052    1.082387
     23          1           0        5.570778    1.669833   -0.653284
     24          1           0        6.739196    1.029758    0.514796
     25          6           0        2.695502   -1.364862   -0.021286
     26          6           0        1.200476   -1.216015   -0.305416
     27          6           0        0.466525   -2.557144   -0.327396
     28          1           0        3.143499   -2.016611   -0.784120
     29          1           0        2.830101   -1.873973    0.942889
     30          1           0        1.069421   -0.707027   -1.268937
     31          1           0        0.755697   -0.563622    0.456929
     32          1           0        0.567662   -3.067477    0.635896
     33          1           0        0.883169   -3.211696   -1.099776
     34          1           0       -0.600756   -2.427402   -0.532185
 ---------------------------------------------------------------------

 SCF Done:  E(RHF) =  -669.534748220     A.U. after   15 cycles
 E2 =    -0.2094001931D+01 EUMP2 =    -0.67162875015057D+03

 The electronic state is 1-A.
 Alpha  occ. eigenvalues --  -20.60822 -20.60816 -15.85874 -11.31269 -11.27841
 Alpha  occ. eigenvalues --  -11.27829 -11.27576 -11.26859 -11.26837 -11.21450
 Alpha  occ. eigenvalues --  -11.21285 -11.21172 -11.20988 -11.20954 -11.20699
 Alpha  occ. eigenvalues --   -1.59892  -1.39445  -1.19455  -1.08838  -1.08168
 Alpha  occ. eigenvalues --   -1.04868  -1.03297  -0.95749  -0.95661  -0.86773
 Alpha  occ. eigenvalues --   -0.86249  -0.82498  -0.79373  -0.77964  -0.77540
 Alpha  occ. eigenvalues --   -0.72093  -0.71211  -0.70544  -0.65101  -0.64861
 Alpha  occ. eigenvalues --   -0.64798  -0.62203  -0.60703  -0.59220  -0.57437
 Alpha  occ. eigenvalues --   -0.55346  -0.55037  -0.53370  -0.52944  -0.52325
 Alpha  occ. eigenvalues --   -0.51972  -0.49689  -0.48854  -0.48845  -0.47701
 Alpha  occ. eigenvalues --   -0.46410  -0.45514  -0.45429  -0.44833  -0.43568
 Alpha  occ. eigenvalues --   -0.37371  -0.36387
 Alpha virt. eigenvalues --    0.04991   0.11098   0.16461   0.21254   0.23098
 Alpha virt. eigenvalues --    0.24504   0.26776   0.27141   0.27529   0.28328
 Alpha virt. eigenvalues --    0.28354   0.30761   0.31455   0.31948   0.32232

 Mulliken charges:
               1
     1  C   -0.168413
     2  C   -0.217557
     3  C   -0.172274
     4  C    0.162388
     5  C   -0.167698
     6  C   -0.223572
     7  H    0.226501
     8  H    0.223950
     9  H    0.275929
    10  H    0.276137
    11  H    0.224926
    12  N    0.488432
    13  O   -0.460159
    14  O   -0.460574
    15  C   -0.299398
    16  C   -0.299567
    17  C   -0.475736
    18  H    0.153558
    19  H    0.152788
    20  H    0.150410
    21  H    0.150160
    22  H    0.156885
    23  H    0.156769
    24  H    0.158572
    25  C   -0.298031
    26  C   -0.300409
    27  C   -0.483139
    28  H    0.148133
    29  H    0.147775
    30  H    0.154048
    31  H    0.151118
    32  H    0.152168
    33  H    0.151941
    34  H    0.163940
 Sum of Mulliken charges =  -0.00000

 Dipole moment (field-independent basis, Debye):
    X=             -2.5372    Y=             -4.4075    Z=              0.8461  Tot=              5.1555
 Quadrupole moment (field-independent basis, Debye-Ang):
   XX=            -84.7713   YY=           -103.2176   ZZ=            -89.0823
   XY=              8.3763   XZ=             -2.6711   YZ=              2.0797

 Normal termination of Gaussian 16 at Wed May  5 19:09:00 2021.
