 Gaussian 16, Revision A.03,
 Gaussian 16:  EM64L-G16RevA.03 25-Dec-2016

 -------------
 #p 6-31g* mp2
 -------------

 ------------------------------------------------------
 Input file generated by CHIRIPA (05-May-2021 14:55:19)
 ------------------------------------------------------
 Symbolic Z-matrix:
 Charge =  0 Multiplicity = 1

                         Standard orientation:
 ---------------------------------------------------------------------
 Center     Atomic      Atomic             Coordinates (Angstroms)
 Number     Number       Type             X           Y           Z
 ---------------------------------------------------------------------
      1          6           0       -4.355956    2.489931    0.104655
      2          6           0       -3.006234    2.287579   -0.201653
      3          6           0       -2.485443    0.993453   -0.294174
      4          6           0       -3.346641   -0.080261   -0.073344
      5          6           0       -4.695900    0.088857    0.233558
      6          6           0       -5.195002    1.391860    0.320902
      7          1           0       -4.752095    3.498687    0.174517
      8          1           0       -2.352286    3.138476   -0.370090
      9          1           0       -1.444501    0.808131   -0.529789
     10          1           0       -5.323194   -0.779164    0.396224
     11          1           0       -6.243630    1.546004    0.558944
     12          7           0       -2.806783   -1.454994   -0.168552
     13          8           0       -3.586264   -2.384217    0.030425
     14          8           0       -1.614384   -1.577255   -0.440349
     15          6           0        4.675144    0.522506    0.124792
     16          6           0        6.181272    0.604101   -0.126015
     17          6           0        6.721714    2.030491   -0.020514
     18          1           0        4.154359    1.167698   -0.595943
     19          1           0        4.454204    0.926455    1.122492
     20          1           0        6.399465    0.198845   -1.122395
     21          1           0        6.698520   -0.041508    0.595277
     22          1           0        6.532961    2.441200    0.976628
     23          1           0        6.232207    2.682918   -0.750804
     24          1           0        7.800225    2.065721   -0.203358
     25          6           0        4.120033   -0.897063    0.022800
     26          6           0        2.613905   -0.978657    0.273605
     27          6           0        2.073464   -2.405047    0.168106
     28          1           0        4.340973   -1.301011   -0.974901
     29          1           0        4.640819   -1.542254    0.743533
     30          1           0        2.096658   -0.333049   -0.447685
     31          1           0        2.395712   -0.573401    1.269987
     32          1           0        2.562971   -3.057474    0.898396
     33          1           0        2.262217   -2.815756   -0.829036
     34          1           0        0.994953   -2.440277    0.350949
 ---------------------------------------------------------------------

 SCF Done:  E(RHF) =  -669.536153759     A.U. after   15 cycles
 E2 =    -0.2090788612D+01 EUMP2 =    -0.67162694237101D+03

 The electronic state is 1-A.
 Alpha  occ. eigenvalues --  -20.60926 -20.60916 -15.85962 -11.31275 -11.27839
 Alpha  occ. eigenvalues --  -11.27833 -11.27577 -11.26846 -11.26836 -11.21358
 Alpha  occ. eigenvalues --  -11.21069 -11.20922 -11.20896 -11.20829 -11.19800
 Alpha  occ. eigenvalues --   -1.59987  -1.39544  -1.19444  -1.08850  -1.07972
 Alpha  occ. eigenvalues --   -1.04839  -1.02972  -0.95697  -0.95387  -0.86406
 Alpha  occ. eigenvalues --   -0.86239  -0.82527  -0.79073  -0.77775  -0.77579
 Alpha  occ. eigenvalues --   -0.72190  -0.71302  -0.70553  -0.65101  -0.64842
 Alpha  occ. eigenvalues --   -0.64614  -0.62186  -0.60383  -0.58793  -0.56975
 Alpha  occ. eigenvalues --   -0.55345  -0.54701  -0.53173  -0.52932  -0.52020
 Alpha  occ. eigenvalues --   -0.51814  -0.49365  -0.48942  -0.48928  -0.47360
 Alpha  occ. eigenvalues --   -0.46142  -0.45310  -0.45239  -0.44953  -0.43191
 Alpha  occ. eigenvalues --   -0.37424  -0.36441
 Alpha virt. eigenvalues --    0.04932   0.11214   0.16414   0.21175   0.23234
 Alpha virt. eigenvalues --    0.24666   0.26595   0.27282   0.27636   0.28357
 Alpha virt. eigenvalues --    0.28876   0.30626   0.31646   0.32047   0.32640

 Mulliken charges:
               1
     1  C   -0.170581
     2  C   -0.218640
     3  C   -0.170986
     4  C    0.157649
     5  C   -0.170611
     6  C   -0.218633
     7  H    0.225948
     8  H    0.223960
     9  H    0.276388
    10  H    0.275796
    11  H    0.223736
    12  N    0.492237
    13  O   -0.458910
    14  O   -0.464162
    15  C   -0.297278
    16  C   -0.299184
    17  C   -0.475314
    18  H    0.146433
    19  H    0.147663
    20  H    0.151968
    21  H    0.152113
    22  H    0.154229
    23  H    0.153659
    24  H    0.159687
    25  C   -0.297443
    26  C   -0.297766
    27  C   -0.484468
    28  H    0.149274
    29  H    0.149107
    30  H    0.147303
    31  H    0.147550
    32  H    0.148683
    33  H    0.152931
    34  H    0.187663
 Sum of Mulliken charges =  -0.00000

 Dipole moment (field-independent basis, Debye):
    X=             -2.1718    Y=              4.7709    Z=              0.3276  Tot=              5.2522
 Quadrupole moment (field-independent basis, Debye-Ang):
   XX=            -79.0001   YY=            -96.2142   ZZ=            -94.5314
   XY=            -15.0028   XZ=             -2.0720   YZ=             -1.0110

 Normal termination of Gaussian 16 at Thu May  6 12:22:46 2021.
