 Gaussian 16, Revision A.03,
 Gaussian 16:  EM64L-G16RevA.03 25-Dec-2016

 -------------
 #p 6-31g* mp2
 -------------

 ------------------------------------------------------
 Input file generated by CHIRIPA (05-May-2021 14:55:22)
 ------------------------------------------------------
 Symbolic Z-matrix:
 Charge =  0 Multiplicity = 1

                         Standard orientation:
 ---------------------------------------------------------------------
 Center     Atomic      Atomic             Coordinates (Angstroms)
 Number     Number       Type             X           Y           Z
 ---------------------------------------------------------------------
      1          6           0        4.592416   -1.774154    0.631726
      2          6           0        3.241357   -1.921151    0.962712
      3          6           0        2.302613   -0.969094    0.554182
      4          6           0        2.751767    0.122503   -0.187415
      5          6           0        4.090979    0.296960   -0.532911
      6          6           0        5.012175   -0.667519   -0.113715
      7          1           0        5.314839   -2.518559    0.953225
      8          1           0        2.912505   -2.779564    1.541529
      9          1           0        1.250595   -1.058188    0.796543
     10          1           0        4.388643    1.163360   -1.110981
     11          1           0        6.060789   -0.550769   -0.372217
     12          7           0        1.767249    1.136978   -0.625554
     13          8           0        2.188410    2.089650   -1.277993
     14          8           0        0.593065    0.960242   -0.308231
     15          6           0       -3.860777   -0.685422    0.269186
     16          6           0       -4.683191   -1.345682   -0.837917
     17          6           0       -4.936599   -2.831318   -0.580115
     18          1           0       -2.901010   -1.210937    0.367289
     19          1           0       -4.383764   -0.808195    1.227731
     20          1           0       -4.159484   -1.220495   -1.794303
     21          1           0       -5.641035   -0.818414   -0.933525
     22          1           0       -5.479989   -2.971996    0.359852
     23          1           0       -3.990022   -3.376361   -0.505817
     24          1           0       -5.526207   -3.283385   -1.383767
     25          6           0       -3.599133    0.799841    0.025737
     26          6           0       -2.776720    1.460100    1.132841
     27          6           0       -2.523312    2.945737    0.875039
     28          1           0       -3.076146    0.922614   -0.932806
     29          1           0       -4.558901    1.325355   -0.072365
     30          1           0       -1.818876    0.932833    1.228449
     31          1           0       -3.300427    1.334913    2.089227
     32          1           0       -3.469889    3.490780    0.800741
     33          1           0       -1.979921    3.086415   -0.064927
     34          1           0       -1.933704    3.397804    1.678692
 ---------------------------------------------------------------------

 SCF Done:  E(RHF) =  -669.536245043     A.U. after   15 cycles
 E2 =    -0.2091313927D+01 EUMP2 =    -0.67162755897014D+03

 The electronic state is 1-A.
 Alpha  occ. eigenvalues --  -20.60999 -20.60994 -15.86033 -11.31334 -11.27898
 Alpha  occ. eigenvalues --  -11.27890 -11.27626 -11.26897 -11.26887 -11.21018
 Alpha  occ. eigenvalues --  -11.20680 -11.20644 -11.20301 -11.20236 -11.19624
 Alpha  occ. eigenvalues --   -1.60058  -1.39616  -1.19500  -1.08907  -1.07509
 Alpha  occ. eigenvalues --   -1.04894  -1.02570  -0.95754  -0.95046  -0.86295
 Alpha  occ. eigenvalues --   -0.86069  -0.82591  -0.78703  -0.77653  -0.77268
 Alpha  occ. eigenvalues --   -0.72268  -0.71370  -0.70609  -0.65163  -0.64896
 Alpha  occ. eigenvalues --   -0.64113  -0.62242  -0.59924  -0.58481  -0.56653
 Alpha  occ. eigenvalues --   -0.55398  -0.54320  -0.53225  -0.52985  -0.51767
 Alpha  occ. eigenvalues --   -0.51478  -0.49101  -0.49003  -0.48893  -0.47009
 Alpha  occ. eigenvalues --   -0.45731  -0.45065  -0.44819  -0.44634  -0.42847
 Alpha  occ. eigenvalues --   -0.37477  -0.36494
 Alpha virt. eigenvalues --    0.04878   0.11161   0.16373   0.21080   0.23556
 Alpha virt. eigenvalues --    0.25150   0.26413   0.27455   0.28061   0.28780
 Alpha virt. eigenvalues --    0.29018   0.30887   0.31874   0.32430   0.33024

 Mulliken charges:
               1
     1  C   -0.170536
     2  C   -0.218541
     3  C   -0.170542
     4  C    0.157771
     5  C   -0.170730
     6  C   -0.218545
     7  H    0.226185
     8  H    0.224115
     9  H    0.275268
    10  H    0.275949
    11  H    0.223973
    12  N    0.494132
    13  O   -0.458723
    14  O   -0.466411
    15  C   -0.296544
    16  C   -0.299227
    17  C   -0.474785
    18  H    0.146211
    19  H    0.145852
    20  H    0.152994
    21  H    0.151167
    22  H    0.153689
    23  H    0.152088
    24  H    0.158602
    25  C   -0.298691
    26  C   -0.300817
    27  C   -0.475555
    28  H    0.157664
    29  H    0.144942
    30  H    0.164836
    31  H    0.141972
    32  H    0.146483
    33  H    0.170490
    34  H    0.155261
 Sum of Mulliken charges =  -0.00000

 Dipole moment (field-independent basis, Debye):
    X=              3.8115    Y=             -3.5123    Z=              1.4234  Tot=              5.3749
 Quadrupole moment (field-independent basis, Debye-Ang):
   XX=            -73.5971   YY=            -96.2513   ZZ=            -95.0350
   XY=             -7.9982   XZ=              1.7761   YZ=             -0.7191

 Normal termination of Gaussian 16 at Wed May  5 15:59:04 2021.
