 Gaussian 16, Revision A.03,
 Gaussian 16:  EM64L-G16RevA.03 25-Dec-2016

 -------------
 #p 6-31g* mp2
 -------------

 ------------------------------------------------------
 Input file generated by CHIRIPA (05-May-2021 14:53:12)
 ------------------------------------------------------
 Symbolic Z-matrix:
 Charge =  0 Multiplicity = 1

                         Standard orientation:
 ---------------------------------------------------------------------
 Center     Atomic      Atomic             Coordinates (Angstroms)
 Number     Number       Type             X           Y           Z
 ---------------------------------------------------------------------
      1          6           0        2.342458   -0.079464   -0.222015
      2          6           0        3.199754   -0.798891    0.819835
      3          6           0        3.290690   -2.305009    0.572580
      4          1           0        1.333543   -0.514244   -0.220877
      5          1           0        2.760921   -0.263327   -1.221254
      6          1           0        2.780599   -0.612586    1.816938
      7          1           0        4.206691   -0.362219    0.816349
      8          1           0        3.729459   -2.508356   -0.409628
      9          1           0        2.295264   -2.760146    0.596646
     10          1           0        3.908182   -2.799457    1.328942
     11          6           0        2.241992    1.426859    0.011707
     12          6           0        1.384695    2.146287   -1.030143
     13          6           0        1.293760    3.652405   -0.782888
     14          1           0        1.823529    1.610723    1.010946
     15          1           0        3.250907    1.861640    0.010568
     16          1           0        0.377759    1.709615   -1.026657
     17          1           0        1.803851    1.959982   -2.027246
     18          1           0        2.289186    4.107541   -0.806954
     19          1           0        0.854991    3.855752    0.199320
     20          1           0        0.676267    4.146852   -1.539251
     21          6           0       -2.530969    1.535427    1.334050
     22          6           0       -2.831509    1.396068   -0.024911
     23          6           0       -2.426406    0.257968   -0.728594
     24          6           0       -1.719244   -0.725649   -0.038877
     25          6           0       -1.404597   -0.615909    1.314726
     26          6           0       -1.819726    0.530764    1.998361
     27          1           0       -2.849557    2.422859    1.872901
     28          1           0       -3.383734    2.174697   -0.543399
     29          1           0       -2.645652    0.124399   -1.780976
     30          1           0       -0.852682   -1.408997    1.804442
     31          1           0       -1.584915    0.636299    3.053715
     32          7           0       -1.285072   -1.935042   -0.773222
     33          8           0       -0.663270   -2.787333   -0.142669
     34          8           0       -1.574793   -2.007775   -1.965451
 ---------------------------------------------------------------------

 SCF Done:  E(RHF) =  -669.535795167     A.U. after   15 cycles
 E2 =    -0.2095504655D+01 EUMP2 =    -0.67163129982221D+03

 The electronic state is 1-A.
 Alpha  occ. eigenvalues --  -20.61022 -20.61015 -15.86033 -11.31372 -11.27944
 Alpha  occ. eigenvalues --  -11.27940 -11.27679 -11.26959 -11.26949 -11.21494
 Alpha  occ. eigenvalues --  -11.21242 -11.21228 -11.21197 -11.21017 -11.20284
 Alpha  occ. eigenvalues --   -1.60069  -1.39626  -1.19561  -1.08953  -1.08193
 Alpha  occ. eigenvalues --   -1.04954  -1.03261  -0.95790  -0.95701  -0.86716
 Alpha  occ. eigenvalues --   -0.86345  -0.82622  -0.79345  -0.78015  -0.77666
 Alpha  occ. eigenvalues --   -0.72263  -0.71398  -0.70651  -0.65214  -0.64954
 Alpha  occ. eigenvalues --   -0.64829  -0.62295  -0.60671  -0.59113  -0.57309
 Alpha  occ. eigenvalues --   -0.55446  -0.54996  -0.53294  -0.53033  -0.52399
 Alpha  occ. eigenvalues --   -0.52114  -0.49635  -0.49032  -0.49018  -0.47645
 Alpha  occ. eigenvalues --   -0.46409  -0.45663  -0.45501  -0.44756  -0.43525
 Alpha  occ. eigenvalues --   -0.37489  -0.36517
 Alpha virt. eigenvalues --    0.04803   0.11034   0.16270   0.21018   0.22905
 Alpha virt. eigenvalues --    0.24240   0.26439   0.27092   0.27666   0.27966
 Alpha virt. eigenvalues --    0.28504   0.30723   0.31413   0.31909   0.32095

 Mulliken charges:
               1
     1  C   -0.300949
     2  C   -0.298050
     3  C   -0.483660
     4  H    0.149686
     5  H    0.152608
     6  H    0.143718
     7  H    0.149845
     8  H    0.155757
     9  H    0.174745
    10  H    0.155421
    11  C   -0.296365
    12  C   -0.303917
    13  C   -0.474411
    14  H    0.144297
    15  H    0.148814
    16  H    0.154400
    17  H    0.153449
    18  H    0.155951
    19  H    0.150478
    20  H    0.157159
    21  C   -0.170594
    22  C   -0.217142
    23  C   -0.172671
    24  C    0.157637
    25  C   -0.172235
    26  C   -0.217863
    27  H    0.226825
    28  H    0.224885
    29  H    0.276727
    30  H    0.276181
    31  H    0.224553
    32  N    0.491953
    33  O   -0.460174
    34  O   -0.457057
 Sum of Mulliken charges =  -0.00000

 Dipole moment (field-independent basis, Debye):
    X=             -1.7457    Y=              4.0972    Z=              2.5110  Tot=              5.1127
 Quadrupole moment (field-independent basis, Debye-Ang):
   XX=            -88.7455   YY=           -102.2276   ZZ=            -91.3118
   XY=             -7.1155   XZ=             -3.1755   YZ=             -3.7075

 Normal termination of Gaussian 16 at Thu May  6 15:21:59 2021.
