 Gaussian 16, Revision A.03,
 Gaussian 16:  EM64L-G16RevA.03 25-Dec-2016

 -------------
 #p 6-31g* mp2
 -------------

 ------------------------------------------------------
 Input file generated by CHIRIPA (05-May-2021 14:55:24)
 ------------------------------------------------------
 Symbolic Z-matrix:
 Charge =  0 Multiplicity = 1

                         Standard orientation:
 ---------------------------------------------------------------------
 Center     Atomic      Atomic             Coordinates (Angstroms)
 Number     Number       Type             X           Y           Z
 ---------------------------------------------------------------------
      1          6           0       -0.557445   -2.270004    1.229072
      2          6           0       -1.400552   -1.385186    1.909358
      3          6           0       -2.213183   -0.493725    1.202620
      4          6           0       -2.157252   -0.514218   -0.190126
      5          6           0       -1.327724   -1.383732   -0.896610
      6          6           0       -0.523781   -2.266459   -0.169275
      7          1           0        0.070452   -2.959120    1.786083
      8          1           0       -1.428767   -1.385717    2.995290
      9          1           0       -2.875136    0.201906    1.703952
     10          1           0       -1.321420   -1.359789   -1.979571
     11          1           0        0.130017   -2.952506   -0.700248
     12          7           0       -3.012949    0.424909   -0.949220
     13          8           0       -2.945251    0.387088   -2.175850
     14          8           0       -3.735141    1.181034   -0.303193
     15          6           0        3.107077    0.668126   -0.437365
     16          6           0        3.994263   -0.500706   -0.007578
     17          6           0        5.042223   -0.865406   -1.059514
     18          1           0        2.607263    0.412849   -1.381804
     19          1           0        3.739474    1.542455   -0.644775
     20          1           0        3.360263   -1.372170    0.200293
     21          1           0        4.491876   -0.242693    0.936047
     22          1           0        5.698675   -0.012741   -1.261095
     23          1           0        4.560632   -1.148636   -2.001029
     24          1           0        5.665406   -1.703293   -0.731723
     25          6           0        2.054453    1.044508    0.603811
     26          6           0        1.167267    2.213339    0.174023
     27          6           0        0.119308    2.578039    1.225959
     28          1           0        1.422057    0.170178    0.811220
     29          1           0        2.554268    1.299785    1.548250
     30          1           0        0.669654    1.955326   -0.769601
     31          1           0        1.801267    3.084803   -0.033848
     32          1           0        0.600898    2.861269    2.167474
     33          1           0       -0.537145    1.725374    1.427541
     34          1           0       -0.503876    3.415927    0.898169
 ---------------------------------------------------------------------

 SCF Done:  E(RHF) =  -669.534985267     A.U. after   15 cycles
 E2 =    -0.2095032076D+01 EUMP2 =    -0.67163001734373D+03

 The electronic state is 1-A.
 Alpha  occ. eigenvalues --  -20.60876 -20.60864 -15.85928 -11.31352 -11.27939
 Alpha  occ. eigenvalues --  -11.27906 -11.27681 -11.26962 -11.26939 -11.21973
 Alpha  occ. eigenvalues --  -11.21559 -11.21511 -11.21419 -11.21361 -11.20863
 Alpha  occ. eigenvalues --   -1.59946  -1.39497  -1.19551  -1.08922  -1.08550
 Alpha  occ. eigenvalues --   -1.04958  -1.03644  -0.96089  -0.95741  -0.87110
 Alpha  occ. eigenvalues --   -0.86337  -0.82569  -0.79730  -0.78353  -0.77607
 Alpha  occ. eigenvalues --   -0.72144  -0.71276  -0.70638  -0.65210  -0.65189
 Alpha  occ. eigenvalues --   -0.64937  -0.62293  -0.61083  -0.59461  -0.57693
 Alpha  occ. eigenvalues --   -0.55472  -0.55382  -0.53316  -0.53032  -0.52764
 Alpha  occ. eigenvalues --   -0.52510  -0.50067  -0.48909  -0.48896  -0.48028
 Alpha  occ. eigenvalues --   -0.46787  -0.45878  -0.45755  -0.44877  -0.43877
 Alpha  occ. eigenvalues --   -0.37473  -0.36485
 Alpha virt. eigenvalues --    0.04894   0.11014   0.16367   0.20956   0.22740
 Alpha virt. eigenvalues --    0.23986   0.26313   0.26956   0.27267   0.27949
 Alpha virt. eigenvalues --    0.28375   0.30641   0.31488   0.31593   0.32022

 Mulliken charges:
               1
     1  C   -0.171494
     2  C   -0.215658
     3  C   -0.176897
     4  C    0.164085
     5  C   -0.171395
     6  C   -0.218082
     7  H    0.227222
     8  H    0.225249
     9  H    0.277623
    10  H    0.276394
    11  H    0.224740
    12  N    0.488211
    13  O   -0.460318
    14  O   -0.459513
    15  C   -0.297440
    16  C   -0.298148
    17  C   -0.475549
    18  H    0.148590
    19  H    0.151044
    20  H    0.143695
    21  H    0.152333
    22  H    0.157631
    23  H    0.154201
    24  H    0.159146
    25  C   -0.304428
    26  C   -0.299246
    27  C   -0.482399
    28  H    0.154105
    29  H    0.146755
    30  H    0.153294
    31  H    0.152272
    32  H    0.151536
    33  H    0.155766
    34  H    0.166674
 Sum of Mulliken charges =  -0.00000

 Dipole moment (field-independent basis, Debye):
    X=              2.8612    Y=             -3.3463    Z=              2.6594  Tot=              5.1436
 Quadrupole moment (field-independent basis, Debye-Ang):
   XX=           -108.1037   YY=            -90.8997   ZZ=            -92.5256
   XY=              5.6804   XZ=             -7.5082   YZ=              0.8475

 Normal termination of Gaussian 16 at Thu May  6 04:46:58 2021.
