 Gaussian 16, Revision A.03,
 Gaussian 16:  EM64L-G16RevA.03 25-Dec-2016

 -------------
 #p 6-31g* mp2
 -------------

 ------------------------------------------------------
 Input file generated by CHIRIPA (05-May-2021 14:57:22)
 ------------------------------------------------------
 Symbolic Z-matrix:
 Charge =  0 Multiplicity = 1

                         Standard orientation:
 ---------------------------------------------------------------------
 Center     Atomic      Atomic             Coordinates (Angstroms)
 Number     Number       Type             X           Y           Z
 ---------------------------------------------------------------------
      1          6           0        5.078145   -1.662867    0.080275
      2          6           0        4.867143   -0.889166   -1.065755
      3          6           0        3.940003    0.157184   -1.055233
      4          6           0        3.238107    0.403205    0.123795
      5          6           0        3.425973   -0.349836    1.281778
      6          6           0        4.358156   -1.391211    1.248325
      7          1           0        5.800328   -2.473765    0.063195
      8          1           0        5.424867   -1.097859   -1.974290
      9          1           0        3.756921    0.771878   -1.928188
     10          1           0        2.854951   -0.117791    2.172569
     11          1           0        4.519955   -1.990430    2.139842
     12          7           0        2.253916    1.508296    0.147072
     13          8           0        1.648254    1.704771    1.198361
     14          8           0        2.106804    2.157067   -0.886413
     15          6           0       -5.885469   -0.277948    0.312118
     16          6           0       -5.195902   -1.462877    0.034699
     17          6           0       -3.818913   -1.443262   -0.206269
     18          6           0       -3.160057   -0.215574   -0.161730
     19          6           0       -3.819092    0.981952    0.111941
     20          6           0       -5.196079    0.938540    0.349787
     21          1           0       -6.955146   -0.302429    0.498095
     22          1           0       -5.728702   -2.409067    0.004797
     23          1           0       -3.260368   -2.345637   -0.423444
     24          1           0       -3.260682    1.909889    0.134919
     25          1           0       -5.729016    1.860339    0.564981
     26          7           0       -1.702303   -0.182212   -0.415179
     27          8           0       -1.144889    0.912274   -0.370174
     28          8           0       -1.144730   -1.251182   -0.654038
 ---------------------------------------------------------------------

 SCF Done:  E(RHF) =  -868.336768602     A.U. after   16 cycles
 E2 =    -0.2600506181D+01 EUMP2 =    -0.87093727478279D+03

 The electronic state is 1-A.
 Alpha  occ. eigenvalues --  -20.60153 -20.59991 -20.59191 -20.59186 -15.85097
 Alpha  occ. eigenvalues --  -15.84263 -11.30645 -11.29951 -11.27276 -11.27189
 Alpha  occ. eigenvalues --  -11.27038 -11.26583 -11.26569 -11.26420 -11.26327
 Alpha  occ. eigenvalues --  -11.26275 -11.25700 -11.25687  -1.59149  -1.58212
 Alpha  occ. eigenvalues --   -1.38688  -1.37785  -1.18842  -1.18159  -1.08213
 Alpha  occ. eigenvalues --   -1.07499  -1.04269  -1.03633  -0.95014  -0.94286
 Alpha  occ. eigenvalues --   -0.85660  -0.85020  -0.81835  -0.81141  -0.76853
 Alpha  occ. eigenvalues --   -0.76116  -0.71356  -0.70554  -0.70443  -0.69954
 Alpha  occ. eigenvalues --   -0.69441  -0.69309  -0.64488  -0.64280  -0.63832
 Alpha  occ. eigenvalues --   -0.63669  -0.61610  -0.60994  -0.54781  -0.54155
 Alpha  occ. eigenvalues --   -0.52595  -0.52365  -0.51915  -0.51755  -0.48155
 Alpha  occ. eigenvalues --   -0.48091  -0.47227  -0.47223  -0.44101  -0.43058
 Alpha  occ. eigenvalues --   -0.36841  -0.36151  -0.35882  -0.35242
 Alpha virt. eigenvalues --    0.05682   0.06479   0.11769   0.12409   0.17134
 Alpha virt. eigenvalues --    0.17897   0.21875   0.22391   0.27773   0.28262
 Alpha virt. eigenvalues --    0.28803   0.29317   0.31406   0.31885   0.33095

 Mulliken charges:
               1
     1  C   -0.171917
     2  C   -0.218363
     3  C   -0.169108
     4  C    0.165771
     5  C   -0.168754
     6  C   -0.218311
     7  H    0.220891
     8  H    0.219347
     9  H    0.274111
    10  H    0.272868
    11  H    0.218819
    12  N    0.495894
    13  O   -0.461125
    14  O   -0.460410
    15  C   -0.171478
    16  C   -0.218816
    17  C   -0.171782
    18  C    0.158502
    19  C   -0.170662
    20  C   -0.218917
    21  H    0.223669
    22  H    0.220984
    23  H    0.273257
    24  H    0.281026
    25  H    0.222948
    26  N    0.487169
    27  O   -0.445095
    28  O   -0.470516
 Sum of Mulliken charges =  -0.00000

 Dipole moment (field-independent basis, Debye):
    X=             -1.8198    Y=             -3.7101    Z=              0.7836  Tot=              4.2060
 Quadrupole moment (field-independent basis, Debye-Ang):
   XX=            -53.2191   YY=           -103.7321   ZZ=           -101.6267
   XY=             -9.7784   XZ=             -3.2502   YZ=             -1.1602

 Normal termination of Gaussian 16 at Thu May  6 14:33:58 2021.
