 Gaussian 16, Revision A.03,
 Gaussian 16:  EM64L-G16RevA.03 25-Dec-2016

 -------------
 #p 6-31g* mp2
 -------------

 ------------------------------------------------------
 Input file generated by CHIRIPA (05-May-2021 14:51:12)
 ------------------------------------------------------
 Symbolic Z-matrix:
 Charge =  0 Multiplicity = 1

                         Standard orientation:
 ---------------------------------------------------------------------
 Center     Atomic      Atomic             Coordinates (Angstroms)
 Number     Number       Type             X           Y           Z
 ---------------------------------------------------------------------
      1          6           0       -2.704754    1.242925   -0.092322
      2          6           0       -1.624521    1.715568    0.881172
      3          6           0       -1.639016    3.230094    1.090446
      4          1           0       -2.566531    1.749213   -1.057470
      5          1           0       -3.689287    1.552485    0.284856
      6          1           0       -0.642427    1.404005    0.502973
      7          1           0       -1.765217    1.207952    1.844057
      8          1           0       -2.605114    3.554487    1.490475
      9          1           0       -1.475945    3.751654    0.141771
     10          1           0       -0.858804    3.546213    1.789873
     11          6           0       -2.702973   -0.268874   -0.311840
     12          6           0       -3.783206   -0.741517   -1.285334
     13          6           0       -3.768711   -2.256042   -1.494608
     14          1           0       -1.718440   -0.578434   -0.689018
     15          1           0       -2.841196   -0.775162    0.653309
     16          1           0       -3.642511   -0.233901   -2.248219
     17          1           0       -4.765300   -0.429954   -0.907135
     18          1           0       -3.931782   -2.777602   -0.545933
     19          1           0       -2.802613   -2.580435   -1.894636
     20          1           0       -4.548923   -2.572162   -2.194034
     21          6           0        2.204764   -0.448340    0.779000
     22          6           0        1.886970   -1.809812    1.398181
     23          6           0        0.887037   -1.716006    2.551059
     24          1           0        2.601776    0.217644    1.557326
     25          1           0        1.272711    0.010307    0.420787
     26          1           0        2.819527   -2.266362    1.753872
     27          1           0        1.490848   -2.472691    0.618249
     28          1           0       -0.058234   -1.283974    2.206950
     29          1           0        1.277994   -1.076473    3.349025
     30          1           0        0.674181   -2.700601    2.978990
     31          6           0        3.202964   -0.525712   -0.374837
     32          6           0        3.520757    0.835761   -0.994019
     33          6           0        4.520690    0.741955   -2.146897
     34          1           0        4.135017   -0.984359   -0.016626
     35          1           0        2.805951   -1.191695   -1.153164
     36          1           0        3.916880    1.498640   -0.214088
     37          1           0        2.588200    1.292311   -1.349711
     38          1           0        4.129733    0.102422   -2.944864
     39          1           0        5.465962    0.309923   -1.802789
     40          1           0        4.733546    1.726550   -2.574829
 ---------------------------------------------------------------------

 SCF Done:  E(RHF) =  -470.733283139     A.U. after   11 cycles
 E2 =    -0.1583670974D+01 EUMP2 =    -0.47231695411301D+03

 The electronic state is 1-A.
 Alpha  occ. eigenvalues --  -11.21655 -11.21623 -11.21611 -11.21570 -11.21470
 Alpha  occ. eigenvalues --  -11.21402 -11.21397 -11.21328 -11.21111 -11.21088
 Alpha  occ. eigenvalues --  -11.21081 -11.20999  -1.08491  -1.08417  -1.03569
 Alpha  occ. eigenvalues --   -1.03511  -0.96016  -0.95962  -0.87033  -0.86979
 Alpha  occ. eigenvalues --   -0.79672  -0.79554  -0.78400  -0.78138  -0.65199
 Alpha  occ. eigenvalues --   -0.64982  -0.60979  -0.60904  -0.59409  -0.59305
 Alpha  occ. eigenvalues --   -0.57637  -0.57563  -0.55306  -0.55250  -0.52708
 Alpha  occ. eigenvalues --   -0.52657  -0.52447  -0.52385  -0.49989  -0.49888
 Alpha  occ. eigenvalues --   -0.48077  -0.47831  -0.46794  -0.46609  -0.46159
 Alpha  occ. eigenvalues --   -0.45775  -0.45742  -0.45165  -0.43822  -0.43771
 Alpha virt. eigenvalues --    0.20358   0.23376   0.23795   0.24060   0.25025
 Alpha virt. eigenvalues --    0.25701   0.27113   0.27871   0.28476   0.29474
 Alpha virt. eigenvalues --    0.31292   0.31304   0.31756   0.31909   0.32012

 Mulliken charges:
               1
     1  C   -0.297765
     2  C   -0.308911
     3  C   -0.475149
     4  H    0.149472
     5  H    0.149840
     6  H    0.159702
     7  H    0.153266
     8  H    0.155154
     9  H    0.154971
    10  H    0.160812
    11  C   -0.300330
    12  C   -0.299716
    13  C   -0.475740
    14  H    0.149198
    15  H    0.150635
    16  H    0.152083
    17  H    0.152361
    18  H    0.155499
    19  H    0.154971
    20  H    0.160473
    21  C   -0.307314
    22  C   -0.298716
    23  C   -0.479220
    24  H    0.149453
    25  H    0.157981
    26  H    0.151715
    27  H    0.151568
    28  H    0.159548
    29  H    0.154636
    30  H    0.159684
    31  C   -0.297557
    32  C   -0.299576
    33  C   -0.475665
    34  H    0.149705
    35  H    0.149140
    36  H    0.152160
    37  H    0.150906
    38  H    0.155076
    39  H    0.155373
    40  H    0.160277
 Sum of Mulliken charges =  -0.00000

 Dipole moment (field-independent basis, Debye):
    X=             -0.0281    Y=              0.0168    Z=              0.0030  Tot=              0.0329
 Quadrupole moment (field-independent basis, Debye-Ang):
   XX=            -84.2232   YY=            -85.9499   ZZ=            -84.5447
   XY=              0.0137   XZ=              0.5710   YZ=             -0.1577

 Normal termination of Gaussian 16 at Thu May  6 03:53:47 2021.
