 Gaussian 16, Revision A.03,
 Gaussian 16:  EM64L-G16RevA.03 25-Dec-2016

 -------------
 #p 6-31g* mp2
 -------------

 ------------------------------------------------------
 Input file generated by CHIRIPA (05-May-2021 14:53:14)
 ------------------------------------------------------
 Symbolic Z-matrix:
 Charge =  0 Multiplicity = 1

                         Standard orientation:
 ---------------------------------------------------------------------
 Center     Atomic      Atomic             Coordinates (Angstroms)
 Number     Number       Type             X           Y           Z
 ---------------------------------------------------------------------
      1          6           0       -5.220779    0.232262   -0.509820
      2          6           0       -6.740982    0.092902   -0.422953
      3          6           0       -7.475800    1.016941   -1.394543
      4          1           0       -4.942426    1.275561   -0.307359
      5          1           0       -4.897916    0.016455   -1.537722
      6          1           0       -7.060738    0.307556    0.604809
      7          1           0       -7.015734   -0.950229   -0.625456
      8          1           0       -7.185395    0.799265   -2.427444
      9          1           0       -7.230655    2.064197   -1.190189
     10          1           0       -8.561246    0.900975   -1.315690
     11          6           0       -4.472187   -0.685112    0.455459
     12          6           0       -2.951984   -0.545752    0.368592
     13          6           0       -2.217166   -1.469791    1.340182
     14          1           0       -4.795050   -0.469305    1.483361
     15          1           0       -4.750540   -1.728412    0.252998
     16          1           0       -2.677232    0.497378    0.571095
     17          1           0       -2.632228   -0.760407   -0.659170
     18          1           0       -2.462311   -2.517047    1.135828
     19          1           0       -2.507571   -1.252116    2.373083
     20          1           0       -1.131720   -1.353825    1.261328
     21          6           0        1.920990    1.004717    1.504878
     22          6           0        1.986283   -0.346879    1.150696
     23          6           0        3.015350   -0.816681    0.329200
     24          6           0        3.966648    0.096864   -0.122198
     25          6           0        3.928754    1.449406    0.213185
     26          6           0        2.890724    1.896974    1.035819
     27          1           0        1.118105    1.361035    2.143477
     28          1           0        1.234550   -1.042088    1.513499
     29          1           0        3.089863   -1.857823    0.039566
     30          1           0        4.692614    2.118483   -0.164004
     31          1           0        2.842529    2.947188    1.309264
     32          7           0        5.060819   -0.388725   -0.992481
     33          8           0        5.886675    0.436323   -1.377052
     34          8           0        5.071857   -1.585182   -1.273559
 ---------------------------------------------------------------------

 SCF Done:  E(RHF) =  -669.535494010     A.U. after   15 cycles
 E2 =    -0.2090793870D+01 EUMP2 =    -0.67162628787998D+03

 The electronic state is 1-A.
 Alpha  occ. eigenvalues --  -20.60752 -20.60747 -15.85806 -11.31174 -11.27749
 Alpha  occ. eigenvalues --  -11.27743 -11.27491 -11.26760 -11.26741 -11.22359
 Alpha  occ. eigenvalues --  -11.22069 -11.21997 -11.21977 -11.21844 -11.21398
 Alpha  occ. eigenvalues --   -1.59828  -1.39381  -1.19349  -1.08997  -1.08743
 Alpha  occ. eigenvalues --   -1.04755  -1.04130  -0.96595  -0.95577  -0.87618
 Alpha  occ. eigenvalues --   -0.86152  -0.82410  -0.80195  -0.78776  -0.77459
 Alpha  occ. eigenvalues --   -0.72025  -0.71151  -0.70455  -0.65622  -0.65002
 Alpha  occ. eigenvalues --   -0.64794  -0.62141  -0.61519  -0.59978  -0.58188
 Alpha  occ. eigenvalues --   -0.55867  -0.55255  -0.53427  -0.53093  -0.53039
 Alpha  occ. eigenvalues --   -0.52687  -0.50520  -0.48787  -0.48779  -0.48501
 Alpha  occ. eigenvalues --   -0.47213  -0.46328  -0.46230  -0.44786  -0.44381
 Alpha  occ. eigenvalues --   -0.37327  -0.36354
 Alpha virt. eigenvalues --    0.05081   0.11220   0.16555   0.20053   0.22512
 Alpha virt. eigenvalues --    0.23861   0.25797   0.26111   0.26960   0.27953
 Alpha virt. eigenvalues --    0.28598   0.29903   0.30847   0.31521   0.31988

 Mulliken charges:
               1
     1  C   -0.298638
     2  C   -0.300061
     3  C   -0.475997
     4  H    0.149319
     5  H    0.151129
     6  H    0.151991
     7  H    0.152896
     8  H    0.156130
     9  H    0.155194
    10  H    0.161415
    11  C   -0.299168
    12  C   -0.298479
    13  C   -0.480758
    14  H    0.149629
    15  H    0.151517
    16  H    0.149658
    17  H    0.155598
    18  H    0.160281
    19  H    0.156089
    20  H    0.151788
    21  C   -0.172041
    22  C   -0.223245
    23  C   -0.171766
    24  C    0.158711
    25  C   -0.170902
    26  C   -0.218623
    27  H    0.225900
    28  H    0.230413
    29  H    0.275946
    30  H    0.275599
    31  H    0.223348
    32  N    0.488029
    33  O   -0.460502
    34  O   -0.460396
 Sum of Mulliken charges =  -0.00000

 Dipole moment (field-independent basis, Debye):
    X=             -4.0249    Y=              1.7116    Z=              3.0246  Tot=              5.3177
 Quadrupole moment (field-independent basis, Debye-Ang):
   XX=           -125.0816   YY=            -89.9711   ZZ=            -96.2474
   XY=              8.9603   XZ=             12.2476   YZ=              0.8398

 Normal termination of Gaussian 16 at Thu May  6 12:06:42 2021.
