 Gaussian 16, Revision A.03,
 Gaussian 16:  EM64L-G16RevA.03 25-Dec-2016

 -------------
 #p 6-31g* mp2
 -------------

 ------------------------------------------------------
 Input file generated by CHIRIPA (05-May-2021 14:57:21)
 ------------------------------------------------------
 Symbolic Z-matrix:
 Charge =  0 Multiplicity = 1

                         Standard orientation:
 ---------------------------------------------------------------------
 Center     Atomic      Atomic             Coordinates (Angstroms)
 Number     Number       Type             X           Y           Z
 ---------------------------------------------------------------------
      1          6           0       -1.380284    2.478107    1.049301
      2          6           0       -1.746947    1.405467    1.868767
      3          6           0       -2.337692    0.262941    1.320860
      4          6           0       -2.548123    0.226621   -0.056707
      5          6           0       -2.193838    1.279021   -0.899456
      6          6           0       -1.604504    2.411577   -0.329764
      7          1           0       -0.921928    3.361776    1.483391
      8          1           0       -1.574014    1.454364    2.940097
      9          1           0       -2.631283   -0.581841    1.932060
     10          1           0       -2.378862    1.201076   -1.963932
     11          1           0       -1.320769    3.243096   -0.968603
     12          7           0       -3.172770   -0.977643   -0.648283
     13          8           0       -3.347492   -0.984987   -1.864858
     14          8           0       -3.475820   -1.891400    0.115816
     15          6           0        3.810354    1.618427   -0.611937
     16          6           0        4.449459    0.409971   -0.315798
     17          6           0        3.703120   -0.728673    0.002029
     18          6           0        2.313192   -0.622659    0.014423
     19          6           0        1.647228    0.567047   -0.276062
     20          6           0        2.413740    1.692977   -0.591161
     21          1           0        4.397965    2.498015   -0.857773
     22          1           0        5.533946    0.349139   -0.331165
     23          1           0        4.172121   -1.676846    0.235318
     24          1           0        0.564644    0.596755   -0.252650
     25          1           0        1.914702    2.630156   -0.820725
     26          7           0        1.512397   -1.821360    0.349449
     27          8           0        0.289149   -1.701847    0.353535
     28          8           0        2.123146   -2.857718    0.601612
 ---------------------------------------------------------------------

 SCF Done:  E(RHF) =  -868.336346567     A.U. after   16 cycles
 E2 =    -0.2605254588D+01 EUMP2 =    -0.87094160115561D+03

 The electronic state is 1-A.
 Alpha  occ. eigenvalues --  -20.60852 -20.60821 -20.60274 -20.60203 -15.85892
 Alpha  occ. eigenvalues --  -15.85311 -11.31239 -11.31058 -11.27872 -11.27806
 Alpha  occ. eigenvalues --  -11.27707 -11.27672 -11.27635 -11.27622 -11.26949
 Alpha  occ. eigenvalues --  -11.26916 -11.26882 -11.26756  -1.59907  -1.59287
 Alpha  occ. eigenvalues --   -1.39466  -1.38838  -1.19471  -1.19349  -1.08867
 Alpha  occ. eigenvalues --   -1.08664  -1.04901  -1.04776  -0.95690  -0.95415
 Alpha  occ. eigenvalues --   -0.86278  -0.86162  -0.82537  -0.82246  -0.77585
 Alpha  occ. eigenvalues --   -0.77199  -0.72172  -0.71548  -0.71232  -0.70610
 Alpha  occ. eigenvalues --   -0.70528  -0.70428  -0.65125  -0.64986  -0.64935
 Alpha  occ. eigenvalues --   -0.64770  -0.62292  -0.62114  -0.55460  -0.55316
 Alpha  occ. eigenvalues --   -0.53542  -0.53205  -0.52875  -0.52365  -0.48874
 Alpha  occ. eigenvalues --   -0.48855  -0.48332  -0.48258  -0.44878  -0.44164
 Alpha  occ. eigenvalues --   -0.37506  -0.37396  -0.36524  -0.36287
 Alpha virt. eigenvalues --    0.04959   0.05359   0.11117   0.11181   0.16307
 Alpha virt. eigenvalues --    0.16871   0.20503   0.21900   0.26141   0.27875
 Alpha virt. eigenvalues --    0.28321   0.28715   0.30301   0.31415   0.32473

 Mulliken charges:
               1
     1  C   -0.176072
     2  C   -0.220893
     3  C   -0.154275
     4  C    0.172472
     5  C   -0.181987
     6  C   -0.234327
     7  H    0.223355
     8  H    0.225137
     9  H    0.282400
    10  H    0.276549
    11  H    0.218999
    12  N    0.491139
    13  O   -0.464382
    14  O   -0.452082
    15  C   -0.169978
    16  C   -0.220032
    17  C   -0.169105
    18  C    0.155263
    19  C   -0.174880
    20  C   -0.226068
    21  H    0.224287
    22  H    0.223488
    23  H    0.276204
    24  H    0.292928
    25  H    0.214948
    26  N    0.490401
    27  O   -0.465496
    28  O   -0.457992
 Sum of Mulliken charges =  -0.00000

 Dipole moment (field-independent basis, Debye):
    X=              4.7379    Y=              7.9713    Z=              1.0963  Tot=              9.3377
 Quadrupole moment (field-independent basis, Debye-Ang):
   XX=            -99.9307   YY=           -107.5450   ZZ=           -101.7740
   XY=             -4.2707   XZ=             -8.3267   YZ=             -1.4843

 Normal termination of Gaussian 16 at Wed May  5 19:19:39 2021.
