 Gaussian 16, Revision A.03,
 Gaussian 16:  EM64L-G16RevA.03 25-Dec-2016

 -------------
 #p 6-31g* mp2
 -------------

 ------------------------------------------------------
 Input file generated by CHIRIPA (05-May-2021 14:55:23)
 ------------------------------------------------------
 Symbolic Z-matrix:
 Charge =  0 Multiplicity = 1

                         Standard orientation:
 ---------------------------------------------------------------------
 Center     Atomic      Atomic             Coordinates (Angstroms)
 Number     Number       Type             X           Y           Z
 ---------------------------------------------------------------------
      1          6           0        5.263052    0.698791    0.141860
      2          6           0        5.056760   -0.672685    0.323573
      3          6           0        3.774456   -1.218592    0.212987
      4          6           0        2.716454   -0.360055   -0.081691
      5          6           0        2.889875    1.010494   -0.268270
      6          6           0        4.180859    1.534529   -0.152962
      7          1           0        6.262548    1.114369    0.229600
      8          1           0        5.895336   -1.324123    0.552622
      9          1           0        3.586417   -2.276713    0.348780
     10          1           0        2.034241    1.634668   -0.495681
     11          1           0        4.338097    2.600016   -0.294594
     12          7           0        1.354342   -0.926405   -0.201263
     13          8           0        0.438872   -0.148747   -0.461648
     14          8           0        1.227979   -2.137245   -0.032334
     15          6           0       -3.277163    0.890373    0.290627
     16          6           0       -3.700143    2.286174   -0.168518
     17          6           0       -2.715332    3.373735    0.261771
     18          1           0       -3.178364    0.885503    1.384775
     19          1           0       -2.280788    0.665086   -0.114190
     20          1           0       -4.696014    2.508206    0.235905
     21          1           0       -3.798133    2.287670   -1.261684
     22          1           0       -1.721208    3.179498   -0.153668
     23          1           0       -2.624191    3.401288    1.352430
     24          1           0       -3.037092    4.363501   -0.076894
     25          6           0       -4.251660   -0.207586   -0.131947
     26          6           0       -3.828680   -1.603386    0.327197
     27          6           0       -4.813491   -2.690949   -0.103091
     28          1           0       -5.248035    0.017701    0.272869
     29          1           0       -4.350459   -0.202717   -1.226095
     30          1           0       -3.730691   -1.604882    1.420364
     31          1           0       -2.832809   -1.825419   -0.077225
     32          1           0       -4.904632   -2.718501   -1.193749
     33          1           0       -5.807616   -2.496711    0.312348
     34          1           0       -4.491731   -3.680715    0.235574
 ---------------------------------------------------------------------

 SCF Done:  E(RHF) =  -669.536473618     A.U. after   15 cycles
 E2 =    -0.2091188003D+01 EUMP2 =    -0.67162766162123D+03

 The electronic state is 1-A.
 Alpha  occ. eigenvalues --  -20.61030 -20.61021 -15.86057 -11.31339 -11.27897
 Alpha  occ. eigenvalues --  -11.27894 -11.27628 -11.26896 -11.26886 -11.20623
 Alpha  occ. eigenvalues --  -11.20338 -11.20202 -11.20123 -11.19959 -11.19910
 Alpha  occ. eigenvalues --   -1.60082  -1.39640  -1.19503  -1.08915  -1.07189
 Alpha  occ. eigenvalues --   -1.04894  -1.02422  -0.95764  -0.94891  -0.86296
 Alpha  occ. eigenvalues --   -0.85922  -0.82601  -0.78471  -0.77658  -0.76954
 Alpha  occ. eigenvalues --   -0.72282  -0.71391  -0.70612  -0.65162  -0.64897
 Alpha  occ. eigenvalues --   -0.63809  -0.62242  -0.59825  -0.58268  -0.56489
 Alpha  occ. eigenvalues --   -0.55400  -0.54185  -0.53227  -0.52985  -0.51641
 Alpha  occ. eigenvalues --   -0.51328  -0.49076  -0.49030  -0.48831  -0.46799
 Alpha  occ. eigenvalues --   -0.45479  -0.45079  -0.44550  -0.44284  -0.42629
 Alpha  occ. eigenvalues --   -0.37480  -0.36493
 Alpha virt. eigenvalues --    0.04872   0.11163   0.16374   0.21214   0.24027
 Alpha virt. eigenvalues --    0.25224   0.27053   0.27544   0.28143   0.28945
 Alpha virt. eigenvalues --    0.29186   0.30844   0.31865   0.32584   0.32940

 Mulliken charges:
               1
     1  C   -0.170481
     2  C   -0.218623
     3  C   -0.170352
     4  C    0.157436
     5  C   -0.170500
     6  C   -0.218548
     7  H    0.226190
     8  H    0.223966
     9  H    0.275951
    10  H    0.275552
    11  H    0.224139
    12  N    0.494152
    13  O   -0.465977
    14  O   -0.458792
    15  C   -0.311278
    16  C   -0.297863
    17  C   -0.474522
    18  H    0.144078
    19  H    0.180026
    20  H    0.147516
    21  H    0.149844
    22  H    0.154695
    23  H    0.152723
    24  H    0.155105
    25  C   -0.296552
    26  C   -0.303263
    27  C   -0.475002
    28  H    0.142988
    29  H    0.147135
    30  H    0.148094
    31  H    0.169992
    32  H    0.153143
    33  H    0.150265
    34  H    0.158761
 Sum of Mulliken charges =  -0.00000

 Dipole moment (field-independent basis, Debye):
    X=              5.2112    Y=              1.8623    Z=              0.3710  Tot=              5.5464
 Quadrupole moment (field-independent basis, Debye-Ang):
   XX=            -70.2052   YY=            -93.6038   ZZ=            -94.9505
   XY=              1.5276   XZ=              0.8103   YZ=             -1.5066

 Normal termination of Gaussian 16 at Thu May  6 14:18:25 2021.
