 Gaussian 16, Revision A.03,
 Gaussian 16:  EM64L-G16RevA.03 25-Dec-2016

 -------------
 #p 6-31g* mp2
 -------------

 ------------------------------------------------------
 Input file generated by CHIRIPA (05-May-2021 14:55:23)
 ------------------------------------------------------
 Symbolic Z-matrix:
 Charge =  0 Multiplicity = 1

                         Standard orientation:
 ---------------------------------------------------------------------
 Center     Atomic      Atomic             Coordinates (Angstroms)
 Number     Number       Type             X           Y           Z
 ---------------------------------------------------------------------
      1          6           0        4.286643    1.423572    0.723862
      2          6           0        4.553423    0.619940   -0.389477
      3          6           0        3.632756   -0.346989   -0.804168
      4          6           0        2.450063   -0.483930   -0.079066
      5          6           0        2.155459    0.301513    1.034297
      6          6           0        3.090621    1.262079    1.430949
      7          1           0        5.007470    2.172234    1.038998
      8          1           0        5.481444    0.743142   -0.940516
      9          1           0        3.813873   -0.982578   -1.662447
     10          1           0        1.221657    0.155350    1.563511
     11          1           0        2.880772    1.884781    2.295964
     12          7           0        1.467721   -1.504207   -0.508533
     13          8           0        0.433116   -1.605139    0.147243
     14          8           0        1.750967   -2.183647   -1.492794
     15          6           0       -3.470743    1.004915   -0.443630
     16          6           0       -2.736343    2.269472    0.003065
     17          6           0       -3.001233    3.462626   -0.915635
     18          1           0       -3.166250    0.754622   -1.469097
     19          1           0       -4.549831    1.209145   -0.479029
     20          1           0       -1.659079    2.062513    0.038944
     21          1           0       -3.042476    2.516674    1.027657
     22          1           0       -4.070220    3.697307   -0.943769
     23          1           0       -2.678964    3.240565   -1.938100
     24          1           0       -2.466568    4.355876   -0.577850
     25          6           0       -3.215886   -0.196526    0.464840
     26          6           0       -3.950286   -1.461083    0.018145
     27          6           0       -3.685397   -2.654238    0.936846
     28          1           0       -2.136797   -0.400758    0.500239
     29          1           0       -3.520379    0.053766    1.490307
     30          1           0       -3.644155   -1.708286   -1.006448
     31          1           0       -5.027550   -1.254125   -0.017734
     32          1           0       -4.007665   -2.432177    1.959309
     33          1           0       -2.616409   -2.888919    0.964979
     34          1           0       -4.220061   -3.547488    0.599060
 ---------------------------------------------------------------------

 SCF Done:  E(RHF) =  -669.536526031     A.U. after   15 cycles
 E2 =    -0.2091450864D+01 EUMP2 =    -0.67162797689524D+03

 The electronic state is 1-A.
 Alpha  occ. eigenvalues --  -20.61040 -20.61029 -15.86065 -11.31341 -11.27897
 Alpha  occ. eigenvalues --  -11.27894 -11.27627 -11.26897 -11.26886 -11.21224
 Alpha  occ. eigenvalues --  -11.20798 -11.20692 -11.20537 -11.20303 -11.19877
 Alpha  occ. eigenvalues --   -1.60093  -1.39651  -1.19505  -1.08917  -1.07639
 Alpha  occ. eigenvalues --   -1.04894  -1.02765  -0.95767  -0.95207  -0.86297
 Alpha  occ. eigenvalues --   -0.86231  -0.82604  -0.78889  -0.77686  -0.77375
 Alpha  occ. eigenvalues --   -0.72292  -0.71403  -0.70612  -0.65165  -0.64896
 Alpha  occ. eigenvalues --   -0.64248  -0.62241  -0.60145  -0.58635  -0.56818
 Alpha  occ. eigenvalues --   -0.55400  -0.54473  -0.53228  -0.52984  -0.51956
 Alpha  occ. eigenvalues --   -0.51635  -0.49177  -0.49041  -0.49013  -0.47192
 Alpha  occ. eigenvalues --   -0.45923  -0.45241  -0.44954  -0.44594  -0.43004
 Alpha  occ. eigenvalues --   -0.37481  -0.36493
 Alpha virt. eigenvalues --    0.04831   0.11147   0.16316   0.21100   0.23520
 Alpha virt. eigenvalues --    0.25089   0.26181   0.27437   0.27797   0.28714
 Alpha virt. eigenvalues --    0.29066   0.31073   0.32070   0.32266   0.32598

 Mulliken charges:
               1
     1  C   -0.170459
     2  C   -0.218531
     3  C   -0.170744
     4  C    0.157760
     5  C   -0.171360
     6  C   -0.218475
     7  H    0.226252
     8  H    0.224004
     9  H    0.275878
    10  H    0.276641
    11  H    0.224371
    12  N    0.492428
    13  O   -0.465152
    14  O   -0.458250
    15  C   -0.297361
    16  C   -0.298369
    17  C   -0.474972
    18  H    0.151132
    19  H    0.146665
    20  H    0.147850
    21  H    0.148984
    22  H    0.155163
    23  H    0.155550
    24  H    0.156139
    25  C   -0.309765
    26  C   -0.296538
    27  C   -0.480708
    28  H    0.171967
    29  H    0.142239
    30  H    0.155257
    31  H    0.145593
    32  H    0.148323
    33  H    0.172339
    34  H    0.156150
 Sum of Mulliken charges =  -0.00000

 Dipole moment (field-independent basis, Debye):
    X=              3.7693    Y=              3.4536    Z=              1.4547  Tot=              5.3152
 Quadrupole moment (field-independent basis, Debye-Ang):
   XX=            -76.6607   YY=            -99.7377   ZZ=            -92.6017
   XY=              6.4690   XZ=              0.6047   YZ=              1.0318

 Normal termination of Gaussian 16 at Wed May  5 23:58:08 2021.
