 Gaussian 16, Revision A.03,
 Gaussian 16:  EM64L-G16RevA.03 25-Dec-2016

 -------------
 #p 6-31g* mp2
 -------------

 ------------------------------------------------------
 Input file generated by CHIRIPA (05-May-2021 14:51:08)
 ------------------------------------------------------
 Symbolic Z-matrix:
 Charge =  0 Multiplicity = 1

                         Standard orientation:
 ---------------------------------------------------------------------
 Center     Atomic      Atomic             Coordinates (Angstroms)
 Number     Number       Type             X           Y           Z
 ---------------------------------------------------------------------
      1          6           0       -4.179253   -0.327252    0.055211
      2          6           0       -4.690685    1.078003   -0.263664
      3          6           0       -6.216760    1.170248   -0.244180
      4          1           0       -4.600209   -1.037081   -0.669967
      5          1           0       -4.553275   -0.630674    1.042853
      6          1           0       -4.314671    1.379233   -1.249813
      7          1           0       -4.268310    1.784599    0.462241
      8          1           0       -6.606757    0.895493    0.741219
      9          1           0       -6.653382    0.487824   -0.980562
     10          1           0       -6.560695    2.183367   -0.474744
     11          6           0       -2.655514   -0.435429    0.039562
     12          6           0       -2.144082   -1.840684    0.358437
     13          6           0       -0.618007   -1.932930    0.338953
     14          1           0       -2.281492   -0.132007   -0.948080
     15          1           0       -2.234558    0.274400    0.764740
     16          1           0       -2.566457   -2.547280   -0.367468
     17          1           0       -2.520095   -2.141914    1.344586
     18          1           0       -0.181384   -1.250505    1.075335
     19          1           0       -0.228009   -1.658174   -0.646447
     20          1           0       -0.274072   -2.946048    0.569517
     21          6           0        3.822348   -0.240656   -0.227817
     22          6           0        3.066311   -1.547584    0.013705
     23          6           0        3.889572   -2.783026   -0.351975
     24          1           0        4.118936   -0.185883   -1.284218
     25          1           0        4.752060   -0.249396    0.357806
     26          1           0        2.137630   -1.535793   -0.571127
     27          1           0        2.771324   -1.599164    1.069610
     28          1           0        4.809295   -2.822321    0.240616
     29          1           0        4.172001   -2.758591   -1.409442
     30          1           0        3.330013   -3.706167   -0.171515
     31          6           0        3.012418    1.003337    0.133044
     32          6           0        3.768455    2.310265   -0.108478
     33          6           0        2.945195    3.545707    0.257203
     34          1           0        2.082707    1.012077   -0.452579
     35          1           0        2.715831    0.948564    1.189445
     36          1           0        4.063443    2.361845   -1.164383
     37          1           0        4.697137    2.298474    0.476354
     38          1           0        2.662765    3.521272    1.314670
     39          1           0        2.025471    3.585002   -0.335389
     40          1           0        3.504754    4.468848    0.076742
 ---------------------------------------------------------------------

 SCF Done:  E(RHF) =  -470.732572072     A.U. after   11 cycles
 E2 =    -0.1583153467D+01 EUMP2 =    -0.47231572553951D+03

 The electronic state is 1-A.
 Alpha  occ. eigenvalues --  -11.21600 -11.21569 -11.21565 -11.21407 -11.21401
 Alpha  occ. eigenvalues --  -11.21342 -11.21338 -11.21267 -11.21070 -11.21047
 Alpha  occ. eigenvalues --  -11.21033 -11.20976  -1.08428  -1.08351  -1.03542
 Alpha  occ. eigenvalues --   -1.03433  -0.95985  -0.95903  -0.87034  -0.86896
 Alpha  occ. eigenvalues --   -0.79735  -0.79395  -0.78288  -0.78089  -0.65075
 Alpha  occ. eigenvalues --   -0.64975  -0.60987  -0.60796  -0.59376  -0.59253
 Alpha  occ. eigenvalues --   -0.57587  -0.57518  -0.55291  -0.55180  -0.52719
 Alpha  occ. eigenvalues --   -0.52599  -0.52455  -0.52270  -0.49996  -0.49795
 Alpha  occ. eigenvalues --   -0.48121  -0.47657  -0.46741  -0.46424  -0.45930
 Alpha  occ. eigenvalues --   -0.45741  -0.45610  -0.45385  -0.43778  -0.43687
 Alpha virt. eigenvalues --    0.21949   0.23068   0.23863   0.24642   0.25725
 Alpha virt. eigenvalues --    0.26099   0.27059   0.27402   0.27960   0.29608
 Alpha virt. eigenvalues --    0.30288   0.31086   0.31460   0.31954   0.32418

 Mulliken charges:
               1
     1  C   -0.298199
     2  C   -0.299632
     3  C   -0.475700
     4  H    0.149591
     5  H    0.149560
     6  H    0.151774
     7  H    0.152038
     8  H    0.155198
     9  H    0.155144
    10  H    0.160258
    11  C   -0.298254
    12  C   -0.300975
    13  C   -0.474923
    14  H    0.148916
    15  H    0.149909
    16  H    0.151550
    17  H    0.151649
    18  H    0.157536
    19  H    0.154436
    20  H    0.160242
    21  C   -0.297913
    22  C   -0.304624
    23  C   -0.475554
    24  H    0.148819
    25  H    0.148802
    26  H    0.161026
    27  H    0.151695
    28  H    0.154489
    29  H    0.154345
    30  H    0.159764
    31  C   -0.298496
    32  C   -0.299519
    33  C   -0.475655
    34  H    0.149851
    35  H    0.148945
    36  H    0.151807
    37  H    0.151865
    38  H    0.154911
    39  H    0.155216
    40  H    0.160105
 Sum of Mulliken charges =  -0.00000

 Dipole moment (field-independent basis, Debye):
    X=             -0.0274    Y=             -0.0094    Z=              0.0051  Tot=              0.0294
 Quadrupole moment (field-independent basis, Debye-Ang):
   XX=            -86.3867   YY=            -85.8449   ZZ=            -82.8999
   XY=              0.7112   XZ=              0.4558   YZ=             -0.0164

 Normal termination of Gaussian 16 at Thu May  6 13:12:14 2021.
