 Gaussian 16, Revision A.03,
 Gaussian 16:  EM64L-G16RevA.03 25-Dec-2016

 -------------
 #p 6-31g* mp2
 -------------

 ------------------------------------------------------
 Input file generated by CHIRIPA (05-May-2021 14:57:21)
 ------------------------------------------------------
 Symbolic Z-matrix:
 Charge =  0 Multiplicity = 1

                         Standard orientation:
 ---------------------------------------------------------------------
 Center     Atomic      Atomic             Coordinates (Angstroms)
 Number     Number       Type             X           Y           Z
 ---------------------------------------------------------------------
      1          6           0        1.797982    1.979620    1.781489
      2          6           0        2.039491    2.198785    0.421282
      3          6           0        2.337627    1.129225   -0.428250
      4          6           0        2.386251   -0.152188    0.118473
      5          6           0        2.150414   -0.402752    1.469357
      6          6           0        1.854116    0.681839    2.300270
      7          1           0        1.567097    2.816318    2.434194
      8          1           0        1.996573    3.205586    0.015629
      9          1           0        2.528817    1.270478   -1.485091
     10          1           0        2.200315   -1.417685    1.844643
     11          1           0        1.666999    0.508654    3.356224
     12          7           0        2.700902   -1.292440   -0.771034
     13          8           0        2.737731   -2.411824   -0.264812
     14          8           0        2.904737   -1.045195   -1.957608
     15          6           0       -1.710437    2.158638   -1.342715
     16          6           0       -2.810804    2.089381   -0.481950
     17          6           0       -3.165717    0.878855    0.120722
     18          6           0       -2.394715   -0.247883   -0.160892
     19          6           0       -1.292826   -0.210933   -1.013984
     20          6           0       -0.956289    1.010285   -1.605522
     21          1           0       -1.441870    3.103157   -1.806561
     22          1           0       -3.398300    2.979598   -0.276022
     23          1           0       -4.012672    0.796955    0.791077
     24          1           0       -0.726308   -1.115298   -1.199992
     25          1           0       -0.101215    1.061107   -2.273586
     26          7           0       -2.760718   -1.535072    0.471237
     27          8           0       -2.065316   -2.513418    0.206865
     28          8           0       -3.736063   -1.541252    1.219101
 ---------------------------------------------------------------------

 SCF Done:  E(RHF) =  -868.336069514     A.U. after   16 cycles
 E2 =    -0.2603816536D+01 EUMP2 =    -0.87093988605036D+03

 The electronic state is 1-A.
 Alpha  occ. eigenvalues --  -20.61251 -20.61183 -20.60780 -20.60752 -15.86260
 Alpha  occ. eigenvalues --  -15.85820 -11.31595 -11.31253 -11.28267 -11.28101
 Alpha  occ. eigenvalues --  -11.27904 -11.27830 -11.27759 -11.27611 -11.27242
 Alpha  occ. eigenvalues --  -11.27106 -11.26909 -11.26835  -1.60302  -1.59848
 Alpha  occ. eigenvalues --   -1.39851  -1.39396  -1.19794  -1.19424  -1.09180
 Alpha  occ. eigenvalues --   -1.08833  -1.05206  -1.04826  -0.96019  -0.95651
 Alpha  occ. eigenvalues --   -0.86602  -0.86243  -0.82847  -0.82475  -0.77916
 Alpha  occ. eigenvalues --   -0.77498  -0.72467  -0.72037  -0.71661  -0.71177
 Alpha  occ. eigenvalues --   -0.70903  -0.70555  -0.65440  -0.65230  -0.65085
 Alpha  occ. eigenvalues --   -0.64842  -0.62578  -0.62147  -0.55681  -0.55389
 Alpha  occ. eigenvalues --   -0.53933  -0.53310  -0.52926  -0.52734  -0.49250
 Alpha  occ. eigenvalues --   -0.49214  -0.48808  -0.48784  -0.45245  -0.44786
 Alpha  occ. eigenvalues --   -0.37876  -0.37722  -0.36803  -0.35930
 Alpha virt. eigenvalues --    0.04577   0.04996   0.10646   0.11344   0.16153
 Alpha virt. eigenvalues --    0.16534   0.20121   0.21764   0.25670   0.27045
 Alpha virt. eigenvalues --    0.28078   0.28643   0.29827   0.31263   0.31999

 Mulliken charges:
               1
     1  C   -0.169126
     2  C   -0.214158
     3  C   -0.176473
     4  C    0.157410
     5  C   -0.169115
     6  C   -0.217849
     7  H    0.226251
     8  H    0.219288
     9  H    0.269792
    10  H    0.281509
    11  H    0.227301
    12  N    0.485590
    13  O   -0.451412
    14  O   -0.466499
    15  C   -0.173681
    16  C   -0.219080
    17  C   -0.172593
    18  C    0.158434
    19  C   -0.173428
    20  C   -0.213567
    21  H    0.221280
    22  H    0.221560
    23  H    0.274669
    24  H    0.281066
    25  H    0.224227
    26  N    0.486979
    27  O   -0.455988
    28  O   -0.462385
 Sum of Mulliken charges =  -0.00000

 Dipole moment (field-independent basis, Debye):
    X=              0.2741    Y=              8.3404    Z=              1.1255  Tot=              8.4204
 Quadrupole moment (field-independent basis, Debye-Ang):
   XX=           -114.8556   YY=           -106.1982   ZZ=            -99.9839
   XY=             -3.2380   XZ=             10.6467   YZ=             -1.6471

 Normal termination of Gaussian 16 at Thu May  6 14:28:47 2021.
