 Gaussian 16, Revision A.03,
 Gaussian 16:  EM64L-G16RevA.03 25-Dec-2016

 -------------
 #p 6-31g* mp2
 -------------

 ------------------------------------------------------
 Input file generated by CHIRIPA (05-May-2021 14:57:27)
 ------------------------------------------------------
 Symbolic Z-matrix:
 Charge =  0 Multiplicity = 1

                         Standard orientation:
 ---------------------------------------------------------------------
 Center     Atomic      Atomic             Coordinates (Angstroms)
 Number     Number       Type             X           Y           Z
 ---------------------------------------------------------------------
      1          6           0       -4.159524   -2.005585    0.044080
      2          6           0       -4.997646   -0.916837    0.306185
      3          6           0       -4.505384    0.390045    0.240725
      4          6           0       -3.163833    0.572507   -0.091296
      5          6           0       -2.303754   -0.491683   -0.357855
      6          6           0       -2.817618   -1.789914   -0.286521
      7          1           0       -4.550315   -3.017442    0.097213
      8          1           0       -6.040211   -1.081332    0.563178
      9          1           0       -5.132139    1.251056    0.438859
     10          1           0       -1.268935   -0.296114   -0.611469
     11          1           0       -2.164406   -2.633548   -0.490576
     12          7           0       -2.631262    1.951466   -0.163705
     13          8           0       -1.445587    2.085543   -0.458383
     14          8           0       -3.409593    2.872105    0.075590
     15          6           0        1.182464   -1.783249    0.208581
     16          6           0        1.681531   -1.169498    1.362168
     17          6           0        2.827268   -0.370589    1.302356
     18          6           0        3.451644   -0.206217    0.066869
     19          6           0        2.978744   -0.804429   -1.100091
     20          6           0        1.831520   -1.599080   -1.016707
     21          1           0        0.291850   -2.402207    0.264201
     22          1           0        1.179527   -1.310757    2.315103
     23          1           0        3.235098    0.116279    2.179883
     24          1           0        3.500892   -0.644981   -2.035696
     25          1           0        1.446188   -2.074500   -1.914226
     26          7           0        4.665372    0.637299   -0.008928
     27          8           0        5.197105    0.766379   -1.109491
     28          8           0        5.061978    1.153393    1.033658
 ---------------------------------------------------------------------

 SCF Done:  E(RHF) =  -868.336108239     A.U. after   16 cycles
 E2 =    -0.2601545433D+01 EUMP2 =    -0.87093765367268D+03

 The electronic state is 1-A.
 Alpha  occ. eigenvalues --  -20.61191 -20.61184 -20.60757 -20.60750 -15.86253
 Alpha  occ. eigenvalues --  -15.85814 -11.31782 -11.31355 -11.28388 -11.28379
 Alpha  occ. eigenvalues --  -11.28209 -11.27945 -11.27904 -11.27868 -11.27569
 Alpha  occ. eigenvalues --  -11.27396 -11.27113 -11.27030  -1.60266  -1.59823
 Alpha  occ. eigenvalues --   -1.39813  -1.39373  -1.20005  -1.19561  -1.09364
 Alpha  occ. eigenvalues --   -1.08976  -1.05455  -1.04978  -0.96166  -0.95766
 Alpha  occ. eigenvalues --   -0.86833  -0.86397  -0.83032  -0.82568  -0.78030
 Alpha  occ. eigenvalues --   -0.77557  -0.72466  -0.72038  -0.71598  -0.71170
 Alpha  occ. eigenvalues --   -0.71136  -0.70723  -0.65660  -0.65488  -0.65238
 Alpha  occ. eigenvalues --   -0.65010  -0.62799  -0.62313  -0.55971  -0.55580
 Alpha  occ. eigenvalues --   -0.53761  -0.53652  -0.53165  -0.53093  -0.49241
 Alpha  occ. eigenvalues --   -0.49207  -0.48810  -0.48775  -0.45182  -0.44739
 Alpha  occ. eigenvalues --   -0.37993  -0.37649  -0.37020  -0.36537
 Alpha virt. eigenvalues --    0.04476   0.04974   0.10528   0.11073   0.15825
 Alpha virt. eigenvalues --    0.16342   0.18981   0.22002   0.25181   0.27075
 Alpha virt. eigenvalues --    0.27777   0.28927   0.30063   0.31693   0.32437

 Mulliken charges:
               1
     1  C   -0.169829
     2  C   -0.219049
     3  C   -0.169030
     4  C    0.158032
     5  C   -0.176197
     6  C   -0.225621
     7  H    0.226755
     8  H    0.225777
     9  H    0.278025
    10  H    0.281639
    11  H    0.214405
    12  N    0.487448
    13  O   -0.457536
    14  O   -0.458727
    15  C   -0.181024
    16  C   -0.215720
    17  C   -0.167240
    18  C    0.161727
    19  C   -0.167017
    20  C   -0.220252
    21  H    0.219963
    22  H    0.225268
    23  H    0.278196
    24  H    0.277720
    25  H    0.221485
    26  N    0.488197
    27  O   -0.459040
    28  O   -0.458355
 Sum of Mulliken charges =  -0.00000

 Dipole moment (field-independent basis, Debye):
    X=             -6.0177    Y=             -7.5504    Z=              0.5960  Tot=              9.6735
 Quadrupole moment (field-independent basis, Debye-Ang):
   XX=           -117.6383   YY=           -110.0384   ZZ=           -100.3852
   XY=              3.0509   XZ=             -1.6471   YZ=              1.7939

 Normal termination of Gaussian 16 at Wed May  5 21:17:00 2021.
