 Gaussian 16, Revision A.03,
 Gaussian 16:  EM64L-G16RevA.03 25-Dec-2016

 -------------
 #p 6-31g* mp2
 -------------

 ------------------------------------------------------
 Input file generated by CHIRIPA (05-May-2021 14:57:21)
 ------------------------------------------------------
 Symbolic Z-matrix:
 Charge =  0 Multiplicity = 1

                         Standard orientation:
 ---------------------------------------------------------------------
 Center     Atomic      Atomic             Coordinates (Angstroms)
 Number     Number       Type             X           Y           Z
 ---------------------------------------------------------------------
      1          6           0        2.090029    2.665129    0.119402
      2          6           0        3.333163    2.215205    0.576245
      3          6           0        3.706913    0.877626    0.415800
      4          6           0        2.808961    0.013386   -0.208749
      5          6           0        1.563365    0.431412   -0.674619
      6          6           0        1.210648    1.773369   -0.503474
      7          1           0        1.807860    3.705893    0.248195
      8          1           0        4.018118    2.905515    1.060345
      9          1           0        4.663102    0.502623    0.760027
     10          1           0        0.901816   -0.280349   -1.153332
     11          1           0        0.244563    2.119989   -0.859255
     12          7           0        3.193500   -1.404966   -0.384269
     13          8           0        2.384465   -2.146417   -0.937758
     14          8           0        4.296657   -1.748363    0.034970
     15          6           0       -1.805878   -2.534449    0.680945
     16          6           0       -1.108690   -1.388797    1.078348
     17          6           0       -1.619875   -0.116372    0.805998
     18          6           0       -2.836432   -0.026019    0.131375
     19          6           0       -3.554657   -1.148633   -0.277501
     20          6           0       -3.024488   -2.410929    0.005479
     21          1           0       -1.401403   -3.518965    0.896641
     22          1           0       -0.162077   -1.481698    1.603074
     23          1           0       -1.100960    0.787168    1.102242
     24          1           0       -4.495925   -1.024144   -0.798975
     25          1           0       -3.568116   -3.298917   -0.304345
     26          7           0       -3.387650    1.315677   -0.162576
     27          8           0       -4.461433    1.368363   -0.758270
     28          8           0       -2.735474    2.289211    0.208285
 ---------------------------------------------------------------------

 SCF Done:  E(RHF) =  -868.339431620     A.U. after   16 cycles
 E2 =    -0.2602369479D+01 EUMP2 =    -0.87094180109836D+03

 The electronic state is 1-A.
 Alpha  occ. eigenvalues --  -20.61408 -20.61349 -20.61257 -20.61236 -15.86402
 Alpha  occ. eigenvalues --  -15.86291 -11.31496 -11.31489 -11.28049 -11.28001
 Alpha  occ. eigenvalues --  -11.27984 -11.27976 -11.27665 -11.27602 -11.26985
 Alpha  occ. eigenvalues --  -11.26915 -11.26894 -11.26833  -1.60445  -1.60332
 Alpha  occ. eigenvalues --   -1.40010  -1.39886  -1.19683  -1.19602  -1.09054
 Alpha  occ. eigenvalues --   -1.09039  -1.05134  -1.04866  -0.95943  -0.95899
 Alpha  occ. eigenvalues --   -0.86460  -0.86303  -0.82796  -0.82722  -0.78002
 Alpha  occ. eigenvalues --   -0.77710  -0.72622  -0.72503  -0.71766  -0.71671
 Alpha  occ. eigenvalues --   -0.70707  -0.70647  -0.65300  -0.65275  -0.65038
 Alpha  occ. eigenvalues --   -0.64789  -0.62525  -0.62137  -0.55450  -0.55406
 Alpha  occ. eigenvalues --   -0.53578  -0.53273  -0.53016  -0.52882  -0.49407
 Alpha  occ. eigenvalues --   -0.49347  -0.49269  -0.49237  -0.45463  -0.45324
 Alpha  occ. eigenvalues --   -0.37646  -0.37536  -0.37129  -0.36023
 Alpha virt. eigenvalues --    0.04325   0.04945   0.10597   0.11294   0.16045
 Alpha virt. eigenvalues --    0.16357   0.21286   0.21555   0.27038   0.27298
 Alpha virt. eigenvalues --    0.28122   0.28551   0.30468   0.31394   0.31990

 Mulliken charges:
               1
     1  C   -0.171907
     2  C   -0.219177
     3  C   -0.171908
     4  C    0.153329
     5  C   -0.176440
     6  C   -0.232633
     7  H    0.232516
     8  H    0.224962
     9  H    0.275524
    10  H    0.278531
    11  H    0.241657
    12  N    0.487401
    13  O   -0.463815
    14  O   -0.459340
    15  C   -0.166576
    16  C   -0.219070
    17  C   -0.181885
    18  C    0.155451
    19  C   -0.171056
    20  C   -0.218915
    21  H    0.233480
    22  H    0.228582
    23  H    0.276139
    24  H    0.275753
    25  H    0.225963
    26  N    0.488569
    27  O   -0.455932
    28  O   -0.469205
 Sum of Mulliken charges =  -0.00000

 Dipole moment (field-independent basis, Debye):
    X=              0.5269    Y=              0.1793    Z=              1.6517  Tot=              1.7430
 Quadrupole moment (field-independent basis, Debye-Ang):
   XX=           -116.8197   YY=           -103.5181   ZZ=           -104.0982
   XY=             31.1697   XZ=              3.6417   YZ=             -0.4020

 Normal termination of Gaussian 16 at Thu May  6 16:09:34 2021.
