 Gaussian 16, Revision A.03,
 Gaussian 16:  EM64L-G16RevA.03 25-Dec-2016

 -------------
 #p 6-31g* mp2
 -------------

 ------------------------------------------------------
 Input file generated by CHIRIPA (05-May-2021 14:57:22)
 ------------------------------------------------------
 Symbolic Z-matrix:
 Charge =  0 Multiplicity = 1

                         Standard orientation:
 ---------------------------------------------------------------------
 Center     Atomic      Atomic             Coordinates (Angstroms)
 Number     Number       Type             X           Y           Z
 ---------------------------------------------------------------------
      1          6           0        2.201166    2.199155   -0.413431
      2          6           0        2.075843    1.358029   -1.523982
      3          6           0        1.996564   -0.028047   -1.359498
      4          6           0        2.045941   -0.541346   -0.064362
      5          6           0        2.170379    0.270541    1.061979
      6          6           0        2.247952    1.653688    0.873736
      7          1           0        2.262090    3.274754   -0.550434
      8          1           0        2.039253    1.778856   -2.524787
      9          1           0        1.899167   -0.702290   -2.201714
     10          1           0        2.204160   -0.178357    2.047255
     11          1           0        2.345240    2.304498    1.738042
     12          7           0        1.962915   -2.007173    0.122346
     13          8           0        2.008691   -2.434572    1.273811
     14          8           0        1.853636   -2.700933   -0.886312
     15          6           0       -1.158556    2.626523    0.469529
     16          6           0       -1.231586    1.724172    1.535807
     17          6           0       -1.729101    0.432403    1.339956
     18          6           0       -2.146737    0.074817    0.058939
     19          6           0       -2.086532    0.951126   -1.023535
     20          6           0       -1.585510    2.237806   -0.804492
     21          1           0       -0.770713    3.628025    0.630678
     22          1           0       -0.900725    2.023308    2.526308
     23          1           0       -1.796717   -0.286222    2.147684
     24          1           0       -2.423903    0.623984   -1.999535
     25          1           0       -1.529956    2.936483   -1.634439
     26          7           0       -2.675290   -1.290027   -0.160676
     27          8           0       -3.036854   -1.580619   -1.298861
     28          8           0       -2.717999   -2.043356    0.809535
 ---------------------------------------------------------------------

 SCF Done:  E(RHF) =  -868.332632809     A.U. after   16 cycles
 E2 =    -0.2607408048D+01 EUMP2 =    -0.87094004085622D+03

 The electronic state is 1-A.
 Alpha  occ. eigenvalues --  -20.60786 -20.60768 -20.60637 -20.60609 -15.85841
 Alpha  occ. eigenvalues --  -15.85691 -11.31436 -11.31278 -11.28049 -11.28011
 Alpha  occ. eigenvalues --  -11.27908 -11.27864 -11.27862 -11.27761 -11.27138
 Alpha  occ. eigenvalues --  -11.27102 -11.27006 -11.26978  -1.59849  -1.59697
 Alpha  occ. eigenvalues --   -1.39398  -1.39245  -1.19688  -1.19456  -1.09068
 Alpha  occ. eigenvalues --   -1.08825  -1.05140  -1.04905  -0.95836  -0.95639
 Alpha  occ. eigenvalues --   -0.86535  -0.86325  -0.82662  -0.82482  -0.77649
 Alpha  occ. eigenvalues --   -0.77475  -0.72056  -0.71907  -0.71210  -0.71004
 Alpha  occ. eigenvalues --   -0.70880  -0.70607  -0.65315  -0.65217  -0.65140
 Alpha  occ. eigenvalues --   -0.64949  -0.62483  -0.62272  -0.55688  -0.55481
 Alpha  occ. eigenvalues --   -0.54506  -0.53229  -0.53066  -0.52146  -0.48831
 Alpha  occ. eigenvalues --   -0.48797  -0.48683  -0.48645  -0.44750  -0.44597
 Alpha  occ. eigenvalues --   -0.38724  -0.37812  -0.36318  -0.35447
 Alpha virt. eigenvalues --    0.04352   0.05482   0.09966   0.12028   0.15865
 Alpha virt. eigenvalues --    0.17173   0.19682   0.22112   0.25690   0.26601
 Alpha virt. eigenvalues --    0.28106   0.29127   0.29639   0.31151   0.32096

 Mulliken charges:
               1
     1  C   -0.170523
     2  C   -0.215849
     3  C   -0.170183
     4  C    0.159706
     5  C   -0.168753
     6  C   -0.215467
     7  H    0.219085
     8  H    0.221048
     9  H    0.278390
    10  H    0.274039
    11  H    0.216739
    12  N    0.487501
    13  O   -0.459182
    14  O   -0.455624
    15  C   -0.165782
    16  C   -0.214593
    17  C   -0.171815
    18  C    0.158000
    19  C   -0.171036
    20  C   -0.215865
    21  H    0.217029
    22  H    0.217996
    23  H    0.278988
    24  H    0.275236
    25  H    0.218131
    26  N    0.488033
    27  O   -0.460052
    28  O   -0.455196
 Sum of Mulliken charges =  -0.00000

 Dipole moment (field-independent basis, Debye):
    X=              2.1160    Y=              9.6372    Z=              0.0833  Tot=              9.8671
 Quadrupole moment (field-independent basis, Debye-Ang):
   XX=           -113.3276   YY=           -111.1014   ZZ=            -95.1786
   XY=              0.0842   XZ=             -1.8743   YZ=             -0.1740

 Normal termination of Gaussian 16 at Fri May  7 03:21:30 2021.
