 Gaussian 16, Revision A.03,
 Gaussian 16:  EM64L-G16RevA.03 25-Dec-2016

 -------------
 #p 6-31g* mp2
 -------------

 ------------------------------------------------------
 Input file generated by CHIRIPA (05-May-2021 14:57:23)
 ------------------------------------------------------
 Symbolic Z-matrix:
 Charge =  0 Multiplicity = 1

                         Standard orientation:
 ---------------------------------------------------------------------
 Center     Atomic      Atomic             Coordinates (Angstroms)
 Number     Number       Type             X           Y           Z
 ---------------------------------------------------------------------
      1          6           0       -0.974201   -0.528919    1.230411
      2          6           0       -1.631287    0.698259    1.367501
      3          6           0       -2.899475    0.890619    0.811402
      4          6           0       -3.483834   -0.170480    0.121559
      5          6           0       -2.854645   -1.404904   -0.032092
      6          6           0       -1.586897   -1.574740    0.532283
      7          1           0        0.010787   -0.669600    1.665617
      8          1           0       -1.157872    1.512226    1.909148
      9          1           0       -3.430653    1.830285    0.902475
     10          1           0       -3.351990   -2.197671   -0.577606
     11          1           0       -1.078952   -2.528869    0.424238
     12          7           0       -4.826175    0.021240   -0.471539
     13          8           0       -5.319534   -0.929322   -1.074586
     14          8           0       -5.359525    1.118442   -0.322131
     15          6           0        4.506731   -1.986307   -0.048903
     16          6           0        3.125348   -1.981695   -0.268635
     17          6           0        2.425726   -0.775115   -0.364763
     18          6           0        3.142322    0.413642   -0.235783
     19          6           0        4.518686    0.441889   -0.016435
     20          6           0        5.197772   -0.776632    0.076275
     21          1           0        5.042237   -2.928245    0.024444
     22          1           0        2.586077   -2.919620   -0.366245
     23          1           0        1.356358   -0.742566   -0.534500
     24          1           0        5.028879    1.392912    0.076713
     25          1           0        6.270578   -0.777175    0.246962
     26          7           0        2.412534    1.697316   -0.335740
     27          8           0        3.066971    2.731060   -0.218600
     28          8           0        1.199907    1.645409   -0.529333
 ---------------------------------------------------------------------

 SCF Done:  E(RHF) =  -868.337172268     A.U. after   16 cycles
 E2 =    -0.2602055526D+01 EUMP2 =    -0.87093922779356D+03

 The electronic state is 1-A.
 Alpha  occ. eigenvalues --  -20.61576 -20.61567 -20.60455 -20.60435 -15.86610
 Alpha  occ. eigenvalues --  -15.85499 -11.32008 -11.30843 -11.28546 -11.28538
 Alpha  occ. eigenvalues --  -11.28288 -11.27623 -11.27540 -11.27494 -11.27309
 Alpha  occ. eigenvalues --  -11.27182 -11.26610 -11.26288  -1.60653  -1.59522
 Alpha  occ. eigenvalues --   -1.40202  -1.39076  -1.20179  -1.19019  -1.09562
 Alpha  occ. eigenvalues --   -1.08442  -1.05585  -1.04415  -0.96396  -0.95275
 Alpha  occ. eigenvalues --   -0.86976  -0.85835  -0.83218  -0.82105  -0.78280
 Alpha  occ. eigenvalues --   -0.77136  -0.72830  -0.71997  -0.71725  -0.71297
 Alpha  occ. eigenvalues --   -0.70840  -0.70155  -0.65822  -0.65575  -0.64689
 Alpha  occ. eigenvalues --   -0.64449  -0.62916  -0.61764  -0.56065  -0.55019
 Alpha  occ. eigenvalues --   -0.53885  -0.53674  -0.52678  -0.52525  -0.49596
 Alpha  occ. eigenvalues --   -0.49581  -0.48479  -0.48475  -0.45605  -0.44487
 Alpha  occ. eigenvalues --   -0.38149  -0.37246  -0.36918  -0.35962
 Alpha virt. eigenvalues --    0.04189   0.05397   0.10388   0.11534   0.15736
 Alpha virt. eigenvalues --    0.16849   0.20207   0.21938   0.25872   0.27543
 Alpha virt. eigenvalues --    0.28156   0.28836   0.30248   0.31441   0.32085

 Mulliken charges:
               1
     1  C   -0.171081
     2  C   -0.202367
     3  C   -0.170671
     4  C    0.158973
     5  C   -0.170413
     6  C   -0.225823
     7  H    0.222659
     8  H    0.229818
     9  H    0.277151
    10  H    0.273372
    11  H    0.213616
    12  N    0.488138
    13  O   -0.462639
    14  O   -0.459155
    15  C   -0.169903
    16  C   -0.221271
    17  C   -0.183379
    18  C    0.155731
    19  C   -0.169915
    20  C   -0.218198
    21  H    0.228190
    22  H    0.222023
    23  H    0.282899
    24  H    0.277741
    25  H    0.226441
    26  N    0.486976
    27  O   -0.457599
    28  O   -0.461314
 Sum of Mulliken charges =  -0.00000

 Dipole moment (field-independent basis, Debye):
    X=              7.4554    Y=             -4.8772    Z=              2.4705  Tot=              9.2451
 Quadrupole moment (field-independent basis, Debye-Ang):
   XX=           -117.8871   YY=           -103.3135   ZZ=           -105.3027
   XY=             -9.9470   XZ=             -5.7608   YZ=              3.2638

 Normal termination of Gaussian 16 at Thu May  6 01:49:18 2021.
