 Gaussian 16, Revision A.03,
 Gaussian 16:  EM64L-G16RevA.03 25-Dec-2016

 -------------
 #p 6-31g* mp2
 -------------

 ------------------------------------------------------
 Input file generated by CHIRIPA (05-May-2021 14:55:24)
 ------------------------------------------------------
 Symbolic Z-matrix:
 Charge =  0 Multiplicity = 1

                         Standard orientation:
 ---------------------------------------------------------------------
 Center     Atomic      Atomic             Coordinates (Angstroms)
 Number     Number       Type             X           Y           Z
 ---------------------------------------------------------------------
      1          6           0       -3.608335    1.770364    0.374521
      2          6           0       -4.224177    0.577381    0.767014
      3          6           0       -3.612424   -0.654051    0.514263
      4          6           0       -2.379344   -0.655593   -0.135969
      5          6           0       -1.740550    0.515951   -0.539350
      6          6           0       -2.370670    1.735903   -0.276261
      7          1           0       -4.090693    2.722511    0.574880
      8          1           0       -5.185360    0.601111    1.272591
      9          1           0       -4.066938   -1.592667    0.807238
     10          1           0       -0.782359    0.460337   -1.041539
     11          1           0       -1.890067    2.660812   -0.582217
     12          7           0       -1.721987   -1.953178   -0.409017
     13          8           0       -0.635672   -1.927555   -0.983387
     14          8           0       -2.305512   -2.971277   -0.043492
     15          6           0        3.094288    1.242143   -0.226184
     16          6           0        1.919351    2.049967    0.326020
     17          6           0        1.752286    3.401327   -0.369472
     18          1           0        4.017104    1.828365   -0.118023
     19          1           0        2.948106    1.085329   -1.303883
     20          1           0        2.067016    2.204024    1.402624
     21          1           0        0.999253    1.461675    0.216707
     22          1           0        1.580120    3.263980   -1.441897
     23          1           0        2.653950    4.010547   -0.249241
     24          1           0        0.906709    3.962170    0.040789
     25          6           0        3.274184   -0.111300    0.459059
     26          6           0        4.449121   -0.919124   -0.093145
     27          6           0        4.616186   -2.270484    0.602347
     28          1           0        3.420365    0.045514    1.536758
     29          1           0        2.351368   -0.697522    0.350898
     30          1           0        5.369219   -0.330832    0.016169
     31          1           0        4.301456   -1.073181   -1.169749
     32          1           0        3.714522   -2.879704    0.482116
     33          1           0        4.788352   -2.133137    1.674772
     34          1           0        5.461763   -2.831327    0.192086
 ---------------------------------------------------------------------

 SCF Done:  E(RHF) =  -669.535691051     A.U. after   15 cycles
 E2 =    -0.2092379512D+01 EUMP2 =    -0.67162807056281D+03

 The electronic state is 1-A.
 Alpha  occ. eigenvalues --  -20.60885 -20.60875 -15.85925 -11.31250 -11.27815
 Alpha  occ. eigenvalues --  -11.27798 -11.27545 -11.26826 -11.26807 -11.21896
 Alpha  occ. eigenvalues --  -11.21624 -11.21361 -11.21171 -11.20997 -11.20516
 Alpha  occ. eigenvalues --   -1.59948  -1.39504  -1.19422  -1.08821  -1.08328
 Alpha  occ. eigenvalues --   -1.04822  -1.03470  -0.95917  -0.95664  -0.86940
 Alpha  occ. eigenvalues --   -0.86216  -0.82497  -0.79582  -0.78064  -0.77539
 Alpha  occ. eigenvalues --   -0.72144  -0.71264  -0.70541  -0.65096  -0.65009
 Alpha  occ. eigenvalues --   -0.64770  -0.62213  -0.60825  -0.59354  -0.57503
 Alpha  occ. eigenvalues --   -0.55330  -0.55181  -0.53153  -0.52937  -0.52654
 Alpha  occ. eigenvalues --   -0.52317  -0.49849  -0.48901  -0.48897  -0.47866
 Alpha  occ. eigenvalues --   -0.46609  -0.45616  -0.45487  -0.44876  -0.43692
 Alpha  occ. eigenvalues --   -0.37396  -0.36389
 Alpha virt. eigenvalues --    0.04924   0.11181   0.16384   0.19717   0.23108
 Alpha virt. eigenvalues --    0.24077   0.25960   0.26764   0.27460   0.28433
 Alpha virt. eigenvalues --    0.29974   0.30253   0.31468   0.31860   0.32370

 Mulliken charges:
               1
     1  C   -0.170839
     2  C   -0.218200
     3  C   -0.171043
     4  C    0.157865
     5  C   -0.171537
     6  C   -0.219917
     7  H    0.226006
     8  H    0.223722
     9  H    0.275726
    10  H    0.277216
    11  H    0.226905
    12  N    0.488517
    13  O   -0.462060
    14  O   -0.459319
    15  C   -0.298080
    16  C   -0.304758
    17  C   -0.477835
    18  H    0.149311
    19  H    0.150110
    20  H    0.154578
    21  H    0.148789
    22  H    0.153034
    23  H    0.160075
    24  H    0.153521
    25  C   -0.303346
    26  C   -0.299108
    27  C   -0.477528
    28  H    0.147155
    29  H    0.162849
    30  H    0.148625
    31  H    0.154221
    32  H    0.163739
    33  H    0.152667
    34  H    0.158937
 Sum of Mulliken charges =  -0.00000

 Dipole moment (field-independent basis, Debye):
    X=             -2.3472    Y=              4.4391    Z=              0.9733  Tot=              5.1149
 Quadrupole moment (field-independent basis, Debye-Ang):
   XX=            -80.6253   YY=           -101.0179   ZZ=            -94.5701
   XY=             -7.0427   XZ=             -3.7320   YZ=             -1.6713

 Normal termination of Gaussian 16 at Wed May  5 20:47:08 2021.
