 Gaussian 16, Revision A.03,
 Gaussian 16:  EM64L-G16RevA.03 25-Dec-2016

 -------------
 #p 6-31g* mp2
 -------------

 ------------------------------------------------------
 Input file generated by CHIRIPA (05-May-2021 14:57:21)
 ------------------------------------------------------
 Symbolic Z-matrix:
 Charge =  0 Multiplicity = 1

                         Standard orientation:
 ---------------------------------------------------------------------
 Center     Atomic      Atomic             Coordinates (Angstroms)
 Number     Number       Type             X           Y           Z
 ---------------------------------------------------------------------
      1          6           0        2.906112    2.509733    0.319069
      2          6           0        2.222399    1.604298    1.137143
      3          6           0        2.275632    0.231782    0.876536
      4          6           0        3.025475   -0.202526   -0.215435
      5          6           0        3.717599    0.674696   -1.048944
      6          6           0        3.650218    2.042865   -0.769444
      7          1           0        2.859264    3.574248    0.528853
      8          1           0        1.643733    1.964021    1.983187
      9          1           0        1.755964   -0.491134    1.493590
     10          1           0        4.286186    0.286047   -1.885053
     11          1           0        4.182209    2.743737   -1.406477
     12          7           0        3.089320   -1.653246   -0.501329
     13          8           0        3.756903   -2.010494   -1.469494
     14          8           0        2.470569   -2.405603    0.248167
     15          6           0       -1.334399   -0.593922    1.965820
     16          6           0       -2.105795   -1.608664    1.389828
     17          6           0       -3.039989   -1.311431    0.393091
     18          6           0       -3.177423    0.017312   -0.005459
     19          6           0       -2.423651    1.050490    0.549214
     20          6           0       -1.495506    0.730082    1.544419
     21          1           0       -0.611044   -0.833821    2.739514
     22          1           0       -1.982812   -2.637791    1.715124
     23          1           0       -3.650228   -2.077453   -0.069766
     24          1           0       -2.568739    2.067013    0.204182
     25          1           0       -0.897797    1.520193    1.989967
     26          7           0       -4.163211    0.344245   -1.059848
     27          8           0       -4.265300    1.522773   -1.393445
     28          8           0       -4.815115   -0.584222   -1.532717
 ---------------------------------------------------------------------

 SCF Done:  E(RHF) =  -868.336267580     A.U. after   16 cycles
 E2 =    -0.2601616467D+01 EUMP2 =    -0.87093788404709D+03

 The electronic state is 1-A.
 Alpha  occ. eigenvalues --  -20.61308 -20.61281 -20.60911 -20.60895 -15.86356
 Alpha  occ. eigenvalues --  -15.85960 -11.31760 -11.31398 -11.28442 -11.28307
 Alpha  occ. eigenvalues --  -11.28115 -11.28012 -11.27894 -11.27791 -11.27489
 Alpha  occ. eigenvalues --  -11.27305 -11.27155 -11.26930  -1.60366  -1.59978
 Alpha  occ. eigenvalues --   -1.39922  -1.39530  -1.19957  -1.19579  -1.09338
 Alpha  occ. eigenvalues --   -1.08988  -1.05397  -1.04983  -0.96168  -0.95803
 Alpha  occ. eigenvalues --   -0.86792  -0.86406  -0.83017  -0.82630  -0.78078
 Alpha  occ. eigenvalues --   -0.77637  -0.72581  -0.72181  -0.71684  -0.71299
 Alpha  occ. eigenvalues --   -0.71133  -0.70688  -0.65635  -0.65511  -0.65247
 Alpha  occ. eigenvalues --   -0.64977  -0.62789  -0.62280  -0.55890  -0.55566
 Alpha  occ. eigenvalues --   -0.53756  -0.53581  -0.53209  -0.53014  -0.49340
 Alpha  occ. eigenvalues --   -0.49323  -0.48944  -0.48928  -0.45319  -0.44919
 Alpha  occ. eigenvalues --   -0.37926  -0.37740  -0.36968  -0.36384
 Alpha virt. eigenvalues --    0.04484   0.04863   0.10624   0.11033   0.15936
 Alpha virt. eigenvalues --    0.16232   0.18447   0.22354   0.24976   0.25686
 Alpha virt. eigenvalues --    0.28055   0.29182   0.30478   0.31469   0.32975

 Mulliken charges:
               1
     1  C   -0.170245
     2  C   -0.220529
     3  C   -0.164956
     4  C    0.158035
     5  C   -0.168805
     6  C   -0.218242
     7  H    0.227082
     8  H    0.214552
     9  H    0.269405
    10  H    0.278092
    11  H    0.226375
    12  N    0.488570
    13  O   -0.457138
    14  O   -0.463629
    15  C   -0.174859
    16  C   -0.214067
    17  C   -0.170037
    18  C    0.159572
    19  C   -0.171057
    20  C   -0.215133
    21  H    0.221821
    22  H    0.229961
    23  H    0.278212
    24  H    0.274537
    25  H    0.213816
    26  N    0.488029
    27  O   -0.461210
    28  O   -0.458151
 Sum of Mulliken charges =  -0.00000

 Dipole moment (field-independent basis, Debye):
    X=              3.2498    Y=              3.8068    Z=              4.4760  Tot=              6.7148
 Quadrupole moment (field-independent basis, Debye-Ang):
   XX=           -126.5247   YY=           -102.4557   ZZ=           -103.4927
   XY=             21.9413   XZ=            -11.7496   YZ=             -2.0237

 Normal termination of Gaussian 16 at Thu May  6 00:06:40 2021.
