 Gaussian 16, Revision A.03,
 Gaussian 16:  EM64L-G16RevA.03 25-Dec-2016

 -------------
 #p 6-31g* mp2
 -------------

 ------------------------------------------------------
 Input file generated by CHIRIPA (05-May-2021 14:53:18)
 ------------------------------------------------------
 Symbolic Z-matrix:
 Charge =  0 Multiplicity = 1

                         Standard orientation:
 ---------------------------------------------------------------------
 Center     Atomic      Atomic             Coordinates (Angstroms)
 Number     Number       Type             X           Y           Z
 ---------------------------------------------------------------------
      1          6           0        4.263668    0.630395   -0.309510
      2          6           0        4.051654    1.903067    0.511063
      3          6           0        4.964446    3.048433    0.072039
      4          1           0        5.313414    0.317683   -0.224715
      5          1           0        4.088782    0.853559   -1.371116
      6          1           0        4.225537    1.677243    1.570961
      7          1           0        3.002246    2.212678    0.424459
      8          1           0        4.786308    3.302198   -0.977947
      9          1           0        6.016550    2.763720    0.175069
     10          1           0        4.796207    3.948335    0.671816
     11          6           0        3.358331   -0.523613    0.117524
     12          6           0        3.570345   -1.796285   -0.703049
     13          6           0        2.657554   -2.941651   -0.264026
     14          1           0        3.533217   -0.746776    1.179130
     15          1           0        2.308585   -0.210901    0.032728
     16          1           0        4.619753   -2.105896   -0.616445
     17          1           0        3.396462   -1.570461   -1.762947
     18          1           0        1.605449   -2.656938   -0.367056
     19          1           0        2.835691   -3.195415    0.785961
     20          1           0        2.825793   -3.841553   -0.863802
     21          6           0       -1.012645   -1.442071    0.813151
     22          6           0       -1.878865   -0.894369    1.765100
     23          6           0       -2.970657   -0.116873    1.367560
     24          6           0       -3.167283    0.093670    0.003632
     25          6           0       -2.322020   -0.438404   -0.968848
     26          6           0       -1.236592   -1.212745   -0.548384
     27          1           0       -0.166986   -2.044823    1.130873
     28          1           0       -1.707395   -1.070807    2.823170
     29          1           0       -3.656939    0.319153    2.083324
     30          1           0       -2.518775   -0.245037   -2.016376
     31          1           0       -0.565518   -1.636838   -1.289902
     32          7           0       -4.319747    0.915100   -0.429359
     33          8           0       -4.471171    1.085827   -1.637068
     34          8           0       -5.049800    1.372654    0.447169
 ---------------------------------------------------------------------

 SCF Done:  E(RHF) =  -669.535294316     A.U. after   15 cycles
 E2 =    -0.2091957392D+01 EUMP2 =    -0.67162725170745D+03

 The electronic state is 1-A.
 Alpha  occ. eigenvalues --  -20.60753 -20.60748 -15.85807 -11.31170 -11.27750
 Alpha  occ. eigenvalues --  -11.27739 -11.27436 -11.26755 -11.26734 -11.22572
 Alpha  occ. eigenvalues --  -11.22390 -11.22208 -11.22080 -11.21980 -11.21436
 Alpha  occ. eigenvalues --   -1.59829  -1.39383  -1.19344  -1.09184  -1.08734
 Alpha  occ. eigenvalues --   -1.04751  -1.04301  -0.96775  -0.95570  -0.87795
 Alpha  occ. eigenvalues --   -0.86149  -0.82406  -0.80383  -0.78950  -0.77457
 Alpha  occ. eigenvalues --   -0.72026  -0.71153  -0.70461  -0.65834  -0.64996
 Alpha  occ. eigenvalues --   -0.64768  -0.62143  -0.61651  -0.60155  -0.58363
 Alpha  occ. eigenvalues --   -0.56095  -0.55236  -0.53453  -0.53186  -0.53071
 Alpha  occ. eigenvalues --   -0.52834  -0.50723  -0.48784  -0.48783  -0.48674
 Alpha  occ. eigenvalues --   -0.47399  -0.46495  -0.46387  -0.44789  -0.44525
 Alpha  occ. eigenvalues --   -0.37305  -0.36355
 Alpha virt. eigenvalues --    0.05074   0.11232   0.16553   0.19575   0.22531
 Alpha virt. eigenvalues --    0.23905   0.25463   0.26114   0.27058   0.27262
 Alpha virt. eigenvalues --    0.29306   0.30111   0.30790   0.31326   0.32196

 Mulliken charges:
               1
     1  C   -0.298567
     2  C   -0.300552
     3  C   -0.476176
     4  H    0.151149
     5  H    0.150933
     6  H    0.151676
     7  H    0.153822
     8  H    0.156390
     9  H    0.155567
    10  H    0.162179
    11  C   -0.301682
    12  C   -0.299718
    13  C   -0.481862
    14  H    0.148950
    15  H    0.149306
    16  H    0.156613
    17  H    0.153402
    18  H    0.145822
    19  H    0.156687
    20  H    0.166402
    21  C   -0.173361
    22  C   -0.219072
    23  C   -0.170748
    24  C    0.158187
    25  C   -0.170816
    26  C   -0.222785
    27  H    0.231456
    28  H    0.223655
    29  H    0.275551
    30  H    0.275504
    31  H    0.224989
    32  N    0.488051
    33  O   -0.460557
    34  O   -0.460396
 Sum of Mulliken charges =  -0.00000

 Dipole moment (field-independent basis, Debye):
    X=              4.2536    Y=             -2.8544    Z=              1.5235  Tot=              5.3444
 Quadrupole moment (field-independent basis, Debye-Ang):
   XX=           -119.9907   YY=            -96.5429   ZZ=            -89.7676
   XY=              8.5941   XZ=             -5.8403   YZ=              0.8349

 Normal termination of Gaussian 16 at Thu May  6 02:51:27 2021.
