 Gaussian 16, Revision A.03,
 Gaussian 16:  EM64L-G16RevA.03 25-Dec-2016

 -------------
 #p 6-31g* mp2
 -------------

 ------------------------------------------------------
 Input file generated by CHIRIPA (05-May-2021 14:57:23)
 ------------------------------------------------------
 Symbolic Z-matrix:
 Charge =  0 Multiplicity = 1

                         Standard orientation:
 ---------------------------------------------------------------------
 Center     Atomic      Atomic             Coordinates (Angstroms)
 Number     Number       Type             X           Y           Z
 ---------------------------------------------------------------------
      1          6           0        4.530461    1.815236   -1.193290
      2          6           0        3.149833    1.818473   -0.968844
      3          6           0        2.533966    0.745971   -0.316927
      4          6           0        3.332637   -0.318169    0.099030
      5          6           0        4.710523   -0.350688   -0.109922
      6          6           0        5.305034    0.732574   -0.763870
      7          1           0        5.000587    2.652560   -1.700504
      8          1           0        2.545797    2.657937   -1.301238
      9          1           0        1.467187    0.722629   -0.130225
     10          1           0        5.286397   -1.201679    0.233008
     11          1           0        6.377464    0.727351   -0.936821
     12          7           0        2.691950   -1.459274    0.790260
     13          8           0        3.417750   -2.384817    1.146941
     14          8           0        1.476111   -1.406522    0.962277
     15          6           0       -2.813362    2.227961    1.269662
     16          6           0       -4.029900    2.159285    0.582757
     17          6           0       -4.386468    1.001980   -0.115849
     18          6           0       -3.498639   -0.072712   -0.106413
     19          6           0       -2.279442   -0.034899    0.568432
     20          6           0       -1.943549    1.132580    1.260324
     21          1           0       -2.544402    3.130936    1.809749
     22          1           0       -4.707371    3.008432    0.588277
     23          1           0       -5.321979    0.921804   -0.656041
     24          1           0       -1.624777   -0.897609    0.544667
     25          1           0       -0.998109    1.183084    1.792901
     26          7           0       -3.865178   -1.303286   -0.842443
     27          8           0       -3.065548   -2.236381   -0.818711
     28          8           0       -4.945159   -1.311414   -1.429136
 ---------------------------------------------------------------------

 SCF Done:  E(RHF) =  -868.338870999     A.U. after   16 cycles
 E2 =    -0.2599411396D+01 EUMP2 =    -0.87093828239470D+03

 The electronic state is 1-A.
 Alpha  occ. eigenvalues --  -20.61341 -20.61290 -20.60343 -20.60310 -15.86368
 Alpha  occ. eigenvalues --  -15.85383 -11.31638 -11.30798 -11.28236 -11.28160
 Alpha  occ. eigenvalues --  -11.27902 -11.27466 -11.27258 -11.27239 -11.27202
 Alpha  occ. eigenvalues --  -11.27159 -11.26494 -11.26403  -1.60370  -1.59409
 Alpha  occ. eigenvalues --   -1.39935  -1.38956  -1.19796  -1.19013  -1.09202
 Alpha  occ. eigenvalues --   -1.08416  -1.05190  -1.04407  -0.96057  -0.95221
 Alpha  occ. eigenvalues --   -0.86593  -0.85810  -0.82902  -0.82037  -0.77970
 Alpha  occ. eigenvalues --   -0.77049  -0.72596  -0.71680  -0.71597  -0.70908
 Alpha  occ. eigenvalues --   -0.70739  -0.70113  -0.65456  -0.65194  -0.64658
 Alpha  occ. eigenvalues --   -0.64406  -0.62553  -0.61698  -0.55684  -0.54954
 Alpha  occ. eigenvalues --   -0.53516  -0.53289  -0.52767  -0.52474  -0.49351
 Alpha  occ. eigenvalues --   -0.49308  -0.48376  -0.48339  -0.45356  -0.44349
 Alpha  occ. eigenvalues --   -0.37761  -0.37049  -0.36788  -0.36032
 Alpha virt. eigenvalues --    0.04571   0.05428   0.10858   0.11604   0.16090
 Alpha virt. eigenvalues --    0.16774   0.20329   0.21918   0.25651   0.27254
 Alpha virt. eigenvalues --    0.28411   0.29014   0.30750   0.31212   0.33005

 Mulliken charges:
               1
     1  C   -0.170268
     2  C   -0.218610
     3  C   -0.172336
     4  C    0.159432
     5  C   -0.170122
     6  C   -0.218251
     7  H    0.227020
     8  H    0.223839
     9  H    0.270637
    10  H    0.277152
    11  H    0.225248
    12  N    0.492808
    13  O   -0.454586
    14  O   -0.471657
    15  C   -0.171659
    16  C   -0.219731
    17  C   -0.170826
    18  C    0.157609
    19  C   -0.178000
    20  C   -0.227974
    21  H    0.222725
    22  H    0.221380
    23  H    0.274521
    24  H    0.296311
    25  H    0.226727
    26  N    0.487292
    27  O   -0.455150
    28  O   -0.463530
 Sum of Mulliken charges =  -0.00000

 Dipole moment (field-independent basis, Debye):
    X=              3.8612    Y=              8.1668    Z=              0.1418  Tot=              9.0347
 Quadrupole moment (field-independent basis, Debye-Ang):
   XX=            -90.9719   YY=           -107.1589   ZZ=           -107.0035
   XY=             -6.6629   XZ=            -15.6522   YZ=             -0.6079

 Normal termination of Gaussian 16 at Fri May  7 00:16:17 2021.
