 Gaussian 16, Revision A.03,
 Gaussian 16:  EM64L-G16RevA.03 25-Dec-2016

 -------------
 #p 6-31g* mp2
 -------------

 ------------------------------------------------------
 Input file generated by CHIRIPA (05-May-2021 14:51:12)
 ------------------------------------------------------
 Symbolic Z-matrix:
 Charge =  0 Multiplicity = 1

                         Standard orientation:
 ---------------------------------------------------------------------
 Center     Atomic      Atomic             Coordinates (Angstroms)
 Number     Number       Type             X           Y           Z
 ---------------------------------------------------------------------
      1          6           0       -3.767756    0.709164   -0.399994
      2          6           0       -2.708790    1.441692    0.424615
      3          6           0       -1.652884    2.126552   -0.443614
      4          1           0       -3.274975   -0.037382   -1.037789
      5          1           0       -4.255639    1.424790   -1.076191
      6          1           0       -2.224005    0.725170    1.100038
      7          1           0       -3.204167    2.186448    1.060662
      8          1           0       -2.118132    2.862515   -1.107318
      9          1           0       -1.132401    1.392935   -1.067718
     10          1           0       -0.905801    2.644095    0.166203
     11          6           0       -4.830292    0.019469    0.453859
     12          6           0       -5.889258   -0.713060   -0.370749
     13          6           0       -6.945164   -1.397920    0.497480
     14          1           0       -4.342409   -0.696158    1.130057
     15          1           0       -5.323072    0.766014    1.091655
     16          1           0       -5.393881   -1.457816   -1.006796
     17          1           0       -6.374042    0.003462   -1.046173
     18          1           0       -7.465646   -0.664303    1.121583
     19          1           0       -6.479916   -2.133883    1.161183
     20          1           0       -7.692247   -1.915463   -0.112337
     21          6           0        5.027165   -0.521431   -0.195924
     22          6           0        6.027658    0.350221    0.563826
     23          6           0        7.480154    0.024019    0.215056
     24          1           0        5.230134   -1.578433    0.024292
     25          1           0        5.184049   -0.391390   -1.275680
     26          1           0        5.868016    0.219629    1.641823
     27          1           0        5.822161    1.405279    0.341926
     28          1           0        7.662246    0.172427   -0.854251
     29          1           0        7.708361   -1.019960    0.453032
     30          1           0        8.178432    0.658803    0.769417
     31          6           0        3.570884   -0.207201    0.142059
     32          6           0        2.570390   -1.078853   -0.617692
     33          6           0        1.117894   -0.752651   -0.268921
     34          1           0        3.413999   -0.337242    1.221814
     35          1           0        3.367915    0.849801   -0.078158
     36          1           0        2.775886   -2.133911   -0.395791
     37          1           0        2.730032   -0.948262   -1.695689
     38          1           0        0.889686    0.291327   -0.506897
     39          1           0        0.935801   -0.901060    0.800386
     40          1           0        0.419615   -1.387435   -0.823283
 ---------------------------------------------------------------------

 SCF Done:  E(RHF) =  -470.733053298     A.U. after   11 cycles
 E2 =    -0.1582503563D+01 EUMP2 =    -0.47231555686159D+03

 The electronic state is 1-A.
 Alpha  occ. eigenvalues --  -11.21603 -11.21602 -11.21575 -11.21537 -11.21406
 Alpha  occ. eigenvalues --  -11.21363 -11.21347 -11.21302 -11.21071 -11.21050
 Alpha  occ. eigenvalues --  -11.21050 -11.20985  -1.08433  -1.08384  -1.03546
 Alpha  occ. eigenvalues --   -1.03471  -0.96022  -0.95902  -0.87056  -0.86906
 Alpha  occ. eigenvalues --   -0.79632  -0.79517  -0.78245  -0.78197  -0.65082
 Alpha  occ. eigenvalues --   -0.65000  -0.61045  -0.60792  -0.59365  -0.59294
 Alpha  occ. eigenvalues --   -0.57597  -0.57547  -0.55497  -0.55041  -0.52685
 Alpha  occ. eigenvalues --   -0.52656  -0.52420  -0.52314  -0.50155  -0.49643
 Alpha  occ. eigenvalues --   -0.47941  -0.47821  -0.46747  -0.46432  -0.45802
 Alpha  occ. eigenvalues --   -0.45731  -0.45702  -0.45624  -0.43790  -0.43739
 Alpha virt. eigenvalues --    0.21931   0.22967   0.23655   0.24803   0.26425
 Alpha virt. eigenvalues --    0.26491   0.27248   0.27483   0.27773   0.29071
 Alpha virt. eigenvalues --    0.31110   0.31140   0.31446   0.31861   0.32140

 Mulliken charges:
               1
     1  C   -0.298503
     2  C   -0.299818
     3  C   -0.479326
     4  H    0.149943
     5  H    0.149230
     6  H    0.153325
     7  H    0.151506
     8  H    0.154404
     9  H    0.160144
    10  H    0.159333
    11  C   -0.298323
    12  C   -0.299610
    13  C   -0.475679
    14  H    0.149608
    15  H    0.149512
    16  H    0.151865
    17  H    0.151842
    18  H    0.155130
    19  H    0.155149
    20  H    0.160142
    21  C   -0.298293
    22  C   -0.299670
    23  C   -0.475709
    24  H    0.149627
    25  H    0.149564
    26  H    0.151903
    27  H    0.152002
    28  H    0.155204
    29  H    0.155159
    30  H    0.160263
    31  C   -0.298478
    32  C   -0.299545
    33  C   -0.480946
    34  H    0.149454
    35  H    0.149960
    36  H    0.151698
    37  H    0.151865
    38  H    0.162422
    39  H    0.154831
    40  H    0.158816
 Sum of Mulliken charges =  -0.00000

 Dipole moment (field-independent basis, Debye):
    X=              0.0154    Y=              0.0045    Z=             -0.0010  Tot=              0.0161
 Quadrupole moment (field-independent basis, Debye-Ang):
   XX=            -86.4834   YY=            -83.9784   ZZ=            -84.4857
   XY=             -0.7826   XZ=              0.5926   YZ=             -0.3085

 Normal termination of Gaussian 16 at Wed May  5 16:48:48 2021.
