 Gaussian 16, Revision A.03,
 Gaussian 16:  EM64L-G16RevA.03 25-Dec-2016

 -------------
 #p 6-31g* mp2
 -------------

 ------------------------------------------------------
 Input file generated by CHIRIPA (05-May-2021 14:51:10)
 ------------------------------------------------------
 Symbolic Z-matrix:
 Charge =  0 Multiplicity = 1

                         Standard orientation:
 ---------------------------------------------------------------------
 Center     Atomic      Atomic             Coordinates (Angstroms)
 Number     Number       Type             X           Y           Z
 ---------------------------------------------------------------------
      1          6           0        3.157439   -0.094908    0.068707
      2          6           0        2.355953    0.299963    1.309546
      3          6           0        0.864685    0.472918    1.019721
      4          1           0        3.019654    0.670012   -0.707733
      5          1           0        2.751245   -1.030920   -0.339072
      6          1           0        2.764420    1.234221    1.715664
      7          1           0        2.495816   -0.465890    2.083190
      8          1           0        0.436289   -0.458572    0.635788
      9          1           0        0.706420    1.251198    0.266174
     10          1           0        0.310741    0.755158    1.920469
     11          6           0        4.649954   -0.271539    0.342440
     12          6           0        5.451439   -0.666409   -0.898399
     13          6           0        6.942708   -0.839364   -0.608574
     14          1           0        5.056147    0.664473    0.750219
     15          1           0        4.787738   -1.036458    1.118880
     16          1           0        5.311577    0.099443   -1.672043
     17          1           0        5.042972   -1.600668   -1.304518
     18          1           0        7.100973   -1.617645    0.144972
     19          1           0        7.371103    0.092126   -0.224642
     20          1           0        7.496651   -1.121605   -1.509323
     21          6           0       -4.255797   -0.349586    0.213439
     22          6           0       -5.104360   -1.312077   -0.618147
     23          6           0       -5.802442   -2.372216    0.234250
     24          1           0       -3.505525   -0.923379    0.774508
     25          1           0       -4.895794    0.141541    0.959491
     26          1           0       -4.463223   -1.800216   -1.363318
     27          1           0       -5.852575   -0.735907   -1.177449
     28          1           0       -6.464926   -1.901670    0.967941
     29          1           0       -5.067680   -2.972025    0.781016
     30          1           0       -6.403548   -3.049570   -0.380342
     31          6           0       -3.551596    0.716032   -0.624586
     32          6           0       -2.703032    1.678523    0.207001
     33          6           0       -2.004951    2.738662   -0.645396
     34          1           0       -2.911599    0.224906   -1.370638
     35          1           0       -4.301868    1.289825   -1.185654
     36          1           0       -1.954817    1.102354    0.766302
     37          1           0       -3.344169    2.166662    0.952171
     38          1           0       -2.739713    3.338473   -1.192162
     39          1           0       -1.342466    2.268117   -1.379089
     40          1           0       -1.403844    3.416017   -0.030805
 ---------------------------------------------------------------------

 SCF Done:  E(RHF) =  -470.732902878     A.U. after   11 cycles
 E2 =    -0.1583073068D+01 EUMP2 =    -0.47231597594603D+03

 The electronic state is 1-A.
 Alpha  occ. eigenvalues --  -11.21628 -11.21620 -11.21559 -11.21432 -11.21420
 Alpha  occ. eigenvalues --  -11.21372 -11.21331 -11.21263 -11.21112 -11.21085
 Alpha  occ. eigenvalues --  -11.21041 -11.20997  -1.08460  -1.08348  -1.03582
 Alpha  occ. eigenvalues --   -1.03435  -0.96045  -0.95889  -0.87044  -0.86931
 Alpha  occ. eigenvalues --   -0.79680  -0.79477  -0.78280  -0.78149  -0.65093
 Alpha  occ. eigenvalues --   -0.64981  -0.61023  -0.60817  -0.59428  -0.59240
 Alpha  occ. eigenvalues --   -0.57623  -0.57524  -0.55417  -0.55103  -0.52741
 Alpha  occ. eigenvalues --   -0.52602  -0.52421  -0.52336  -0.50020  -0.49779
 Alpha  occ. eigenvalues --   -0.47956  -0.47815  -0.46658  -0.46539  -0.45853
 Alpha  occ. eigenvalues --   -0.45735  -0.45682  -0.45605  -0.43780  -0.43688
 Alpha virt. eigenvalues --    0.21661   0.22976   0.23661   0.24820   0.26060
 Alpha virt. eigenvalues --    0.26536   0.27183   0.27572   0.27718   0.29199
 Alpha virt. eigenvalues --    0.30560   0.31328   0.31578   0.31915   0.32313

 Mulliken charges:
               1
     1  C   -0.298580
     2  C   -0.300465
     3  C   -0.480173
     4  H    0.149739
     5  H    0.149309
     6  H    0.152173
     7  H    0.151896
     8  H    0.154232
     9  H    0.161142
    10  H    0.160545
    11  C   -0.298331
    12  C   -0.299643
    13  C   -0.475721
    14  H    0.149645
    15  H    0.149695
    16  H    0.152009
    17  H    0.151881
    18  H    0.155193
    19  H    0.155242
    20  H    0.160318
    21  C   -0.298299
    22  C   -0.299559
    23  C   -0.475643
    24  H    0.149477
    25  H    0.149324
    26  H    0.151729
    27  H    0.151875
    28  H    0.155120
    29  H    0.155000
    30  H    0.160074
    31  C   -0.297687
    32  C   -0.308443
    33  C   -0.475978
    34  H    0.149163
    35  H    0.148992
    36  H    0.165070
    37  H    0.150671
    38  H    0.154749
    39  H    0.154642
    40  H    0.159614
 Sum of Mulliken charges =  -0.00000

 Dipole moment (field-independent basis, Debye):
    X=              0.0448    Y=              0.0005    Z=              0.0166  Tot=              0.0478
 Quadrupole moment (field-independent basis, Debye-Ang):
   XX=            -85.8391   YY=            -84.2061   ZZ=            -84.9962
   XY=             -0.5856   XZ=              0.0542   YZ=              0.2841

 Normal termination of Gaussian 16 at Wed May  5 16:40:21 2021.
