 Gaussian 16, Revision A.03,
 Gaussian 16:  EM64L-G16RevA.03 25-Dec-2016

 -------------
 #p 6-31g* mp2
 -------------

 ------------------------------------------------------
 Input file generated by CHIRIPA (05-May-2021 14:51:14)
 ------------------------------------------------------
 Symbolic Z-matrix:
 Charge =  0 Multiplicity = 1

                         Standard orientation:
 ---------------------------------------------------------------------
 Center     Atomic      Atomic             Coordinates (Angstroms)
 Number     Number       Type             X           Y           Z
 ---------------------------------------------------------------------
      1          6           0        3.759920    0.057482   -0.084105
      2          6           0        3.501936   -1.382795   -0.527988
      3          6           0        4.728598   -2.280668   -0.363919
      4          1           0        4.597368    0.468782   -0.664155
      5          1           0        4.077994    0.058254    0.967666
      6          1           0        3.183109   -1.380733   -1.578208
      7          1           0        2.664879   -1.790650    0.053051
      8          1           0        5.045386   -2.312484    0.683570
      9          1           0        5.566559   -1.900239   -0.956958
     10          1           0        4.521955   -3.305696   -0.687145
     11          6           0        2.542960    0.967306   -0.242089
     12          6           0        2.800944    2.407583    0.201795
     13          6           0        1.574282    3.305456    0.037726
     14          1           0        2.224886    0.966534   -1.293860
     15          1           0        1.705512    0.556006    0.337961
     16          1           0        3.638000    2.815438   -0.379245
     17          1           0        3.119771    2.405521    1.252014
     18          1           0        0.736321    2.925027    0.630764
     19          1           0        1.257494    3.337273   -1.009764
     20          1           0        1.780925    4.330485    0.360951
     21          6           0       -2.564189   -0.996709    0.099793
     22          6           0       -1.359645   -0.604383    0.956028
     23          6           0       -0.192871   -1.582935    0.818658
     24          1           0       -2.894477   -2.005447    0.383174
     25          1           0       -2.254075   -1.053539   -0.952820
     26          1           0       -1.672261   -0.546961    2.006547
     27          1           0       -1.032305    0.403614    0.670708
     28          1           0        0.146840   -1.633885   -0.220861
     29          1           0       -0.496752   -2.589860    1.122567
     30          1           0        0.657485   -1.283413    1.439175
     31          6           0       -3.738691   -0.028079    0.226400
     32          6           0       -4.943236   -0.420405   -0.629834
     33          6           0       -6.110008    0.558148   -0.492465
     34          1           0       -4.048804    0.028750    1.279013
     35          1           0       -3.408403    0.980658   -0.056981
     36          1           0       -5.270575   -1.428402   -0.344514
     37          1           0       -4.630619   -0.477827   -1.680353
     38          1           0       -5.806127    1.565072   -0.796373
     39          1           0       -6.449720    0.609097    0.547055
     40          1           0       -6.960365    0.258624   -1.112981
 ---------------------------------------------------------------------

 SCF Done:  E(RHF) =  -470.731712465     A.U. after   11 cycles
 E2 =    -0.1584555355D+01 EUMP2 =    -0.47231626782052D+03

 The electronic state is 1-A.
 Alpha  occ. eigenvalues --  -11.21655 -11.21612 -11.21565 -11.21448 -11.21431
 Alpha  occ. eigenvalues --  -11.21369 -11.21321 -11.21247 -11.21105 -11.21079
 Alpha  occ. eigenvalues --  -11.21077 -11.20991  -1.08477  -1.08354  -1.03572
 Alpha  occ. eigenvalues --   -1.03471  -0.96045  -0.95913  -0.87056  -0.86944
 Alpha  occ. eigenvalues --   -0.79711  -0.79484  -0.78272  -0.78177  -0.65210
 Alpha  occ. eigenvalues --   -0.64938  -0.60967  -0.60880  -0.59415  -0.59292
 Alpha  occ. eigenvalues --   -0.57695  -0.57490  -0.55370  -0.55172  -0.52821
 Alpha  occ. eigenvalues --   -0.52565  -0.52498  -0.52303  -0.49986  -0.49877
 Alpha  occ. eigenvalues --   -0.47961  -0.47866  -0.46773  -0.46462  -0.45890
 Alpha  occ. eigenvalues --   -0.45719  -0.45667  -0.45467  -0.43766  -0.43682
 Alpha virt. eigenvalues --    0.21051   0.23003   0.23564   0.24420   0.26030
 Alpha virt. eigenvalues --    0.26368   0.26773   0.27383   0.28358   0.29873
 Alpha virt. eigenvalues --    0.30180   0.30755   0.31828   0.32044   0.32430

 Mulliken charges:
               1
     1  C   -0.297397
     2  C   -0.307622
     3  C   -0.475126
     4  H    0.149195
     5  H    0.148298
     6  H    0.150164
     7  H    0.162942
     8  H    0.154594
     9  H    0.154570
    10  H    0.159897
    11  C   -0.308402
    12  C   -0.298794
    13  C   -0.477389
    14  H    0.147887
    15  H    0.162798
    16  H    0.151761
    17  H    0.151461
    18  H    0.156008
    19  H    0.154808
    20  H    0.160415
    21  C   -0.298428
    22  C   -0.304627
    23  C   -0.480912
    24  H    0.149827
    25  H    0.150098
    26  H    0.151918
    27  H    0.155287
    28  H    0.160196
    29  H    0.156480
    30  H    0.159732
    31  C   -0.298508
    32  C   -0.299675
    33  C   -0.475746
    34  H    0.149498
    35  H    0.150059
    36  H    0.151920
    37  H    0.152010
    38  H    0.155339
    39  H    0.155175
    40  H    0.160288
 Sum of Mulliken charges =  -0.00000

 Dipole moment (field-independent basis, Debye):
    X=             -0.0639    Y=             -0.0317    Z=              0.0108  Tot=              0.0722
 Quadrupole moment (field-independent basis, Debye-Ang):
   XX=            -86.3814   YY=            -85.4590   ZZ=            -83.3143
   XY=              1.4583   XZ=             -0.5470   YZ=             -0.6158

 Normal termination of Gaussian 16 at Thu May  6 04:00:43 2021.
