 Gaussian 16, Revision A.03,
 Gaussian 16:  EM64L-G16RevA.03 25-Dec-2016

 -------------
 #p 6-31g* mp2
 -------------

 ------------------------------------------------------
 Input file generated by CHIRIPA (05-May-2021 14:51:13)
 ------------------------------------------------------
 Symbolic Z-matrix:
 Charge =  0 Multiplicity = 1

                         Standard orientation:
 ---------------------------------------------------------------------
 Center     Atomic      Atomic             Coordinates (Angstroms)
 Number     Number       Type             X           Y           Z
 ---------------------------------------------------------------------
      1          6           0       -4.148070   -0.695398    0.049919
      2          6           0       -5.674077   -0.791671    0.045726
      3          6           0       -6.180415   -2.172856    0.462554
      4          1           0       -3.737080   -1.457582   -0.626178
      5          1           0       -3.775238   -0.935604    1.055251
      6          1           0       -6.044005   -0.550006   -0.958946
      7          1           0       -6.081489   -0.029042    0.721765
      8          1           0       -5.839426   -2.419290    1.473295
      9          1           0       -5.801729   -2.943213   -0.216966
     10          1           0       -7.273846   -2.219436    0.452605
     11          6           0       -3.626645    0.679385   -0.364588
     12          6           0       -2.100637    0.775659   -0.360395
     13          6           0       -1.594300    2.156844   -0.777222
     14          1           0       -3.999476    0.919591   -1.369920
     15          1           0       -4.037634    1.441570    0.311509
     16          1           0       -1.693226    0.013030   -1.036434
     17          1           0       -1.730710    0.533993    0.644278
     18          1           0       -1.972986    2.927201   -0.097702
     19          1           0       -1.935289    2.403278   -1.787964
     20          1           0       -0.500869    2.203424   -0.767274
     21          6           0        3.391258    0.378107    0.604930
     22          6           0        2.861513    1.670892   -0.016410
     23          6           0        1.870107    2.399949    0.890994
     24          1           0        2.545501   -0.284709    0.833654
     25          1           0        3.873842    0.611409    1.564137
     26          1           0        2.381291    1.435405   -0.974819
     27          1           0        3.708645    2.330629   -0.243858
     28          1           0        2.341414    2.663391    1.843395
     29          1           0        1.006519    1.763080    1.108281
     30          1           0        1.504072    3.321286    0.427294
     31          6           0        4.383457   -0.362095   -0.290261
     32          6           0        4.913201   -1.654879    0.331079
     33          6           0        5.904608   -2.383937   -0.576325
     34          1           0        3.900872   -0.595396   -1.249468
     35          1           0        5.229214    0.300722   -0.518985
     36          1           0        4.066070   -2.314617    0.558526
     37          1           0        5.393424   -1.419392    1.289487
     38          1           0        6.768197   -1.747067   -0.793612
     39          1           0        5.433301   -2.647379   -1.528727
     40          1           0        6.270643   -3.305274   -0.112625
 ---------------------------------------------------------------------

 SCF Done:  E(RHF) =  -470.732728411     A.U. after   11 cycles
 E2 =    -0.1582895490D+01 EUMP2 =    -0.47231562390131D+03

 The electronic state is 1-A.
 Alpha  occ. eigenvalues --  -11.21628 -11.21607 -11.21605 -11.21602 -11.21412
 Alpha  occ. eigenvalues --  -11.21404 -11.21353 -11.21344 -11.21074 -11.21073
 Alpha  occ. eigenvalues --  -11.21049 -11.20947  -1.08448  -1.08418  -1.03580
 Alpha  occ. eigenvalues --   -1.03482  -0.96065  -0.95889  -0.87092  -0.86893
 Alpha  occ. eigenvalues --   -0.79627  -0.79559  -0.78254  -0.78239  -0.65096
 Alpha  occ. eigenvalues --   -0.65045  -0.61071  -0.60884  -0.59504  -0.59179
 Alpha  occ. eigenvalues --   -0.57637  -0.57555  -0.55347  -0.55162  -0.52857
 Alpha  occ. eigenvalues --   -0.52501  -0.52398  -0.52319  -0.49943  -0.49839
 Alpha  occ. eigenvalues --   -0.47921  -0.47884  -0.46640  -0.46609  -0.45801
 Alpha  occ. eigenvalues --   -0.45776  -0.45727  -0.45692  -0.43871  -0.43668
 Alpha virt. eigenvalues --    0.21212   0.23069   0.23512   0.25186   0.26235
 Alpha virt. eigenvalues --    0.26649   0.27059   0.27433   0.27723   0.29083
 Alpha virt. eigenvalues --    0.30052   0.31174   0.31255   0.31845   0.32319

 Mulliken charges:
               1
     1  C   -0.298277
     2  C   -0.299650
     3  C   -0.475701
     4  H    0.149451
     5  H    0.149424
     6  H    0.151938
     7  H    0.152010
     8  H    0.155175
     9  H    0.155117
    10  H    0.160274
    11  C   -0.298220
    12  C   -0.300741
    13  C   -0.482975
    14  H    0.149690
    15  H    0.149851
    16  H    0.151252
    17  H    0.151561
    18  H    0.154804
    19  H    0.154091
    20  H    0.171159
    21  C   -0.298296
    22  C   -0.302306
    23  C   -0.481158
    24  H    0.150048
    25  H    0.149659
    26  H    0.152695
    27  H    0.152453
    28  H    0.156148
    29  H    0.159067
    30  H    0.161369
    31  C   -0.298310
    32  C   -0.299696
    33  C   -0.475711
    34  H    0.149537
    35  H    0.149672
    36  H    0.152032
    37  H    0.151928
    38  H    0.155182
    39  H    0.155181
    40  H    0.160273
 Sum of Mulliken charges =  -0.00000

 Dipole moment (field-independent basis, Debye):
    X=              0.0227    Y=              0.0120    Z=              0.0103  Tot=              0.0276
 Quadrupole moment (field-independent basis, Debye-Ang):
   XX=            -85.0485   YY=            -85.7150   ZZ=            -84.0356
   XY=              0.4040   XZ=              0.8261   YZ=              0.4703

 Normal termination of Gaussian 16 at Thu May  6 07:09:03 2021.
