 Gaussian 16, Revision A.03,
 Gaussian 16:  EM64L-G16RevA.03 25-Dec-2016

 -------------
 #p 6-31g* mp2
 -------------

 ------------------------------------------------------
 Input file generated by CHIRIPA (05-May-2021 14:55:18)
 ------------------------------------------------------
 Symbolic Z-matrix:
 Charge =  0 Multiplicity = 1

                         Standard orientation:
 ---------------------------------------------------------------------
 Center     Atomic      Atomic             Coordinates (Angstroms)
 Number     Number       Type             X           Y           Z
 ---------------------------------------------------------------------
      1          6           0       -1.499910   -2.056015    1.414177
      2          6           0       -0.804891   -0.911371    1.010122
      3          6           0       -1.442992    0.077166    0.255026
      4          6           0       -2.782871   -0.112252   -0.079840
      5          6           0       -3.502366   -1.241589    0.307736
      6          6           0       -2.844059   -2.217186    1.062315
      7          1           0       -0.996370   -2.818909    2.000553
      8          1           0        0.239055   -0.783536    1.281930
      9          1           0       -0.928783    0.973105   -0.071011
     10          1           0       -4.542371   -1.340916    0.021480
     11          1           0       -3.386320   -3.105105    1.374723
     12          7           0       -3.469095    0.927419   -0.878952
     13          8           0       -4.650081    0.736813   -1.161048
     14          8           0       -2.812978    1.913232   -1.208070
     15          6           0        3.518588    1.014843    0.318699
     16          6           0        2.243201    1.848701    0.445405
     17          6           0        2.461866    3.149702    1.218304
     18          1           0        3.901087    0.786542    1.322949
     19          1           0        4.291932    1.614066   -0.181566
     20          1           0        1.472058    1.247605    0.944042
     21          1           0        1.863588    2.074881   -0.559261
     22          1           0        3.212131    3.772265    0.720190
     23          1           0        2.818377    2.940290    2.232034
     24          1           0        1.537354    3.730179    1.296957
     25          6           0        3.316030   -0.288821   -0.451470
     26          6           0        4.591417   -1.122678   -0.578176
     27          6           0        4.372752   -2.423680   -1.351076
     28          1           0        2.542687   -0.888044    0.048795
     29          1           0        2.933531   -0.060520   -1.455720
     30          1           0        4.971030   -1.348859    0.426489
     31          1           0        5.362561   -0.521583   -1.076813
     32          1           0        4.016242   -2.214267   -2.364805
     33          1           0        3.622487   -3.046243   -0.852961
     34          1           0        5.297264   -3.004157   -1.429729
 ---------------------------------------------------------------------

 SCF Done:  E(RHF) =  -669.535071145     A.U. after   15 cycles
 E2 =    -0.2092475220D+01 EUMP2 =    -0.67162754636487D+03

 The electronic state is 1-A.
 Alpha  occ. eigenvalues --  -20.60715 -20.60710 -15.85767 -11.31111 -11.27698
 Alpha  occ. eigenvalues --  -11.27645 -11.27442 -11.26709 -11.26667 -11.22451
 Alpha  occ. eigenvalues --  -11.22211 -11.22144 -11.22077 -11.21592 -11.21590
 Alpha  occ. eigenvalues --   -1.59790  -1.39344  -1.19290  -1.09154  -1.08692
 Alpha  occ. eigenvalues --   -1.04697  -1.04176  -0.96593  -0.95527  -0.87608
 Alpha  occ. eigenvalues --   -0.86095  -0.82377  -0.80276  -0.79007  -0.77387
 Alpha  occ. eigenvalues --   -0.71987  -0.71112  -0.70405  -0.65857  -0.64943
 Alpha  occ. eigenvalues --   -0.64671  -0.62113  -0.61523  -0.59947  -0.58215
 Alpha  occ. eigenvalues --   -0.55878  -0.55208  -0.53269  -0.53043  -0.52995
 Alpha  occ. eigenvalues --   -0.52788  -0.50539  -0.48752  -0.48744  -0.48553
 Alpha  occ. eigenvalues --   -0.47311  -0.46481  -0.46415  -0.44754  -0.44440
 Alpha  occ. eigenvalues --   -0.37278  -0.36287
 Alpha virt. eigenvalues --    0.05117   0.11322   0.16562   0.19455   0.22726
 Alpha virt. eigenvalues --    0.23609   0.24710   0.25807   0.26945   0.28333
 Alpha virt. eigenvalues --    0.29343   0.30361   0.31326   0.31405   0.32274

 Mulliken charges:
               1
     1  C   -0.171202
     2  C   -0.225503
     3  C   -0.174939
     4  C    0.158544
     5  C   -0.170547
     6  C   -0.218870
     7  H    0.225250
     8  H    0.230158
     9  H    0.280197
    10  H    0.275327
    11  H    0.223119
    12  N    0.488251
    13  O   -0.460757
    14  O   -0.460729
    15  C   -0.298603
    16  C   -0.308595
    17  C   -0.475926
    18  H    0.149561
    19  H    0.154604
    20  H    0.143005
    21  H    0.158865
    22  H    0.159215
    23  H    0.155312
    24  H    0.165583
    25  C   -0.301211
    26  C   -0.300049
    27  C   -0.475753
    28  H    0.141481
    29  H    0.154568
    30  H    0.151619
    31  H    0.155169
    32  H    0.157870
    33  H    0.152718
    34  H    0.162266
 Sum of Mulliken charges =  -0.00000

 Dipole moment (field-independent basis, Debye):
    X=              2.6190    Y=             -3.5449    Z=              2.7307  Tot=              5.1848
 Quadrupole moment (field-independent basis, Debye-Ang):
   XX=           -104.1362   YY=            -93.2247   ZZ=            -95.4850
   XY=             13.0291   XZ=             -8.6410   YZ=             -1.0396

 Normal termination of Gaussian 16 at Thu May  6 15:41:47 2021.
