 Gaussian 16, Revision A.03,
 Gaussian 16:  EM64L-G16RevA.03 25-Dec-2016

 -------------
 #p 6-31g* mp2
 -------------

 ------------------------------------------------------
 Input file generated by CHIRIPA (05-May-2021 14:53:15)
 ------------------------------------------------------
 Symbolic Z-matrix:
 Charge =  0 Multiplicity = 1

                         Standard orientation:
 ---------------------------------------------------------------------
 Center     Atomic      Atomic             Coordinates (Angstroms)
 Number     Number       Type             X           Y           Z
 ---------------------------------------------------------------------
      1          6           0       -2.946961    0.805489    0.403152
      2          6           0       -2.384500    2.166634   -0.007832
      3          6           0       -1.443127    2.758560    1.041565
      4          1           0       -3.479329    0.909172    1.358547
      5          1           0       -2.114177    0.111592    0.583080
      6          1           0       -3.218135    2.857366   -0.188272
      7          1           0       -1.853573    2.059737   -0.962455
      8          1           0       -0.592511    2.091740    1.215933
      9          1           0       -1.964826    2.893901    1.994515
     10          1           0       -1.052639    3.731533    0.727394
     11          6           0       -3.889782    0.200869   -0.635718
     12          6           0       -4.452243   -1.160276   -0.224735
     13          6           0       -5.393616   -1.752203   -1.274131
     14          1           0       -4.722566    0.894765   -0.815646
     15          1           0       -3.357414    0.097186   -1.591113
     16          1           0       -4.983170   -1.053379    0.729888
     17          1           0       -3.618608   -1.851008   -0.044294
     18          1           0       -4.871917   -1.887543   -2.227081
     19          1           0       -6.244232   -1.085382   -1.448500
     20          1           0       -5.784104   -2.725175   -0.959960
     21          6           0        4.146238    1.001623   -1.406867
     22          6           0        4.261143   -0.392395   -1.412589
     23          6           0        3.448711   -1.175173   -0.586902
     24          6           0        2.527944   -0.527946    0.235640
     25          6           0        2.389713    0.858915    0.263937
     26          6           0        3.212536    1.621736   -0.570098
     27          1           0        4.781391    1.601953   -2.051523
     28          1           0        4.985390   -0.876700   -2.061402
     29          1           0        3.516711   -2.256170   -0.571392
     30          1           0        1.658486    1.313047    0.921576
     31          1           0        3.121103    2.704160   -0.563566
     32          7           0        1.662358   -1.346075    1.114176
     33          8           0        0.858981   -0.751681    1.829660
     34          8           0        1.803679   -2.566227    1.070654
 ---------------------------------------------------------------------

 SCF Done:  E(RHF) =  -669.535995161     A.U. after   15 cycles
 E2 =    -0.2091671717D+01 EUMP2 =    -0.67162766687712D+03

 The electronic state is 1-A.
 Alpha  occ. eigenvalues --  -20.60928 -20.60923 -15.85956 -11.31265 -11.27830
 Alpha  occ. eigenvalues --  -11.27810 -11.27565 -11.26838 -11.26822 -11.21357
 Alpha  occ. eigenvalues --  -11.21055 -11.20982 -11.20912 -11.20765 -11.20638
 Alpha  occ. eigenvalues --   -1.59986  -1.39543  -1.19435  -1.08842  -1.07977
 Alpha  occ. eigenvalues --   -1.04830  -1.03167  -0.95692  -0.95616  -0.86653
 Alpha  occ. eigenvalues --   -0.86230  -0.82515  -0.79227  -0.77762  -0.77559
 Alpha  occ. eigenvalues --   -0.72175  -0.71299  -0.70552  -0.65089  -0.64861
 Alpha  occ. eigenvalues --   -0.64592  -0.62210  -0.60555  -0.58994  -0.57217
 Alpha  occ. eigenvalues --   -0.55363  -0.54899  -0.53161  -0.52933  -0.52360
 Alpha  occ. eigenvalues --   -0.52024  -0.49567  -0.48940  -0.48924  -0.47534
 Alpha  occ. eigenvalues --   -0.46246  -0.45339  -0.45270  -0.44827  -0.43393
 Alpha  occ. eigenvalues --   -0.37416  -0.36427
 Alpha virt. eigenvalues --    0.04920   0.11192   0.16423   0.20714   0.23271
 Alpha virt. eigenvalues --    0.24279   0.26141   0.27295   0.27661   0.28248
 Alpha virt. eigenvalues --    0.29352   0.30294   0.31516   0.31924   0.32270

 Mulliken charges:
               1
     1  C   -0.303379
     2  C   -0.298371
     3  C   -0.483956
     4  H    0.150227
     5  H    0.164618
     6  H    0.150593
     7  H    0.147735
     8  H    0.160759
     9  H    0.159705
    10  H    0.152912
    11  C   -0.298029
    12  C   -0.300384
    13  C   -0.475450
    14  H    0.146706
    15  H    0.146938
    16  H    0.152245
    17  H    0.157696
    18  H    0.153680
    19  H    0.153252
    20  H    0.160309
    21  C   -0.170424
    22  C   -0.218809
    23  C   -0.170266
    24  C    0.156105
    25  C   -0.175464
    26  C   -0.221513
    27  H    0.225960
    28  H    0.223707
    29  H    0.275688
    30  H    0.286566
    31  H    0.224631
    32  N    0.487712
    33  O   -0.462760
    34  O   -0.458940
 Sum of Mulliken charges =  -0.00000

 Dipole moment (field-independent basis, Debye):
    X=              3.1345    Y=              2.7539    Z=             -3.0129  Tot=              5.1465
 Quadrupole moment (field-independent basis, Debye-Ang):
   XX=            -78.9993   YY=            -94.9909   ZZ=            -96.5646
   XY=              3.1219   XZ=             -9.4170   YZ=              3.7935

 Normal termination of Gaussian 16 at Wed May  5 18:39:43 2021.
