 Gaussian 16, Revision A.03,
 Gaussian 16:  EM64L-G16RevA.03 25-Dec-2016

 -------------
 #p 6-31g* mp2
 -------------

 ------------------------------------------------------
 Input file generated by CHIRIPA (05-May-2021 14:55:23)
 ------------------------------------------------------
 Symbolic Z-matrix:
 Charge =  0 Multiplicity = 1

                         Standard orientation:
 ---------------------------------------------------------------------
 Center     Atomic      Atomic             Coordinates (Angstroms)
 Number     Number       Type             X           Y           Z
 ---------------------------------------------------------------------
      1          6           0       -2.317976    1.802711    1.711650
      2          6           0       -1.465554    1.682023    0.609228
      3          6           0       -1.597202    0.607833   -0.275833
      4          6           0       -2.596642   -0.331609   -0.027119
      5          6           0       -3.461331   -0.238987    1.062388
      6          6           0       -3.311392    0.843511    1.934318
      7          1           0       -2.208604    2.640394    2.394086
      8          1           0       -0.693159    2.425449    0.433816
      9          1           0       -0.950874    0.490028   -1.137111
     10          1           0       -4.221865   -0.995890    1.211066
     11          1           0       -3.974819    0.934684    2.789653
     12          7           0       -2.745693   -1.473203   -0.957143
     13          8           0       -3.634161   -2.287497   -0.715922
     14          8           0       -1.971230   -1.532075   -1.909707
     15          6           0        2.956631    0.431099   -0.801443
     16          6           0        2.345202    1.825932   -0.665131
     17          6           0        1.677458    2.307182   -1.953662
     18          1           0        3.692742    0.438469   -1.616936
     19          1           0        2.171215   -0.278767   -1.095736
     20          1           0        3.131262    2.532702   -0.369834
     21          1           0        1.610598    1.815287    0.150259
     22          1           0        0.873999    1.624787   -2.249283
     23          1           0        2.403303    2.346278   -2.772333
     24          1           0        1.247070    3.306316   -1.833845
     25          6           0        3.627885   -0.063841    0.478471
     26          6           0        4.239314   -1.458674    0.342160
     27          6           0        4.907057   -1.939923    1.630691
     28          1           0        4.413301    0.646024    0.772766
     29          1           0        2.891773   -0.071212    1.293966
     30          1           0        4.973917   -1.448031   -0.473230
     31          1           0        3.453253   -2.165445    0.046864
     32          1           0        4.181213   -1.979020    2.449362
     33          1           0        5.710517   -1.257530    1.926313
     34          1           0        5.337446   -2.939058    1.510874
 ---------------------------------------------------------------------

 SCF Done:  E(RHF) =  -669.534991336     A.U. after   15 cycles
 E2 =    -0.2092741974D+01 EUMP2 =    -0.67162773331012D+03

 The electronic state is 1-A.
 Alpha  occ. eigenvalues --  -20.60788 -20.60783 -15.85839 -11.31190 -11.27765
 Alpha  occ. eigenvalues --  -11.27743 -11.27497 -11.26777 -11.26728 -11.22333
 Alpha  occ. eigenvalues --  -11.21903 -11.21785 -11.21723 -11.21644 -11.21168
 Alpha  occ. eigenvalues --   -1.59862  -1.39417  -1.19365  -1.08839  -1.08758
 Alpha  occ. eigenvalues --   -1.04775  -1.03968  -0.96413  -0.95598  -0.87428
 Alpha  occ. eigenvalues --   -0.86167  -0.82434  -0.80050  -0.78593  -0.77489
 Alpha  occ. eigenvalues --   -0.72059  -0.71185  -0.70489  -0.65532  -0.65000
 Alpha  occ. eigenvalues --   -0.64783  -0.62327  -0.61147  -0.59808  -0.58005
 Alpha  occ. eigenvalues --   -0.55722  -0.55219  -0.53127  -0.53100  -0.52950
 Alpha  occ. eigenvalues --   -0.52755  -0.50347  -0.48818  -0.48814  -0.48342
 Alpha  occ. eigenvalues --   -0.47066  -0.46139  -0.46023  -0.44824  -0.44191
 Alpha  occ. eigenvalues --   -0.37345  -0.36352
 Alpha virt. eigenvalues --    0.05030   0.11239   0.16429   0.19196   0.22932
 Alpha virt. eigenvalues --    0.23821   0.25297   0.26069   0.27118   0.28198
 Alpha virt. eigenvalues --    0.29182   0.30220   0.31320   0.31446   0.32105

 Mulliken charges:
               1
     1  C   -0.171430
     2  C   -0.224424
     3  C   -0.178987
     4  C    0.159614
     5  C   -0.170264
     6  C   -0.218789
     7  H    0.225869
     8  H    0.229768
     9  H    0.283345
    10  H    0.275621
    11  H    0.223473
    12  N    0.487645
    13  O   -0.460248
    14  O   -0.460772
    15  C   -0.299819
    16  C   -0.306919
    17  C   -0.482615
    18  H    0.152911
    19  H    0.154691
    20  H    0.155229
    21  H    0.145718
    22  H    0.155431
    23  H    0.163929
    24  H    0.157696
    25  C   -0.298700
    26  C   -0.300808
    27  C   -0.475985
    28  H    0.148972
    29  H    0.149281
    30  H    0.152824
    31  H    0.156297
    32  H    0.155045
    33  H    0.154374
    34  H    0.162028
 Sum of Mulliken charges =  -0.00000

 Dipole moment (field-independent basis, Debye):
    X=              0.6571    Y=              3.9567    Z=              3.2292  Tot=              5.1492
 Quadrupole moment (field-independent basis, Debye-Ang):
   XX=            -93.9068   YY=            -97.5252   ZZ=            -94.4249
   XY=             -8.6589   XZ=            -12.0812   YZ=             -1.9915

 Normal termination of Gaussian 16 at Thu May  6 01:33:10 2021.
