 Gaussian 16, Revision A.03,
 Gaussian 16:  EM64L-G16RevA.03 25-Dec-2016

 -------------
 #p 6-31g* mp2
 -------------

 ------------------------------------------------------
 Input file generated by CHIRIPA (05-May-2021 14:57:26)
 ------------------------------------------------------
 Symbolic Z-matrix:
 Charge =  0 Multiplicity = 1

                         Standard orientation:
 ---------------------------------------------------------------------
 Center     Atomic      Atomic             Coordinates (Angstroms)
 Number     Number       Type             X           Y           Z
 ---------------------------------------------------------------------
      1          6           0        4.724268    0.551136    0.347722
      2          6           0        4.201583    0.643488   -0.946416
      3          6           0        2.981277    0.039738   -1.264043
      4          6           0        2.307229   -0.651619   -0.258571
      5          6           0        2.801956   -0.761377    1.040078
      6          6           0        4.024021   -0.149766    1.335098
      7          1           0        5.672914    1.023197    0.585681
      8          1           0        4.743219    1.187174   -1.715234
      9          1           0        2.553656    0.095577   -2.257744
     10          1           0        2.239001   -1.310141    1.785301
     11          1           0        4.427537   -0.223129    2.340999
     12          7           0        1.014414   -1.294943   -0.582862
     13          8           0        0.440017   -1.898296    0.320836
     14          8           0        0.599984   -1.183646   -1.734598
     15          6           0       -0.540628    2.081956    0.499072
     16          6           0       -1.311220    2.148314   -0.666392
     17          6           0       -2.410321    1.301919   -0.840005
     18          6           0       -2.711688    0.397062    0.176706
     19          6           0       -1.963226    0.306945    1.349298
     20          6           0       -0.868512    1.163103    1.501431
     21          1           0        0.311476    2.743248    0.625595
     22          1           0       -1.058922    2.860925   -1.446504
     23          1           0       -3.023914    1.332113   -1.732198
     24          1           0       -2.239397   -0.413769    2.109377
     25          1           0       -0.271846    1.109348    2.407601
     26          7           0       -3.872934   -0.504147    0.004281
     27          8           0       -4.117613   -1.292591    0.914844
     28          8           0       -4.516452   -0.405005   -1.038166
 ---------------------------------------------------------------------

 SCF Done:  E(RHF) =  -868.337267793     A.U. after   16 cycles
 E2 =    -0.2603420333D+01 EUMP2 =    -0.87094068812621D+03

 The electronic state is 1-A.
 Alpha  occ. eigenvalues --  -20.61144 -20.61138 -20.59801 -20.59791 -15.86179
 Alpha  occ. eigenvalues --  -15.84859 -11.31730 -11.30269 -11.28315 -11.28290
 Alpha  occ. eigenvalues --  -11.28056 -11.27363 -11.27346 -11.26924 -11.26912
 Alpha  occ. eigenvalues --  -11.26819 -11.26011 -11.25999  -1.60191  -1.58860
 Alpha  occ. eigenvalues --   -1.39751  -1.38417  -1.19910  -1.18514  -1.09262
 Alpha  occ. eigenvalues --   -1.07930  -1.05340  -1.03946  -0.96073  -0.94736
 Alpha  occ. eigenvalues --   -0.86720  -0.85362  -0.82910  -0.81578  -0.77936
 Alpha  occ. eigenvalues --   -0.76578  -0.72418  -0.71536  -0.71099  -0.71000
 Alpha  occ. eigenvalues --   -0.70146  -0.69700  -0.65555  -0.65331  -0.64200
 Alpha  occ. eigenvalues --   -0.64014  -0.62679  -0.61310  -0.55812  -0.54545
 Alpha  occ. eigenvalues --   -0.53666  -0.53422  -0.52236  -0.52086  -0.49169
 Alpha  occ. eigenvalues --   -0.49157  -0.47859  -0.47831  -0.45189  -0.43814
 Alpha  occ. eigenvalues --   -0.37984  -0.36974  -0.36457  -0.35402
 Alpha virt. eigenvalues --    0.04502   0.06094   0.10563   0.12225   0.16069
 Alpha virt. eigenvalues --    0.17419   0.20806   0.22006   0.26604   0.27495
 Alpha virt. eigenvalues --    0.28194   0.28941   0.30404   0.31362   0.32227

 Mulliken charges:
               1
     1  C   -0.172245
     2  C   -0.219589
     3  C   -0.173247
     4  C    0.162022
     5  C   -0.175160
     6  C   -0.219785
     7  H    0.226701
     8  H    0.224387
     9  H    0.276275
    10  H    0.274467
    11  H    0.224086
    12  N    0.490888
    13  O   -0.459346
    14  O   -0.458219
    15  C   -0.178018
    16  C   -0.217671
    17  C   -0.163004
    18  C    0.161866
    19  C   -0.151986
    20  C   -0.224299
    21  H    0.219842
    22  H    0.218575
    23  H    0.274802
    24  H    0.275814
    25  H    0.215883
    26  N    0.489620
    27  O   -0.460271
    28  O   -0.462388
 Sum of Mulliken charges =  -0.00000

 Dipole moment (field-independent basis, Debye):
    X=              8.5512    Y=              5.1715    Z=              1.6496  Tot=             10.1286
 Quadrupole moment (field-independent basis, Debye-Ang):
   XX=           -107.0140   YY=           -105.6802   ZZ=            -97.0170
   XY=             -4.7067   XZ=              1.0411   YZ=             -4.5864

 Normal termination of Gaussian 16 at Thu May  6 05:11:59 2021.
