 Gaussian 16, Revision A.03,
 Gaussian 16:  EM64L-G16RevA.03 25-Dec-2016

 -------------
 #p 6-31g* mp2
 -------------

 ------------------------------------------------------
 Input file generated by CHIRIPA (05-May-2021 14:53:17)
 ------------------------------------------------------
 Symbolic Z-matrix:
 Charge =  0 Multiplicity = 1

                         Standard orientation:
 ---------------------------------------------------------------------
 Center     Atomic      Atomic             Coordinates (Angstroms)
 Number     Number       Type             X           Y           Z
 ---------------------------------------------------------------------
      1          6           0       -2.009949    0.735062   -0.377907
      2          6           0       -2.413799    2.191210   -0.144408
      3          6           0       -1.453693    3.183540   -0.801122
      4          1           0       -0.994372    0.576187    0.009786
      5          1           0       -1.965455    0.543010   -1.458893
      6          1           0       -2.458864    2.380082    0.935829
      7          1           0       -3.428607    2.346589   -0.532530
      8          1           0       -1.415420    3.023757   -1.883530
      9          1           0       -0.440168    3.057440   -0.406828
     10          1           0       -1.761230    4.218460   -0.621623
     11          6           0       -2.960100   -0.268889    0.272497
     12          6           0       -2.556250   -1.725038    0.038999
     13          6           0       -3.516356   -2.717367    0.695713
     14          1           0       -3.004594   -0.076838    1.353484
     15          1           0       -3.975677   -0.110014   -0.115196
     16          1           0       -1.541442   -1.880416    0.427121
     17          1           0       -2.511185   -1.913909   -1.041238
     18          1           0       -4.529881   -2.591267    0.301418
     19          1           0       -3.554629   -2.557584    1.778120
     20          1           0       -3.208819   -3.752288    0.516214
     21          6           0        1.964428    0.737987    2.390396
     22          6           0        2.154872   -0.630542    2.172718
     23          6           0        2.144077   -1.151378    0.875351
     24          6           0        1.939202   -0.271049   -0.185939
     25          6           0        1.746525    1.097206   -0.001426
     26          6           0        1.761221    1.595980    1.304544
     27          1           0        1.974329    1.134016    3.401564
     28          1           0        2.312908   -1.299227    3.014103
     29          1           0        2.288924   -2.206650    0.678275
     30          1           0        1.591339    1.738944   -0.860208
     31          1           0        1.613048    2.659237    1.470601
     32          7           0        1.925709   -0.810757   -1.563956
     33          8           0        1.743226   -0.014214   -2.482028
     34          8           0        2.097870   -2.020105   -1.699882
 ---------------------------------------------------------------------

 SCF Done:  E(RHF) =  -669.534002655     A.U. after   15 cycles
 E2 =    -0.2095262872D+01 EUMP2 =    -0.67162926552712D+03

 The electronic state is 1-A.
 Alpha  occ. eigenvalues --  -20.60805 -20.60795 -15.85856 -11.31250 -11.27872
 Alpha  occ. eigenvalues --  -11.27805 -11.27611 -11.26875 -11.26855 -11.21742
 Alpha  occ. eigenvalues --  -11.21452 -11.21404 -11.21305 -11.21188 -11.20982
 Alpha  occ. eigenvalues --   -1.59874  -1.39426  -1.19472  -1.08839  -1.08399
 Alpha  occ. eigenvalues --   -1.04889  -1.03562  -0.96026  -0.95669  -0.87053
 Alpha  occ. eigenvalues --   -0.86262  -0.82504  -0.79633  -0.78215  -0.77528
 Alpha  occ. eigenvalues --   -0.72077  -0.71196  -0.70568  -0.65145  -0.65027
 Alpha  occ. eigenvalues --   -0.64862  -0.62278  -0.60948  -0.59386  -0.57626
 Alpha  occ. eigenvalues --   -0.55424  -0.55275  -0.53301  -0.52965  -0.52720
 Alpha  occ. eigenvalues --   -0.52437  -0.49989  -0.48838  -0.48825  -0.47943
 Alpha  occ. eigenvalues --   -0.46657  -0.45730  -0.45615  -0.44805  -0.43779
 Alpha  occ. eigenvalues --   -0.37416  -0.36373
 Alpha virt. eigenvalues --    0.04959   0.11107   0.16339   0.20660   0.23035
 Alpha virt. eigenvalues --    0.24167   0.26033   0.26798   0.27346   0.27899
 Alpha virt. eigenvalues --    0.29199   0.30376   0.31561   0.31764   0.32512

 Mulliken charges:
               1
     1  C   -0.309003
     2  C   -0.298064
     3  C   -0.478053
     4  H    0.156924
     5  H    0.156429
     6  H    0.148013
     7  H    0.153825
     8  H    0.163254
     9  H    0.142678
    10  H    0.159972
    11  C   -0.296936
    12  C   -0.300747
    13  C   -0.475778
    14  H    0.145887
    15  H    0.149533
    16  H    0.149416
    17  H    0.157822
    18  H    0.155564
    19  H    0.152162
    20  H    0.161405
    21  C   -0.171267
    22  C   -0.218593
    23  C   -0.172088
    24  C    0.162432
    25  C   -0.176897
    26  C   -0.216508
    27  H    0.226247
    28  H    0.224054
    29  H    0.276314
    30  H    0.278846
    31  H    0.224875
    32  N    0.488939
    33  O   -0.460143
    34  O   -0.460516
 Sum of Mulliken charges =  -0.00000

 Dipole moment (field-independent basis, Debye):
    X=              0.0987    Y=              1.8347    Z=              4.7566  Tot=              5.0991
 Quadrupole moment (field-independent basis, Debye-Ang):
   XX=            -95.3026   YY=            -92.6236   ZZ=            -95.7728
   XY=              2.3663   XZ=             10.9324   YZ=             -3.2138

 Normal termination of Gaussian 16 at Thu May  6 04:22:53 2021.
