 Gaussian 16, Revision A.03,
 Gaussian 16:  EM64L-G16RevA.03 25-Dec-2016

 -------------
 #p 6-31g* mp2
 -------------

 ------------------------------------------------------
 Input file generated by CHIRIPA (05-May-2021 14:51:12)
 ------------------------------------------------------
 Symbolic Z-matrix:
 Charge =  0 Multiplicity = 1

                         Standard orientation:
 ---------------------------------------------------------------------
 Center     Atomic      Atomic             Coordinates (Angstroms)
 Number     Number       Type             X           Y           Z
 ---------------------------------------------------------------------
      1          6           0       -3.744816   -0.282085    0.358178
      2          6           0       -4.819323   -0.048433   -0.704285
      3          6           0       -6.075804    0.614175   -0.138601
      4          1           0       -4.161050   -0.906803    1.160313
      5          1           0       -3.478052    0.679763    0.817612
      6          1           0       -5.082985   -1.010253   -1.162543
      7          1           0       -4.400424    0.575642   -1.504079
      8          1           0       -5.833458    1.586836    0.301628
      9          1           0       -6.519898   -0.008070    0.645103
     10          1           0       -6.830778    0.771880   -0.915134
     11          6           0       -2.482616   -0.943815   -0.191998
     12          6           0       -1.408110   -1.177468    0.870465
     13          6           0       -0.151628   -1.840076    0.304780
     14          1           0       -2.749380   -1.905663   -0.651432
     15          1           0       -2.066382   -0.319097   -0.994134
     16          1           0       -1.827009   -1.801543    1.670258
     17          1           0       -1.144447   -0.215648    1.328723
     18          1           0        0.292466   -1.217831   -0.478924
     19          1           0       -0.393974   -2.812736   -0.135448
     20          1           0        0.603345   -1.997780    1.081314
     21          6           0        2.480185    1.027496   -0.184192
     22          6           0        2.636013    2.487216    0.243496
     23          6           0        1.360175    3.303686    0.035154
     24          1           0        2.188797    0.991337   -1.242839
     25          1           0        1.656009    0.572615    0.382564
     26          1           0        3.460551    2.938820   -0.322903
     27          1           0        2.927252    2.519900    1.301197
     28          1           0        0.532708    2.879563    0.613098
     29          1           0        1.069038    3.300863   -1.020229
     30          1           0        1.493874    4.344106    0.347422
     31          6           0        3.747247    0.198405    0.018013
     32          6           0        3.591419   -1.261316   -0.409677
     33          6           0        4.867258   -2.077786   -0.201333
     34          1           0        4.571423    0.653285   -0.548743
     35          1           0        4.038636    0.234563    1.076658
     36          1           0        3.300181   -1.293999   -1.467376
     37          1           0        2.766881   -1.712919    0.156723
     38          1           0        5.158395   -2.074962    0.854050
     39          1           0        5.694724   -1.653663   -0.779277
     40          1           0        4.733559   -3.118205   -0.513601
 ---------------------------------------------------------------------

 SCF Done:  E(RHF) =  -470.731604788     A.U. after   11 cycles
 E2 =    -0.1584400037D+01 EUMP2 =    -0.47231600482577D+03

 The electronic state is 1-A.
 Alpha  occ. eigenvalues --  -11.21629 -11.21601 -11.21597 -11.21438 -11.21412
 Alpha  occ. eigenvalues --  -11.21352 -11.21350 -11.21292 -11.21108 -11.21069
 Alpha  occ. eigenvalues --  -11.21024 -11.20990  -1.08460  -1.08374  -1.03550
 Alpha  occ. eigenvalues --   -1.03482  -0.96016  -0.95932  -0.87034  -0.86958
 Alpha  occ. eigenvalues --   -0.79701  -0.79501  -0.78302  -0.78140  -0.65187
 Alpha  occ. eigenvalues --   -0.64939  -0.60955  -0.60907  -0.59434  -0.59246
 Alpha  occ. eigenvalues --   -0.57626  -0.57547  -0.55393  -0.55144  -0.52820
 Alpha  occ. eigenvalues --   -0.52595  -0.52405  -0.52354  -0.49992  -0.49866
 Alpha  occ. eigenvalues --   -0.47943  -0.47869  -0.46742  -0.46570  -0.45894
 Alpha  occ. eigenvalues --   -0.45742  -0.45680  -0.45363  -0.43763  -0.43674
 Alpha virt. eigenvalues --    0.20974   0.23134   0.23932   0.24333   0.25798
 Alpha virt. eigenvalues --    0.26331   0.27010   0.27591   0.28165   0.29489
 Alpha virt. eigenvalues --    0.30126   0.31126   0.31698   0.31827   0.32314

 Mulliken charges:
               1
     1  C   -0.298296
     2  C   -0.299663
     3  C   -0.475725
     4  H    0.149584
     5  H    0.149528
     6  H    0.151884
     7  H    0.152117
     8  H    0.155290
     9  H    0.155120
    10  H    0.160272
    11  C   -0.298671
    12  C   -0.301508
    13  C   -0.481523
    14  H    0.149624
    15  H    0.150365
    16  H    0.152046
    17  H    0.151538
    18  H    0.163078
    19  H    0.155582
    20  H    0.159337
    21  C   -0.305545
    22  C   -0.299058
    23  C   -0.475825
    24  H    0.148085
    25  H    0.158665
    26  H    0.151927
    27  H    0.151839
    28  H    0.154260
    29  H    0.154900
    30  H    0.160500
    31  C   -0.297073
    32  C   -0.307496
    33  C   -0.475183
    34  H    0.148977
    35  H    0.148760
    36  H    0.150535
    37  H    0.162845
    38  H    0.154392
    39  H    0.154536
    40  H    0.159982
 Sum of Mulliken charges =  -0.00000

 Dipole moment (field-independent basis, Debye):
    X=             -0.0353    Y=             -0.0216    Z=             -0.0039  Tot=              0.0416
 Quadrupole moment (field-independent basis, Debye-Ang):
   XX=            -86.5030   YY=            -84.6770   ZZ=            -83.9537
   XY=              1.5128   XZ=             -0.1313   YZ=             -0.4684

 Normal termination of Gaussian 16 at Wed May  5 16:46:46 2021.
