 Gaussian 16, Revision A.03,
 Gaussian 16:  EM64L-G16RevA.03 25-Dec-2016

 -------------
 #p 6-31g* mp2
 -------------

 ------------------------------------------------------
 Input file generated by CHIRIPA (05-May-2021 14:57:25)
 ------------------------------------------------------
 Symbolic Z-matrix:
 Charge =  0 Multiplicity = 1

                         Standard orientation:
 ---------------------------------------------------------------------
 Center     Atomic      Atomic             Coordinates (Angstroms)
 Number     Number       Type             X           Y           Z
 ---------------------------------------------------------------------
      1          6           0        1.575315    2.796604   -0.369099
      2          6           0        1.664530    1.853697   -1.398413
      3          6           0        2.149349    0.567511   -1.143024
      4          6           0        2.537922    0.256803    0.159190
      5          6           0        2.461020    1.174232    1.205947
      6          6           0        1.973144    2.454466    0.927510
      7          1           0        1.197509    3.793433   -0.576443
      8          1           0        1.356292    2.116616   -2.406336
      9          1           0        2.228992   -0.181879   -1.921156
     10          1           0        2.775882    0.882736    2.200587
     11          1           0        1.904967    3.184704    1.728852
     12          7           0        3.052796   -1.101673    0.441759
     13          8           0        3.388717   -1.350580    1.597544
     14          8           0        3.110684   -1.891818   -0.497900
     15          6           0       -4.203402    1.100548    0.782873
     16          6           0       -3.854021   -0.041769    1.510586
     17          6           0       -2.885535   -0.924885    1.024080
     18          6           0       -2.283847   -0.633566   -0.199192
     19          6           0       -2.610372    0.496295   -0.947581
     20          6           0       -3.581558    1.365468   -0.441729
     21          1           0       -4.956794    1.781158    1.168317
     22          1           0       -4.335300   -0.250040    2.461921
     23          1           0       -2.596022   -1.816515    1.566848
     24          1           0       -2.113194    0.677233   -1.892828
     25          1           0       -3.850896    2.251842   -1.009040
     26          7           0       -1.257126   -1.561100   -0.724475
     27          8           0       -0.741742   -1.281924   -1.804788
     28          8           0       -0.987206   -2.549715   -0.045931
 ---------------------------------------------------------------------

 SCF Done:  E(RHF) =  -868.337192209     A.U. after   16 cycles
 E2 =    -0.2601433307D+01 EUMP2 =    -0.87093862551552D+03

 The electronic state is 1-A.
 Alpha  occ. eigenvalues --  -20.60912 -20.60858 -20.59897 -20.59815 -15.85926
 Alpha  occ. eigenvalues --  -15.84924 -11.31368 -11.30497 -11.27997 -11.27914
 Alpha  occ. eigenvalues --  -11.27717 -11.27206 -11.27034 -11.27026 -11.27018
 Alpha  occ. eigenvalues --  -11.26954 -11.26266 -11.26182  -1.59942  -1.58926
 Alpha  occ. eigenvalues --   -1.39500  -1.38472  -1.19551  -1.18743  -1.08932
 Alpha  occ. eigenvalues --   -1.08114  -1.04972  -1.04166  -0.95755  -0.94893
 Alpha  occ. eigenvalues --   -0.86366  -0.85563  -0.82594  -0.81717  -0.77629
 Alpha  occ. eigenvalues --   -0.76699  -0.72152  -0.71296  -0.71142  -0.70667
 Alpha  occ. eigenvalues --   -0.70234  -0.69860  -0.65210  -0.64981  -0.64392
 Alpha  occ. eigenvalues --   -0.64188  -0.62323  -0.61485  -0.55473  -0.54729
 Alpha  occ. eigenvalues --   -0.53291  -0.53072  -0.52515  -0.52262  -0.48912
 Alpha  occ. eigenvalues --   -0.48875  -0.47930  -0.47869  -0.44894  -0.43822
 Alpha  occ. eigenvalues --   -0.37539  -0.36825  -0.36547  -0.35738
 Alpha virt. eigenvalues --    0.04873   0.05871   0.11053   0.11880   0.16359
 Alpha virt. eigenvalues --    0.17256   0.21100   0.21932   0.26900   0.27570
 Alpha virt. eigenvalues --    0.28371   0.28878   0.30680   0.31397   0.32413

 Mulliken charges:
               1
     1  C   -0.172411
     2  C   -0.223599
     3  C   -0.159292
     4  C    0.152562
     5  C   -0.171893
     6  C   -0.220127
     7  H    0.219977
     8  H    0.220561
     9  H    0.286791
    10  H    0.273673
    11  H    0.219124
    12  N    0.489462
    13  O   -0.465886
    14  O   -0.450449
    15  C   -0.171204
    16  C   -0.218747
    17  C   -0.170542
    18  C    0.159556
    19  C   -0.169117
    20  C   -0.219292
    21  H    0.225252
    22  H    0.224434
    23  H    0.278503
    24  H    0.270893
    25  H    0.220993
    26  N    0.487534
    27  O   -0.465498
    28  O   -0.451259
 Sum of Mulliken charges =  -0.00000

 Dipole moment (field-independent basis, Debye):
    X=             -5.4546    Y=              7.6456    Z=              0.7726  Tot=              9.4236
 Quadrupole moment (field-independent basis, Debye-Ang):
   XX=            -98.9906   YY=           -105.8876   ZZ=            -98.4250
   XY=              6.6559   XZ=             -6.9361   YZ=             -2.6206

 Normal termination of Gaussian 16 at Thu May  6 13:06:11 2021.
