 Gaussian 16, Revision A.03,
 Gaussian 16:  EM64L-G16RevA.03 25-Dec-2016

 -------------
 #p 6-31g* mp2
 -------------

 ------------------------------------------------------
 Input file generated by CHIRIPA (05-May-2021 14:57:25)
 ------------------------------------------------------
 Symbolic Z-matrix:
 Charge =  0 Multiplicity = 1

                         Standard orientation:
 ---------------------------------------------------------------------
 Center     Atomic      Atomic             Coordinates (Angstroms)
 Number     Number       Type             X           Y           Z
 ---------------------------------------------------------------------
      1          6           0        1.426388    2.268626    1.552086
      2          6           0        0.996010    1.000101    1.954753
      3          6           0        1.403677   -0.141961    1.259015
      4          6           0        2.245772    0.021926    0.160239
      5          6           0        2.691649    1.272218   -0.265500
      6          6           0        2.271344    2.400403    0.445196
      7          1           0        1.104794    3.150417    2.098362
      8          1           0        0.339784    0.894746    2.814004
      9          1           0        1.085564   -1.135985    1.549081
     10          1           0        3.345570    1.345476   -1.125987
     11          1           0        2.607161    3.384301    0.130209
     12          7           0        2.684040   -1.179779   -0.584225
     13          8           0        3.426128   -1.008577   -1.548919
     14          8           0        2.277169   -2.270122   -0.188947
     15          6           0       -2.446267    2.032132   -1.387259
     16          6           0       -1.603497    1.071279   -1.955609
     17          6           0       -1.444782   -0.179913   -1.352387
     18          6           0       -2.147174   -0.437707   -0.176174
     19          6           0       -2.994195    0.498805    0.414411
     20          6           0       -3.137707    1.743338   -0.206146
     21          1           0       -2.563657    3.001501   -1.862590
     22          1           0       -1.065268    1.292791   -2.872826
     23          1           0       -0.798820   -0.942136   -1.770920
     24          1           0       -3.517578    0.248813    1.329284
     25          1           0       -3.792894    2.487624    0.237491
     26          7           0       -1.987196   -1.758763    0.471606
     27          8           0       -2.617107   -1.961245    1.507390
     28          8           0       -1.234924   -2.566709   -0.068715
 ---------------------------------------------------------------------

 SCF Done:  E(RHF) =  -868.336792584     A.U. after   16 cycles
 E2 =    -0.2603942342D+01 EUMP2 =    -0.87094073492589D+03

 The electronic state is 1-A.
 Alpha  occ. eigenvalues --  -20.60967 -20.60858 -20.60609 -20.60489 -15.85931
 Alpha  occ. eigenvalues --  -15.85593 -11.31346 -11.31114 -11.27972 -11.27869
 Alpha  occ. eigenvalues --  -11.27760 -11.27699 -11.27602 -11.27505 -11.27000
 Alpha  occ. eigenvalues --  -11.26918 -11.26809 -11.26708  -1.60000  -1.59637
 Alpha  occ. eigenvalues --   -1.39539  -1.39171  -1.19542  -1.19306  -1.08932
 Alpha  occ. eigenvalues --   -1.08688  -1.04943  -1.04732  -0.95752  -0.95489
 Alpha  occ. eigenvalues --   -0.86348  -0.86119  -0.82570  -0.82304  -0.77622
 Alpha  occ. eigenvalues --   -0.77314  -0.72144  -0.71807  -0.71392  -0.70969
 Alpha  occ. eigenvalues --   -0.70643  -0.70388  -0.65188  -0.64966  -0.64937
 Alpha  occ. eigenvalues --   -0.64726  -0.62285  -0.62050  -0.55459  -0.55241
 Alpha  occ. eigenvalues --   -0.53676  -0.53035  -0.52818  -0.52660  -0.48934
 Alpha  occ. eigenvalues --   -0.48912  -0.48598  -0.48542  -0.44978  -0.44449
 Alpha  occ. eigenvalues --   -0.37741  -0.37369  -0.36434  -0.36166
 Alpha virt. eigenvalues --    0.04840   0.05198   0.10711   0.11642   0.16368
 Alpha virt. eigenvalues --    0.16657   0.21162   0.21489   0.27063   0.27316
 Alpha virt. eigenvalues --    0.28028   0.28407   0.30742   0.30939   0.32190

 Mulliken charges:
               1
     1  C   -0.170291
     2  C   -0.217902
     3  C   -0.179219
     4  C    0.156317
     5  C   -0.173940
     6  C   -0.219086
     7  H    0.223285
     8  H    0.225864
     9  H    0.288673
    10  H    0.273561
    11  H    0.220714
    12  N    0.484054
    13  O   -0.466576
    14  O   -0.446240
    15  C   -0.171127
    16  C   -0.217192
    17  C   -0.172462
    18  C    0.159010
    19  C   -0.174391
    20  C   -0.219438
    21  H    0.224495
    22  H    0.225375
    23  H    0.281968
    24  H    0.273467
    25  H    0.221607
    26  N    0.482519
    27  O   -0.465257
    28  O   -0.447788
 Sum of Mulliken charges =  -0.00000

 Dipole moment (field-independent basis, Debye):
    X=             -2.0957    Y=              8.6087    Z=              0.3099  Tot=              8.8655
 Quadrupole moment (field-independent basis, Debye-Ang):
   XX=           -107.8256   YY=           -107.3844   ZZ=            -99.3975
   XY=              0.1421   XZ=              6.6208   YZ=              0.0062

 Normal termination of Gaussian 16 at Fri May  7 03:30:06 2021.
