 Gaussian 16, Revision A.03,
 Gaussian 16:  EM64L-G16RevA.03 25-Dec-2016

 -------------
 #p 6-31g* mp2
 -------------

 ------------------------------------------------------
 Input file generated by CHIRIPA (05-May-2021 14:51:11)
 ------------------------------------------------------
 Symbolic Z-matrix:
 Charge =  0 Multiplicity = 1

                         Standard orientation:
 ---------------------------------------------------------------------
 Center     Atomic      Atomic             Coordinates (Angstroms)
 Number     Number       Type             X           Y           Z
 ---------------------------------------------------------------------
      1          6           0       -3.361003    1.213548    0.276062
      2          6           0       -2.474835    2.152494   -0.543127
      3          6           0       -2.609752    3.614585   -0.116649
      4          1           0       -4.408443    1.530264    0.178564
      5          1           0       -3.102504    1.311607    1.339527
      6          1           0       -2.733981    2.051676   -1.604869
      7          1           0       -1.429403    1.833391   -0.443822
      8          1           0       -2.331565    3.736300    0.935206
      9          1           0       -3.643555    3.955825   -0.232437
     10          1           0       -1.967663    4.268265   -0.715217
     11          6           0       -3.237186   -0.251555   -0.138511
     12          6           0       -4.123354   -1.190501    0.680678
     13          6           0       -3.988437   -2.652591    0.254199
     14          1           0       -3.495685   -0.349614   -1.201976
     15          1           0       -2.189746   -0.568270   -0.041014
     16          1           0       -5.168786   -0.871398    0.581373
     17          1           0       -3.864209   -1.089683    1.742419
     18          1           0       -2.954634   -2.993832    0.369988
     19          1           0       -4.266624   -2.774307   -0.797655
     20          1           0       -4.630526   -3.306271    0.852768
     21          6           0        4.062809   -0.486438   -0.056822
     22          6           0        4.672058    0.848691    0.372398
     23          6           0        6.200692    0.822049    0.391389
     24          1           0        4.408761   -1.275941    0.624315
     25          1           0        4.438322   -0.748663   -1.055633
     26          1           0        4.294432    1.108996    1.369522
     27          1           0        4.324464    1.635140   -0.309724
     28          1           0        6.594270    0.586923   -0.602801
     29          1           0        6.564068    0.057789    1.085987
     30          1           0        6.615213    1.786508    0.700989
     31          6           0        2.535380   -0.475555   -0.080729
     32          6           0        1.926132   -1.810684   -0.509949
     33          6           0        0.397497   -1.784042   -0.528940
     34          1           0        2.159867   -0.213331    0.918082
     35          1           0        2.189429    0.313948   -0.761866
     36          1           0        2.273726   -2.597134    0.172173
     37          1           0        2.303757   -2.070990   -1.507073
     38          1           0        0.034122   -1.019782   -1.223538
     39          1           0        0.003919   -1.548917    0.465250
     40          1           0       -0.017023   -2.748501   -0.838539
 ---------------------------------------------------------------------

 SCF Done:  E(RHF) =  -470.732867957     A.U. after   11 cycles
 E2 =    -0.1583327785D+01 EUMP2 =    -0.47231619574144D+03

 The electronic state is 1-A.
 Alpha  occ. eigenvalues --  -11.21660 -11.21635 -11.21547 -11.21497 -11.21460
 Alpha  occ. eigenvalues --  -11.21397 -11.21290 -11.21160 -11.21154 -11.21096
 Alpha  occ. eigenvalues --  -11.21032 -11.20978  -1.08486  -1.08326  -1.03590
 Alpha  occ. eigenvalues --   -1.03446  -0.96051  -0.95887  -0.87081  -0.86901
 Alpha  occ. eigenvalues --   -0.79700  -0.79492  -0.78332  -0.78085  -0.65114
 Alpha  occ. eigenvalues --   -0.64969  -0.60997  -0.60837  -0.59416  -0.59252
 Alpha  occ. eigenvalues --   -0.57720  -0.57456  -0.55328  -0.55188  -0.52754
 Alpha  occ. eigenvalues --   -0.52624  -0.52551  -0.52231  -0.49987  -0.49836
 Alpha  occ. eigenvalues --   -0.48058  -0.47811  -0.46705  -0.46519  -0.46019
 Alpha  occ. eigenvalues --   -0.45762  -0.45643  -0.45289  -0.43825  -0.43687
 Alpha virt. eigenvalues --    0.21495   0.22969   0.23924   0.24228   0.25767
 Alpha virt. eigenvalues --    0.26491   0.27117   0.27306   0.27949   0.29939
 Alpha virt. eigenvalues --    0.30159   0.31146   0.31799   0.32042   0.32320

 Mulliken charges:
               1
     1  C   -0.297297
     2  C   -0.300630
     3  C   -0.475504
     4  H    0.149075
     5  H    0.148626
     6  H    0.151459
     7  H    0.152447
     8  H    0.155088
     9  H    0.155146
    10  H    0.159852
    11  C   -0.310024
    12  C   -0.298798
    13  C   -0.477230
    14  H    0.147979
    15  H    0.165503
    16  H    0.151303
    17  H    0.150792
    18  H    0.156932
    19  H    0.154820
    20  H    0.159550
    21  C   -0.298285
    22  C   -0.299697
    23  C   -0.475746
    24  H    0.149787
    25  H    0.149746
    26  H    0.151908
    27  H    0.152071
    28  H    0.155269
    29  H    0.155221
    30  H    0.160388
    31  C   -0.298572
    32  C   -0.300234
    33  C   -0.479564
    34  H    0.149168
    35  H    0.149778
    36  H    0.152108
    37  H    0.152366
    38  H    0.158553
    39  H    0.154662
    40  H    0.161987
 Sum of Mulliken charges =  -0.00000

 Dipole moment (field-independent basis, Debye):
    X=              0.0754    Y=             -0.0276    Z=             -0.0195  Tot=              0.0827
 Quadrupole moment (field-independent basis, Debye-Ang):
   XX=            -85.7148   YY=            -85.9672   ZZ=            -83.4080
   XY=             -0.2625   XZ=              0.4463   YZ=             -0.5753

 Normal termination of Gaussian 16 at Wed May  5 16:45:44 2021.
