 Gaussian 16, Revision A.03,
 Gaussian 16:  EM64L-G16RevA.03 25-Dec-2016

 -------------
 #p 6-31g* mp2
 -------------

 ------------------------------------------------------
 Input file generated by CHIRIPA (05-May-2021 14:51:09)
 ------------------------------------------------------
 Symbolic Z-matrix:
 Charge =  0 Multiplicity = 1

                         Standard orientation:
 ---------------------------------------------------------------------
 Center     Atomic      Atomic             Coordinates (Angstroms)
 Number     Number       Type             X           Y           Z
 ---------------------------------------------------------------------
      1          6           0        3.213139   -0.041784    0.289945
      2          6           0        4.426985    0.161531   -0.617372
      3          6           0        5.250283    1.392307   -0.236367
      4          1           0        2.577819    0.853504    0.247848
      5          1           0        3.553448   -0.134914    1.330575
      6          1           0        4.084597    0.252865   -1.656143
      7          1           0        5.059391   -0.734423   -0.573258
      8          1           0        5.619755    1.305828    0.790577
      9          1           0        4.639422    2.298725   -0.298461
     10          1           0        6.113058    1.518672   -0.897813
     11          6           0        2.380132   -1.268230   -0.078372
     12          6           0        1.166285   -1.471545    0.828945
     13          6           0        0.342988   -2.702321    0.447940
     14          1           0        2.039822   -1.175100   -1.119003
     15          1           0        3.015452   -2.163518   -0.036275
     16          1           0        0.533879   -0.575592    0.784831
     17          1           0        1.508673   -1.562879    1.867716
     18          1           0        0.953849   -3.608740    0.510034
     19          1           0       -0.026484   -2.615842   -0.579004
     20          1           0       -0.519787   -2.828686    1.109385
     21          6           0       -2.650561   -0.060031   -0.331206
     22          6           0       -3.809096   -1.024810   -0.076286
     23          6           0       -3.501722   -2.451379   -0.532593
     24          1           0       -2.410957   -0.059975   -1.403369
     25          1           0       -1.755253   -0.427544    0.189134
     26          1           0       -4.702312   -0.654855   -0.595818
     27          1           0       -4.046096   -1.022426    0.995368
     28          1           0       -2.626260   -2.844240   -0.005500
     29          1           0       -3.286205   -2.474580   -1.605726
     30          1           0       -4.343335   -3.124301   -0.340954
     31          6           0       -2.942709    1.370046    0.119633
     32          6           0       -1.784175    2.334824   -0.135287
     33          6           0       -2.091548    3.761394    0.321020
     34          1           0       -3.838018    1.737557   -0.400707
     35          1           0       -3.182314    1.369990    1.191797
     36          1           0       -1.547175    2.332440   -1.206941
     37          1           0       -0.890959    1.964868    0.384245
     38          1           0       -2.307066    3.784594    1.394153
     39          1           0       -2.967011    4.154254   -0.206073
     40          1           0       -1.249936    4.434315    0.129381
 ---------------------------------------------------------------------

 SCF Done:  E(RHF) =  -470.732005460     A.U. after   11 cycles
 E2 =    -0.1584736208D+01 EUMP2 =    -0.47231674166788D+03

 The electronic state is 1-A.
 Alpha  occ. eigenvalues --  -11.21646 -11.21643 -11.21613 -11.21547 -11.21428
 Alpha  occ. eigenvalues --  -11.21386 -11.21368 -11.21301 -11.21109 -11.21098
 Alpha  occ. eigenvalues --  -11.21079 -11.20920  -1.08483  -1.08395  -1.03596
 Alpha  occ. eigenvalues --   -1.03484  -0.96030  -0.95945  -0.87073  -0.86938
 Alpha  occ. eigenvalues --   -0.79683  -0.79532  -0.78328  -0.78193  -0.65280
 Alpha  occ. eigenvalues --   -0.64902  -0.61093  -0.60834  -0.59449  -0.59255
 Alpha  occ. eigenvalues --   -0.57628  -0.57575  -0.55307  -0.55273  -0.52817
 Alpha  occ. eigenvalues --   -0.52641  -0.52441  -0.52305  -0.50043  -0.49812
 Alpha  occ. eigenvalues --   -0.47960  -0.47872  -0.46737  -0.46549  -0.46057
 Alpha  occ. eigenvalues --   -0.45783  -0.45718  -0.45290  -0.43791  -0.43754
 Alpha virt. eigenvalues --    0.20571   0.22824   0.23465   0.24300   0.25850
 Alpha virt. eigenvalues --    0.26538   0.27019   0.27412   0.28245   0.29701
 Alpha virt. eigenvalues --    0.29808   0.31441   0.31631   0.32115   0.32383

 Mulliken charges:
               1
     1  C   -0.298893
     2  C   -0.299671
     3  C   -0.475753
     4  H    0.150076
     5  H    0.149460
     6  H    0.152102
     7  H    0.151978
     8  H    0.155151
     9  H    0.155285
    10  H    0.160305
    11  C   -0.297953
    12  C   -0.307374
    13  C   -0.480315
    14  H    0.150201
    15  H    0.149816
    16  H    0.157556
    17  H    0.152016
    18  H    0.156252
    19  H    0.159346
    20  H    0.161034
    21  C   -0.308815
    22  C   -0.298587
    23  C   -0.482234
    24  H    0.148375
    25  H    0.161790
    26  H    0.151502
    27  H    0.151004
    28  H    0.163919
    29  H    0.153797
    30  H    0.159239
    31  C   -0.297544
    32  C   -0.302313
    33  C   -0.475589
    34  H    0.149651
    35  H    0.149449
    36  H    0.151746
    37  H    0.152925
    38  H    0.155433
    39  H    0.155501
    40  H    0.160131
 Sum of Mulliken charges =  -0.00000

 Dipole moment (field-independent basis, Debye):
    X=              0.0486    Y=             -0.0216    Z=              0.0047  Tot=              0.0534
 Quadrupole moment (field-independent basis, Debye-Ang):
   XX=            -85.0486   YY=            -86.2579   ZZ=            -83.6429
   XY=             -1.0010   XZ=              0.5514   YZ=             -1.0009

 Normal termination of Gaussian 16 at Wed May  5 19:43:50 2021.
