 Gaussian 16, Revision A.03,
 Gaussian 16:  EM64L-G16RevA.03 25-Dec-2016

 -------------
 #p 6-31g* mp2
 -------------

 ------------------------------------------------------
 Input file generated by CHIRIPA (05-May-2021 14:51:12)
 ------------------------------------------------------
 Symbolic Z-matrix:
 Charge =  0 Multiplicity = 1

                         Standard orientation:
 ---------------------------------------------------------------------
 Center     Atomic      Atomic             Coordinates (Angstroms)
 Number     Number       Type             X           Y           Z
 ---------------------------------------------------------------------
      1          6           0       -3.241307   -0.360010   -0.632609
      2          6           0       -2.516700   -1.629763   -0.184661
      3          6           0       -2.767682   -2.814253   -1.118355
      4          1           0       -4.319744   -0.561660   -0.689676
      5          1           0       -2.917475   -0.101010   -1.650178
      6          1           0       -2.840769   -1.885513    0.832289
      7          1           0       -1.439883   -1.425012   -0.128469
      8          1           0       -2.427556   -2.583690   -2.133124
      9          1           0       -3.836402   -3.046807   -1.166907
     10          1           0       -2.240319   -3.711397   -0.779415
     11          6           0       -3.000168    0.832874    0.290758
     12          6           0       -3.724775    2.102627   -0.157191
     13          6           0       -3.473794    3.287117    0.776504
     14          1           0       -3.324000    0.573874    1.308327
     15          1           0       -1.921731    1.034524    0.347824
     16          1           0       -4.801593    1.897876   -0.213382
     17          1           0       -3.400706    2.358377   -1.174141
     18          1           0       -2.405074    3.519671    0.825056
     19          1           0       -3.813920    3.056554    1.791273
     20          1           0       -4.001156    4.184261    0.437564
     21          6           0        2.634088   -0.530150    0.681154
     22          6           0        2.133501   -1.925904    0.307968
     23          6           0        1.160754   -2.500146    1.338406
     24          1           0        3.122499   -0.573439    1.664275
     25          1           0        1.773014    0.143828    0.789323
     26          1           0        2.995353   -2.596719    0.199180
     27          1           0        1.646394   -1.879325   -0.674465
     28          1           0        0.282964   -1.854030    1.441450
     29          1           0        1.639588   -2.575500    2.320058
     30          1           0        0.815463   -3.498402    1.051840
     31          6           0        3.607387    0.057286   -0.339304
     32          6           0        4.107975    1.453040    0.033883
     33          6           0        5.080721    2.027283   -0.996555
     34          1           0        4.468461   -0.616693   -0.447472
     35          1           0        3.118976    0.100575   -1.322424
     36          1           0        4.595082    1.406462    1.016316
     37          1           0        3.246122    2.123855    0.142671
     38          1           0        4.601888    2.102635   -1.978207
     39          1           0        5.958511    1.381166   -1.099598
     40          1           0        5.426013    3.025538   -0.709989
 ---------------------------------------------------------------------

 SCF Done:  E(RHF) =  -470.733131664     A.U. after   11 cycles
 E2 =    -0.1582933284D+01 EUMP2 =    -0.47231606494757D+03

 The electronic state is 1-A.
 Alpha  occ. eigenvalues --  -11.21633 -11.21624 -11.21617 -11.21586 -11.21438
 Alpha  occ. eigenvalues --  -11.21431 -11.21373 -11.21372 -11.21097 -11.21090
 Alpha  occ. eigenvalues --  -11.21075 -11.21013  -1.08469  -1.08439  -1.03579
 Alpha  occ. eigenvalues --   -1.03511  -0.96018  -0.95967  -0.87031  -0.86987
 Alpha  occ. eigenvalues --   -0.79675  -0.79548  -0.78301  -0.78237  -0.65183
 Alpha  occ. eigenvalues --   -0.65002  -0.61119  -0.60795  -0.59393  -0.59325
 Alpha  occ. eigenvalues --   -0.57613  -0.57597  -0.55358  -0.55207  -0.52708
 Alpha  occ. eigenvalues --   -0.52658  -0.52466  -0.52368  -0.50039  -0.49867
 Alpha  occ. eigenvalues --   -0.48041  -0.47804  -0.46741  -0.46549  -0.45910
 Alpha  occ. eigenvalues --   -0.45773  -0.45750  -0.45553  -0.43806  -0.43795
 Alpha virt. eigenvalues --    0.20604   0.23318   0.23490   0.24735   0.25918
 Alpha virt. eigenvalues --    0.26760   0.27116   0.27354   0.28276   0.29083
 Alpha virt. eigenvalues --    0.30411   0.31230   0.31528   0.31875   0.32538

 Mulliken charges:
               1
     1  C   -0.297840
     2  C   -0.305317
     3  C   -0.475644
     4  H    0.149767
     5  H    0.149184
     6  H    0.152034
     7  H    0.158543
     8  H    0.154742
     9  H    0.155185
    10  H    0.160753
    11  C   -0.298380
    12  C   -0.299610
    13  C   -0.475709
    14  H    0.149810
    15  H    0.148380
    16  H    0.152208
    17  H    0.151893
    18  H    0.155020
    19  H    0.155345
    20  H    0.160387
    21  C   -0.298234
    22  C   -0.301163
    23  C   -0.479429
    24  H    0.150050
    25  H    0.148687
    26  H    0.152240
    27  H    0.151906
    28  H    0.160206
    29  H    0.155011
    30  H    0.159921
    31  C   -0.298282
    32  C   -0.299618
    33  C   -0.475714
    34  H    0.149735
    35  H    0.149392
    36  H    0.152111
    37  H    0.151701
    38  H    0.155106
    39  H    0.155275
    40  H    0.160348
 Sum of Mulliken charges =  -0.00000

 Dipole moment (field-independent basis, Debye):
    X=             -0.0098    Y=             -0.0070    Z=              0.0092  Tot=              0.0152
 Quadrupole moment (field-independent basis, Debye-Ang):
   XX=            -83.9593   YY=            -85.7562   ZZ=            -84.9908
   XY=             -0.5624   XZ=              0.3418   YZ=             -0.5604

 Normal termination of Gaussian 16 at Wed May  5 21:33:55 2021.
