 Gaussian 16, Revision A.03,
 Gaussian 16:  EM64L-G16RevA.03 25-Dec-2016

 -------------
 #p 6-31g* mp2
 -------------

 ------------------------------------------------------
 Input file generated by CHIRIPA (05-May-2021 14:53:16)
 ------------------------------------------------------
 Symbolic Z-matrix:
 Charge =  0 Multiplicity = 1

                         Standard orientation:
 ---------------------------------------------------------------------
 Center     Atomic      Atomic             Coordinates (Angstroms)
 Number     Number       Type             X           Y           Z
 ---------------------------------------------------------------------
      1          6           0       -5.087777   -0.094117    0.309969
      2          6           0       -5.753288    0.968406   -0.565316
      3          6           0       -7.274726    0.989898   -0.415114
      4          1           0       -5.497006   -1.080728    0.052921
      5          1           0       -5.350843    0.089229    1.360957
      6          1           0       -5.487920    0.783928   -1.614203
      7          1           0       -5.342288    1.952581   -0.306287
      8          1           0       -7.556524    1.196684    0.622398
      9          1           0       -7.702983    0.021392   -0.692949
     10          1           0       -7.729989    1.756725   -1.049599
     11          6           0       -3.566849   -0.127918    0.170822
     12          6           0       -2.901338   -1.190441    1.046108
     13          6           0       -1.379900   -1.211933    0.895905
     14          1           0       -3.303783   -0.311263   -0.880166
     15          1           0       -3.157619    0.858694    0.427870
     16          1           0       -3.312338   -2.174615    0.787079
     17          1           0       -3.166706   -1.005963    2.094994
     18          1           0       -0.951643   -0.243427    1.173740
     19          1           0       -1.098102   -1.418719   -0.141607
     20          1           0       -0.924637   -1.978760    1.530390
     21          6           0        2.517218   -2.217449   -0.745526
     22          6           0        1.764634   -1.087459   -1.082068
     23          6           0        2.233252    0.194116   -0.777913
     24          6           0        3.464193    0.309492   -0.133891
     25          6           0        4.237217   -0.797050    0.214372
     26          6           0        3.748936   -2.068900   -0.099519
     27          1           0        2.145546   -3.209230   -0.985582
     28          1           0        0.807719   -1.199806   -1.583801
     29          1           0        1.671105    1.085942   -1.027020
     30          1           0        5.187464   -0.653260    0.714144
     31          1           0        4.335549   -2.944682    0.163043
     32          7           0        3.970707    1.661091    0.193257
     33          8           0        5.058251    1.735891    0.760962
     34          8           0        3.270576    2.620080   -0.124224
 ---------------------------------------------------------------------

 SCF Done:  E(RHF) =  -669.534969136     A.U. after   15 cycles
 E2 =    -0.2091541407D+01 EUMP2 =    -0.67162651054238D+03

 The electronic state is 1-A.
 Alpha  occ. eigenvalues --  -20.60733 -20.60728 -15.85786 -11.31141 -11.27700
 Alpha  occ. eigenvalues --  -11.27692 -11.27440 -11.26727 -11.26702 -11.22075
 Alpha  occ. eigenvalues --  -11.21866 -11.21825 -11.21700 -11.21697 -11.21281
 Alpha  occ. eigenvalues --   -1.59809  -1.39362  -1.19310  -1.08821  -1.08707
 Alpha  occ. eigenvalues --   -1.04715  -1.03923  -0.96387  -0.95544  -0.87414
 Alpha  occ. eigenvalues --   -0.86109  -0.82380  -0.79994  -0.78625  -0.77425
 Alpha  occ. eigenvalues --   -0.72005  -0.71131  -0.70417  -0.65462  -0.64963
 Alpha  occ. eigenvalues --   -0.64740  -0.62100  -0.61303  -0.59752  -0.57991
 Alpha  occ. eigenvalues --   -0.55703  -0.55207  -0.53276  -0.52999  -0.52893
 Alpha  occ. eigenvalues --   -0.52569  -0.50317  -0.48765  -0.48760  -0.48295
 Alpha  occ. eigenvalues --   -0.47017  -0.46166  -0.46082  -0.44770  -0.44173
 Alpha  occ. eigenvalues --   -0.37278  -0.36275
 Alpha virt. eigenvalues --    0.05102   0.11288   0.16572   0.20545   0.22626
 Alpha virt. eigenvalues --    0.23943   0.25655   0.26533   0.27319   0.28271
 Alpha virt. eigenvalues --    0.28765   0.29911   0.31338   0.31624   0.32115

 Mulliken charges:
               1
     1  C   -0.298426
     2  C   -0.300042
     3  C   -0.475943
     4  H    0.149405
     5  H    0.151144
     6  H    0.151183
     7  H    0.153495
     8  H    0.156030
     9  H    0.154972
    10  H    0.161313
    11  C   -0.298529
    12  C   -0.300567
    13  C   -0.473903
    14  H    0.145536
    15  H    0.151992
    16  H    0.151167
    17  H    0.154979
    18  H    0.159689
    19  H    0.142875
    20  H    0.161688
    21  C   -0.172210
    22  C   -0.212385
    23  C   -0.172473
    24  C    0.158432
    25  C   -0.171203
    26  C   -0.218486
    27  H    0.225324
    28  H    0.224150
    29  H    0.275490
    30  H    0.275321
    31  H    0.223142
    32  N    0.488075
    33  O   -0.460581
    34  O   -0.460652
 Sum of Mulliken charges =  -0.00000

 Dipole moment (field-independent basis, Debye):
    X=             -1.8668    Y=             -4.7446    Z=             -1.0889  Tot=              5.2136
 Quadrupole moment (field-independent basis, Debye-Ang):
   XX=           -104.9898   YY=            -97.0381   ZZ=            -93.7221
   XY=            -19.0845   XZ=             -1.9270   YZ=             -0.1471

 Normal termination of Gaussian 16 at Thu May  6 05:56:37 2021.
