 Gaussian 16, Revision A.03,
 Gaussian 16:  EM64L-G16RevA.03 25-Dec-2016

 -------------
 #p 6-31g* mp2
 -------------

 ------------------------------------------------------
 Input file generated by CHIRIPA (05-May-2021 14:57:23)
 ------------------------------------------------------
 Symbolic Z-matrix:
 Charge =  0 Multiplicity = 1

                         Standard orientation:
 ---------------------------------------------------------------------
 Center     Atomic      Atomic             Coordinates (Angstroms)
 Number     Number       Type             X           Y           Z
 ---------------------------------------------------------------------
      1          6           0        1.569717    1.840460    1.300097
      2          6           0        2.597103    2.156610    0.405085
      3          6           0        3.374913    1.146403   -0.168536
      4          6           0        3.096629   -0.175200    0.176734
      5          6           0        2.079996   -0.522119    1.065214
      6          6           0        1.314891    0.504459    1.626729
      7          1           0        0.970430    2.631572    1.740997
      8          1           0        2.797260    3.193288    0.149583
      9          1           0        4.176439    1.362983   -0.864287
     10          1           0        1.904246   -1.564776    1.300576
     11          1           0        0.517655    0.255980    2.321507
     12          7           0        3.913337   -1.253327   -0.424125
     13          8           0        3.648095   -2.409856   -0.103618
     14          8           0        4.803250   -0.921419   -1.204207
     15          6           0       -4.339861   -2.012642    0.377518
     16          6           0       -4.918191   -0.739050    0.373103
     17          6           0       -4.164272    0.381839    0.012882
     18          6           0       -2.828821    0.191846   -0.338920
     19          6           0       -2.224044   -1.064141   -0.344283
     20          6           0       -2.997000   -2.170843    0.019442
     21          1           0       -4.932918   -2.877865    0.658707
     22          1           0       -5.960845   -0.613195    0.650731
     23          1           0       -4.586785    1.379215    0.000850
     24          1           0       -1.182262   -1.158051   -0.625869
     25          1           0       -2.545218   -3.158736    0.021968
     26          7           0       -2.020604    1.370972   -0.722125
     27          8           0       -0.846107    1.176951   -1.027983
     28          8           0       -2.576924    2.466865   -0.709367
 ---------------------------------------------------------------------

 SCF Done:  E(RHF) =  -868.338240159     A.U. after   16 cycles
 E2 =    -0.2600917481D+01 EUMP2 =    -0.87093915764008D+03

 The electronic state is 1-A.
 Alpha  occ. eigenvalues --  -20.61360 -20.61281 -20.60303 -20.60278 -15.86336
 Alpha  occ. eigenvalues --  -15.85341 -11.31647 -11.30463 -11.28206 -11.28169
 Alpha  occ. eigenvalues --  -11.27908 -11.27192 -11.27162 -11.27106 -11.26978
 Alpha  occ. eigenvalues --  -11.26664 -11.26042 -11.25888  -1.60401  -1.59374
 Alpha  occ. eigenvalues --   -1.39950  -1.38937  -1.19809  -1.18598  -1.09215
 Alpha  occ. eigenvalues --   -1.08025  -1.05189  -1.04005  -0.96060  -0.94917
 Alpha  occ. eigenvalues --   -0.86586  -0.85420  -0.82885  -0.81785  -0.77947
 Alpha  occ. eigenvalues --   -0.76877  -0.72573  -0.71744  -0.71570  -0.70893
 Alpha  occ. eigenvalues --   -0.70692  -0.69728  -0.65451  -0.65175  -0.64282
 Alpha  occ. eigenvalues --   -0.64043  -0.62527  -0.61401  -0.55680  -0.54484
 Alpha  occ. eigenvalues --   -0.53542  -0.53267  -0.52275  -0.52133  -0.49349
 Alpha  occ. eigenvalues --   -0.49324  -0.48338  -0.48301  -0.45367  -0.44400
 Alpha  occ. eigenvalues --   -0.37794  -0.36805  -0.36399  -0.35560
 Alpha virt. eigenvalues --    0.04545   0.05681   0.10826   0.12076   0.16065
 Alpha virt. eigenvalues --    0.17257   0.21029   0.22089   0.26861   0.27682
 Alpha virt. eigenvalues --    0.28131   0.29057   0.30634   0.31598   0.32076

 Mulliken charges:
               1
     1  C   -0.154397
     2  C   -0.212295
     3  C   -0.169289
     4  C    0.159468
     5  C   -0.176418
     6  C   -0.215123
     7  H    0.226441
     8  H    0.223770
     9  H    0.273630
    10  H    0.267293
    11  H    0.216390
    12  N    0.488168
    13  O   -0.466674
    14  O   -0.460858
    15  C   -0.170602
    16  C   -0.218671
    17  C   -0.171790
    18  C    0.155944
    19  C   -0.175022
    20  C   -0.219704
    21  H    0.227550
    22  H    0.224626
    23  H    0.275462
    24  H    0.278722
    25  H    0.226945
    26  N    0.485568
    27  O   -0.455664
    28  O   -0.463470
 Sum of Mulliken charges =  -0.00000

 Dipole moment (field-independent basis, Debye):
    X=             -5.8709    Y=             -0.1291    Z=              3.3793  Tot=              6.7752
 Quadrupole moment (field-independent basis, Debye-Ang):
   XX=           -103.0404   YY=           -104.1447   ZZ=           -105.2199
   XY=             24.0581   XZ=              0.7723   YZ=              0.6253

 Normal termination of Gaussian 16 at Thu May  6 22:42:44 2021.
