 Gaussian 16, Revision A.03,
 Gaussian 16:  EM64L-G16RevA.03 25-Dec-2016

 -------------
 #p 6-31g* mp2
 -------------

 ------------------------------------------------------
 Input file generated by CHIRIPA (05-May-2021 14:51:10)
 ------------------------------------------------------
 Symbolic Z-matrix:
 Charge =  0 Multiplicity = 1

                         Standard orientation:
 ---------------------------------------------------------------------
 Center     Atomic      Atomic             Coordinates (Angstroms)
 Number     Number       Type             X           Y           Z
 ---------------------------------------------------------------------
      1          6           0       -2.452031    1.165057   -0.409411
      2          6           0       -1.371901    1.871107    0.410831
      3          6           0       -0.428479    2.710057   -0.451672
      4          1           0       -1.971988    0.523432   -1.160957
      5          1           0       -3.031285    1.916334   -0.963886
      6          1           0       -0.795745    1.118828    0.964669
      7          1           0       -1.854571    2.510979    1.160637
      8          1           0       -0.985315    3.481616   -0.993181
      9          1           0        0.079528    2.081555   -1.190263
     10          1           0        0.335754    3.205923    0.154896
     11          6           0       -3.402944    0.322422    0.438798
     12          6           0       -4.483075   -0.383628   -0.381443
     13          6           0       -5.426497   -1.222578    0.481060
     14          1           0       -2.823691   -0.428855    0.993274
     15          1           0       -3.882987    0.964047    1.190344
     16          1           0       -4.000405   -1.023500   -1.131250
     17          1           0       -5.059231    0.368650   -0.935281
     18          1           0       -5.934503   -0.594076    1.219651
     19          1           0       -4.869661   -1.994137    1.022568
     20          1           0       -6.190730   -1.718445   -0.125509
     21          6           0        3.690355   -0.774756   -0.037146
     22          6           0        4.361028    0.564020    0.272468
     23          6           0        5.887236    0.485903    0.223676
     24          1           0        4.043424   -1.528901    0.679479
     25          1           0        4.009377   -1.115359   -1.031938
     26          1           0        4.039754    0.902669    1.265803
     27          1           0        4.006175    1.315111   -0.444858
     28          1           0        6.225366    0.172005   -0.769168
     29          1           0        6.259136   -0.242780    0.951214
     30          1           0        6.346147    1.453850    0.448040
     31          6           0        2.164621   -0.712722    0.007759
     32          6           0        1.493948   -2.051498   -0.301855
     33          6           0       -0.032260   -1.973382   -0.253063
     34          1           0        1.845598   -0.372119    1.002551
     35          1           0        1.811551    0.041423   -0.708866
     36          1           0        1.848801   -2.802590    0.415471
     37          1           0        1.815221   -2.390148   -1.295191
     38          1           0       -0.404159   -1.244698   -0.980602
     39          1           0       -0.370390   -1.659484    0.739780
     40          1           0       -0.491171   -2.941329   -0.477427
 ---------------------------------------------------------------------

 SCF Done:  E(RHF) =  -470.732603719     A.U. after   11 cycles
 E2 =    -0.1584812326D+01 EUMP2 =    -0.47231741604460D+03

 The electronic state is 1-A.
 Alpha  occ. eigenvalues --  -11.21677 -11.21616 -11.21525 -11.21501 -11.21452
 Alpha  occ. eigenvalues --  -11.21390 -11.21305 -11.21245 -11.21165 -11.21083
 Alpha  occ. eigenvalues --  -11.21021 -11.21013  -1.08494  -1.08334  -1.03593
 Alpha  occ. eigenvalues --   -1.03446  -0.96062  -0.95887  -0.87071  -0.86915
 Alpha  occ. eigenvalues --   -0.79655  -0.79518  -0.78299  -0.78169  -0.65148
 Alpha  occ. eigenvalues --   -0.64972  -0.61026  -0.60841  -0.59379  -0.59275
 Alpha  occ. eigenvalues --   -0.57663  -0.57525  -0.55424  -0.55143  -0.52728
 Alpha  occ. eigenvalues --   -0.52607  -0.52486  -0.52279  -0.50135  -0.49709
 Alpha  occ. eigenvalues --   -0.48041  -0.47787  -0.46855  -0.46509  -0.45983
 Alpha  occ. eigenvalues --   -0.45850  -0.45470  -0.45354  -0.43836  -0.43702
 Alpha virt. eigenvalues --    0.20020   0.22651   0.23690   0.24072   0.25245
 Alpha virt. eigenvalues --    0.25945   0.26562   0.27728   0.29146   0.29872
 Alpha virt. eigenvalues --    0.30765   0.31160   0.31509   0.31858   0.31925

 Mulliken charges:
               1
     1  C   -0.300617
     2  C   -0.303188
     3  C   -0.476534
     4  H    0.152185
     5  H    0.149162
     6  H    0.155993
     7  H    0.151438
     8  H    0.154682
     9  H    0.155182
    10  H    0.160375
    11  C   -0.300667
    12  C   -0.299647
    13  C   -0.475710
    14  H    0.152855
    15  H    0.149024
    16  H    0.152299
    17  H    0.151492
    18  H    0.154882
    19  H    0.155247
    20  H    0.159934
    21  C   -0.298275
    22  C   -0.299780
    23  C   -0.475744
    24  H    0.149743
    25  H    0.149588
    26  H    0.151924
    27  H    0.152527
    28  H    0.155201
    29  H    0.155145
    30  H    0.160403
    31  C   -0.302761
    32  C   -0.299842
    33  C   -0.481771
    34  H    0.150219
    35  H    0.153825
    36  H    0.152197
    37  H    0.152074
    38  H    0.159539
    39  H    0.156887
    40  H    0.160513
 Sum of Mulliken charges =  -0.00000

 Dipole moment (field-independent basis, Debye):
    X=              0.0441    Y=             -0.0286    Z=              0.0040  Tot=              0.0527
 Quadrupole moment (field-independent basis, Debye-Ang):
   XX=            -86.3402   YY=            -84.5798   ZZ=            -84.0095
   XY=             -1.0524   XZ=              0.3060   YZ=              0.1840

 Normal termination of Gaussian 16 at Wed May  5 21:25:37 2021.
