 Gaussian 16, Revision A.03,
 Gaussian 16:  EM64L-G16RevA.03 25-Dec-2016

 -------------
 #p 6-31g* mp2
 -------------

 ------------------------------------------------------
 Input file generated by CHIRIPA (05-May-2021 14:51:13)
 ------------------------------------------------------
 Symbolic Z-matrix:
 Charge =  0 Multiplicity = 1

                         Standard orientation:
 ---------------------------------------------------------------------
 Center     Atomic      Atomic             Coordinates (Angstroms)
 Number     Number       Type             X           Y           Z
 ---------------------------------------------------------------------
      1          6           0       -2.788277    0.970815    0.069653
      2          6           0       -3.425479    2.357798   -0.021098
      3          6           0       -2.481642    3.472667    0.430603
      4          1           0       -2.470727    0.787224    1.105221
      5          1           0       -1.877314    0.952572   -0.544519
      6          1           0       -4.335721    2.373001    0.591963
      7          1           0       -3.741723    2.538032   -1.056531
      8          1           0       -1.577958    3.486288   -0.187274
      9          1           0       -2.175332    3.320320    1.470586
     10          1           0       -2.957398    4.455613    0.357577
     11          6           0       -3.719518   -0.154199   -0.378524
     12          6           0       -3.082317   -1.541183   -0.287773
     13          6           0       -4.026154   -2.656052   -0.739474
     14          1           0       -4.630481   -0.135956    0.235649
     15          1           0       -4.037069    0.029392   -1.414092
     16          1           0       -2.766073   -1.721416    0.747660
     17          1           0       -2.172074   -1.556386   -0.900833
     18          1           0       -4.332463   -2.503704   -1.779457
     19          1           0       -4.929837   -2.669673   -0.121597
     20          1           0       -3.550397   -3.638998   -0.666448
     21          6           0        2.829882   -0.754282    0.687300
     22          6           0        1.418619   -1.098525    0.209995
     23          6           0        0.582536   -1.790217    1.287178
     24          1           0        3.335214   -1.674454    1.011134
     25          1           0        2.762302   -0.106708    1.572442
     26          1           0        1.488847   -1.744130   -0.674809
     27          1           0        0.916655   -0.177453   -0.112919
     28          1           0        0.482812   -1.148561    2.168616
     29          1           0        1.058255   -2.724140    1.603533
     30          1           0       -0.422568   -2.027290    0.924658
     31          6           0        3.677914   -0.062334   -0.378430
     32          6           0        5.089176    0.281910    0.098875
     33          6           0        5.925259    0.973602   -0.978307
     34          1           0        3.745493   -0.709908   -1.263571
     35          1           0        3.172581    0.857838   -0.702263
     36          1           0        5.591139   -0.639162    0.421790
     37          1           0        5.018948    0.927516    0.983680
     38          1           0        5.449541    1.907525   -1.294663
     39          1           0        6.024984    0.331947   -1.859745
     40          1           0        6.930364    1.210675   -0.615788
 ---------------------------------------------------------------------

 SCF Done:  E(RHF) =  -470.732824473     A.U. after   11 cycles
 E2 =    -0.1583454300D+01 EUMP2 =    -0.47231627877337D+03

 The electronic state is 1-A.
 Alpha  occ. eigenvalues --  -11.21635 -11.21632 -11.21576 -11.21531 -11.21439
 Alpha  occ. eigenvalues --  -11.21379 -11.21364 -11.21301 -11.21106 -11.21103
 Alpha  occ. eigenvalues --  -11.21053 -11.20879  -1.08475  -1.08377  -1.03582
 Alpha  occ. eigenvalues --   -1.03460  -0.96015  -0.95916  -0.87049  -0.86922
 Alpha  occ. eigenvalues --   -0.79690  -0.79500  -0.78301  -0.78192  -0.65099
 Alpha  occ. eigenvalues --   -0.65011  -0.60970  -0.60864  -0.59575  -0.59150
 Alpha  occ. eigenvalues --   -0.57678  -0.57476  -0.55299  -0.55202  -0.52801
 Alpha  occ. eigenvalues --   -0.52605  -0.52441  -0.52290  -0.49956  -0.49859
 Alpha  occ. eigenvalues --   -0.48099  -0.47682  -0.46672  -0.46587  -0.45848
 Alpha  occ. eigenvalues --   -0.45781  -0.45705  -0.45585  -0.43837  -0.43644
 Alpha virt. eigenvalues --    0.21393   0.23183   0.23743   0.24262   0.25590
 Alpha virt. eigenvalues --    0.26487   0.26900   0.27743   0.27995   0.29465
 Alpha virt. eigenvalues --    0.30323   0.31071   0.31622   0.31745   0.32051

 Mulliken charges:
               1
     1  C   -0.300786
     2  C   -0.299627
     3  C   -0.475676
     4  H    0.150577
     5  H    0.151265
     6  H    0.152114
     7  H    0.152043
     8  H    0.154833
     9  H    0.155158
    10  H    0.160448
    11  C   -0.297590
    12  C   -0.305839
    13  C   -0.475373
    14  H    0.149644
    15  H    0.149703
    16  H    0.155596
    17  H    0.154437
    18  H    0.155339
    19  H    0.155376
    20  H    0.160434
    21  C   -0.298203
    22  C   -0.300770
    23  C   -0.484251
    24  H    0.149544
    25  H    0.149532
    26  H    0.150846
    27  H    0.153139
    28  H    0.153615
    29  H    0.153659
    30  H    0.171446
    31  C   -0.298183
    32  C   -0.299596
    33  C   -0.475674
    34  H    0.149265
    35  H    0.149339
    36  H    0.151898
    37  H    0.151953
    38  H    0.155103
    39  H    0.155076
    40  H    0.160187
 Sum of Mulliken charges =  -0.00000

 Dipole moment (field-independent basis, Debye):
    X=             -0.0707    Y=              0.0001    Z=             -0.0092  Tot=              0.0713
 Quadrupole moment (field-independent basis, Debye-Ang):
   XX=            -85.3967   YY=            -85.0423   ZZ=            -84.3283
   XY=             -1.0944   XZ=             -0.1523   YZ=              0.3113

 Normal termination of Gaussian 16 at Wed May  5 18:24:06 2021.
