 Gaussian 16, Revision A.03,
 Gaussian 16:  EM64L-G16RevA.03 25-Dec-2016

 -------------
 #p 6-31g* mp2
 -------------

 ------------------------------------------------------
 Input file generated by CHIRIPA (05-May-2021 14:51:13)
 ------------------------------------------------------
 Symbolic Z-matrix:
 Charge =  0 Multiplicity = 1

                         Standard orientation:
 ---------------------------------------------------------------------
 Center     Atomic      Atomic             Coordinates (Angstroms)
 Number     Number       Type             X           Y           Z
 ---------------------------------------------------------------------
      1          6           0        2.461694   -0.899075   -0.148999
      2          6           0        1.981793   -1.916576    0.886555
      3          6           0        0.701118   -2.634826    0.460196
      4          1           0        1.666844   -0.161254   -0.324436
      5          1           0        2.629093   -1.411784   -1.106340
      6          1           0        1.816673   -1.402351    1.842026
      7          1           0        2.777949   -2.651951    1.059690
      8          1           0        0.856219   -3.173075   -0.480460
      9          1           0       -0.110518   -1.916376    0.306322
     10          1           0        0.375875   -3.357577    1.214986
     11          6           0        3.741002   -0.172840    0.262926
     12          6           0        4.220903    0.844661   -0.772628
     13          6           0        5.501578    1.562911   -0.346268
     14          1           0        3.573602    0.339868    1.220268
     15          1           0        4.535851   -0.910662    0.438364
     16          1           0        3.424747    1.580035   -0.945762
     17          1           0        4.386022    0.330436   -1.728098
     18          1           0        6.313213    0.844460   -0.192394
     19          1           0        5.346476    2.101160    0.594387
     20          1           0        5.826821    2.285661   -1.101059
     21          6           0       -2.970898   -0.200685    0.097220
     22          6           0       -3.838231   -1.154986   -0.724382
     23          6           0       -3.565702   -2.625123   -0.404662
     24          1           0       -1.911816   -0.427255   -0.087052
     25          1           0       -3.148240   -0.383403    1.166125
     26          1           0       -3.660334   -0.969576   -1.791430
     27          1           0       -4.895369   -0.925991   -0.538278
     28          1           0       -3.761655   -2.832225    0.652367
     29          1           0       -2.519602   -2.876058   -0.607905
     30          1           0       -4.196475   -3.289756   -1.003201
     31          6           0       -3.231797    1.272600   -0.211149
     32          6           0       -2.364465    2.226901    0.610454
     33          6           0       -2.636993    3.697038    0.290735
     34          1           0       -3.054456    1.455319   -1.280053
     35          1           0       -4.290879    1.499171   -0.026875
     36          1           0       -1.307326    1.997907    0.424351
     37          1           0       -2.542361    2.041492    1.677503
     38          1           0       -3.683093    3.947974    0.493977
     39          1           0       -2.441040    3.904141   -0.766295
     40          1           0       -2.006219    4.361671    0.889273
 ---------------------------------------------------------------------

 SCF Done:  E(RHF) =  -470.733156583     A.U. after   11 cycles
 E2 =    -0.1583192894D+01 EUMP2 =    -0.47231634947603D+03

 The electronic state is 1-A.
 Alpha  occ. eigenvalues --  -11.21647 -11.21620 -11.21609 -11.21586 -11.21432
 Alpha  occ. eigenvalues --  -11.21426 -11.21371 -11.21367 -11.21104 -11.21083
 Alpha  occ. eigenvalues --  -11.21047 -11.20994  -1.08462  -1.08437  -1.03558
 Alpha  occ. eigenvalues --   -1.03518  -0.95996  -0.95977  -0.87016  -0.86993
 Alpha  occ. eigenvalues --   -0.79666  -0.79545  -0.78321  -0.78211  -0.65162
 Alpha  occ. eigenvalues --   -0.65010  -0.61015  -0.60865  -0.59362  -0.59352
 Alpha  occ. eigenvalues --   -0.57604  -0.57591  -0.55325  -0.55234  -0.52694
 Alpha  occ. eigenvalues --   -0.52672  -0.52433  -0.52391  -0.50007  -0.49886
 Alpha  occ. eigenvalues --   -0.48058  -0.47820  -0.46771  -0.46566  -0.45978
 Alpha  occ. eigenvalues --   -0.45758  -0.45751  -0.45381  -0.43798  -0.43791
 Alpha virt. eigenvalues --    0.20902   0.23084   0.23569   0.24399   0.25498
 Alpha virt. eigenvalues --    0.26702   0.27097   0.27313   0.28272   0.29347
 Alpha virt. eigenvalues --    0.30746   0.31113   0.31703   0.31882   0.32013

 Mulliken charges:
               1
     1  C   -0.298454
     2  C   -0.299720
     3  C   -0.484354
     4  H    0.148524
     5  H    0.149549
     6  H    0.152271
     7  H    0.152004
     8  H    0.154543
     9  H    0.163619
    10  H    0.161121
    11  C   -0.298318
    12  C   -0.299648
    13  C   -0.475724
    14  H    0.149744
    15  H    0.149856
    16  H    0.151790
    17  H    0.151908
    18  H    0.155232
    19  H    0.155270
    20  H    0.160297
    21  C   -0.305432
    22  C   -0.299343
    23  C   -0.479514
    24  H    0.155558
    25  H    0.149595
    26  H    0.151709
    27  H    0.151845
    28  H    0.154832
    29  H    0.160861
    30  H    0.159829
    31  C   -0.297584
    32  C   -0.299620
    33  C   -0.475727
    34  H    0.149619
    35  H    0.149964
    36  H    0.150849
    37  H    0.152076
    38  H    0.155426
    39  H    0.155322
    40  H    0.160224
 Sum of Mulliken charges =  -0.00000

 Dipole moment (field-independent basis, Debye):
    X=             -0.0039    Y=             -0.0072    Z=              0.0062  Tot=              0.0103
 Quadrupole moment (field-independent basis, Debye-Ang):
   XX=            -84.8030   YY=            -85.8291   ZZ=            -84.0805
   XY=             -0.9065   XZ=             -0.9491   YZ=              0.3815

 Normal termination of Gaussian 16 at Thu May  6 02:21:04 2021.
