 Gaussian 16, Revision A.03,
 Gaussian 16:  EM64L-G16RevA.03 25-Dec-2016

 -------------
 #p 6-31g* mp2
 -------------

 ------------------------------------------------------
 Input file generated by CHIRIPA (05-May-2021 14:57:26)
 ------------------------------------------------------
 Symbolic Z-matrix:
 Charge =  0 Multiplicity = 1

                         Standard orientation:
 ---------------------------------------------------------------------
 Center     Atomic      Atomic             Coordinates (Angstroms)
 Number     Number       Type             X           Y           Z
 ---------------------------------------------------------------------
      1          6           0        4.110909   -1.944307    0.088112
      2          6           0        2.721758   -1.781071    0.099760
      3          6           0        2.155957   -0.505716    0.010945
      4          6           0        3.012841    0.589316   -0.088782
      5          6           0        4.400702    0.459199   -0.102971
      6          6           0        4.944477   -0.825623   -0.013038
      7          1           0        4.541882   -2.938710    0.157540
      8          1           0        2.071958   -2.648048    0.178218
      9          1           0        1.083890   -0.350650    0.017683
     10          1           0        5.022747    1.342488   -0.182206
     11          1           0        6.023663   -0.949387   -0.022323
     12          7           0        2.425511    1.944488   -0.183399
     13          8           0        3.202130    2.893135   -0.270394
     14          8           0        1.199664    2.032365   -0.168773
     15          6           0       -1.284468   -2.103310    0.200901
     16          6           0       -2.156189   -2.082916   -0.892812
     17          6           0       -3.171109   -1.124853   -0.974062
     18          6           0       -3.286091   -0.198007    0.060842
     19          6           0       -2.433175   -0.192482    1.163472
     20          6           0       -1.425494   -1.159692    1.223749
     21          1           0       -0.498866   -2.851109    0.255872
     22          1           0       -2.049027   -2.814511   -1.688631
     23          1           0       -3.859733   -1.086259   -1.809362
     24          1           0       -2.564876    0.549774    1.941372
     25          1           0       -0.749947   -1.173142    2.074337
     26          7           0       -4.356709    0.821092   -0.014073
     27          8           0       -4.437003    1.626699    0.910691
     28          8           0       -5.095292    0.794960   -0.996136
 ---------------------------------------------------------------------

 SCF Done:  E(RHF) =  -868.335916394     A.U. after   16 cycles
 E2 =    -0.2602295680D+01 EUMP2 =    -0.87093821207443D+03

 The electronic state is 1-A.
 Alpha  occ. eigenvalues --  -20.61100 -20.61094 -20.60734 -20.60717 -15.86159
 Alpha  occ. eigenvalues --  -15.85788 -11.31647 -11.31390 -11.28251 -11.28194
 Alpha  occ. eigenvalues --  -11.28082 -11.27988 -11.27971 -11.27963 -11.27431
 Alpha  occ. eigenvalues --  -11.27273 -11.27131 -11.27122  -1.60175  -1.59793
 Alpha  occ. eigenvalues --   -1.39723  -1.39341  -1.19871  -1.19619  -1.09243
 Alpha  occ. eigenvalues --   -1.09027  -1.05317  -1.05037  -0.96049  -0.95795
 Alpha  occ. eigenvalues --   -0.86713  -0.86449  -0.82908  -0.82593  -0.77924
 Alpha  occ. eigenvalues --   -0.77560  -0.72375  -0.72014  -0.71506  -0.71108
 Alpha  occ. eigenvalues --   -0.71027  -0.70787  -0.65535  -0.65371  -0.65276
 Alpha  occ. eigenvalues --   -0.65070  -0.62685  -0.62336  -0.55852  -0.55668
 Alpha  occ. eigenvalues --   -0.53650  -0.53622  -0.53149  -0.53068  -0.49144
 Alpha  occ. eigenvalues --   -0.49118  -0.48790  -0.48744  -0.45102  -0.44694
 Alpha  occ. eigenvalues --   -0.37865  -0.37673  -0.36950  -0.36576
 Alpha virt. eigenvalues --    0.04606   0.04944   0.10607   0.11032   0.16053
 Alpha virt. eigenvalues --    0.16249   0.18825   0.22080   0.24993   0.26976
 Alpha virt. eigenvalues --    0.27990   0.29322   0.29999   0.31909   0.32446

 Mulliken charges:
               1
     1  C   -0.170045
     2  C   -0.225434
     3  C   -0.181735
     4  C    0.157881
     5  C   -0.168806
     6  C   -0.219196
     7  H    0.226157
     8  H    0.213363
     9  H    0.287999
    10  H    0.277616
    11  H    0.225258
    12  N    0.487237
    13  O   -0.458612
    14  O   -0.458595
    15  C   -0.181625
    16  C   -0.216453
    17  C   -0.168642
    18  C    0.161180
    19  C   -0.160841
    20  C   -0.226670
    21  H    0.219550
    22  H    0.223814
    23  H    0.277762
    24  H    0.281002
    25  H    0.225529
    26  N    0.488372
    27  O   -0.456369
    28  O   -0.459698
 Sum of Mulliken charges =  -0.00000

 Dipole moment (field-independent basis, Debye):
    X=              5.5995    Y=             -8.0369    Z=              0.5891  Tot=              9.8129
 Quadrupole moment (field-independent basis, Debye-Ang):
   XX=           -111.7677   YY=           -109.1144   ZZ=           -101.9240
   XY=              0.5560   XZ=              1.3241   YZ=              2.3229

 Normal termination of Gaussian 16 at Thu May  6 21:23:23 2021.
