 Gaussian 16, Revision A.03,
 Gaussian 16:  EM64L-G16RevA.03 25-Dec-2016

 -------------
 #p 6-31g* mp2
 -------------

 ------------------------------------------------------
 Input file generated by CHIRIPA (05-May-2021 14:57:26)
 ------------------------------------------------------
 Symbolic Z-matrix:
 Charge =  0 Multiplicity = 1

                         Standard orientation:
 ---------------------------------------------------------------------
 Center     Atomic      Atomic             Coordinates (Angstroms)
 Number     Number       Type             X           Y           Z
 ---------------------------------------------------------------------
      1          6           0        1.783070    2.061259    0.474260
      2          6           0        2.309888    1.357484    1.562232
      3          6           0        3.196591    0.295883    1.358985
      4          6           0        3.536449   -0.036527    0.048531
      5          6           0        3.028450    0.645460   -1.056059
      6          6           0        2.143397    1.703631   -0.829116
      7          1           0        1.094898    2.884604    0.641351
      8          1           0        2.031824    1.633011    2.575549
      9          1           0        3.619333   -0.265898    2.183066
     10          1           0        3.324296    0.347505   -2.054616
     11          1           0        1.735824    2.248416   -1.675957
     12          7           0        4.474288   -1.158581   -0.179180
     13          8           0        4.757952   -1.431767   -1.343457
     14          8           0        4.907945   -1.743614    0.810928
     15          6           0       -5.773282   -0.890441    0.224594
     16          6           0       -4.736481   -1.827602    0.282012
     17          6           0       -3.407743   -1.427775    0.111305
     18          6           0       -3.150690   -0.076664   -0.116094
     19          6           0       -4.161807    0.880941   -0.178752
     20          6           0       -5.483147    0.458461   -0.005199
     21          1           0       -6.802604   -1.209836    0.358308
     22          1           0       -4.958842   -2.875840    0.460329
     23          1           0       -2.585788   -2.132215    0.150946
     24          1           0       -3.908946    1.918893   -0.358016
     25          1           0       -6.286317    1.188481   -0.050295
     26          7           0       -1.747930    0.358607   -0.298319
     27          8           0       -1.547809    1.554836   -0.497384
     28          8           0       -0.875131   -0.504698   -0.238633
 ---------------------------------------------------------------------

 SCF Done:  E(RHF) =  -868.339279773     A.U. after   16 cycles
 E2 =    -0.2599920635D+01 EUMP2 =    -0.87093920040747D+03

 The electronic state is 1-A.
 Alpha  occ. eigenvalues --  -20.61564 -20.61493 -20.59558 -20.59547 -15.86554
 Alpha  occ. eigenvalues --  -15.84599 -11.31731 -11.29592 -11.28297 -11.28245
 Alpha  occ. eigenvalues --  -11.27973 -11.27253 -11.27218 -11.26218 -11.26122
 Alpha  occ. eigenvalues --  -11.25739 -11.25130 -11.24974  -1.60588  -1.58638
 Alpha  occ. eigenvalues --   -1.40149  -1.38204  -1.19882  -1.17723  -1.09313
 Alpha  occ. eigenvalues --   -1.07166  -1.05254  -1.03111  -0.96181  -0.94075
 Alpha  occ. eigenvalues --   -0.86660  -0.84527  -0.83019  -0.80956  -0.78088
 Alpha  occ. eigenvalues --   -0.76065  -0.72791  -0.71903  -0.70983  -0.70836
 Alpha  occ. eigenvalues --   -0.69951  -0.68827  -0.65536  -0.65251  -0.63401
 Alpha  occ. eigenvalues --   -0.63152  -0.62601  -0.60517  -0.55762  -0.53617
 Alpha  occ. eigenvalues --   -0.53557  -0.53338  -0.51524  -0.51244  -0.49541
 Alpha  occ. eigenvalues --   -0.49381  -0.47604  -0.47555  -0.45596  -0.43696
 Alpha  occ. eigenvalues --   -0.37852  -0.36849  -0.35547  -0.34669
 Alpha virt. eigenvalues --    0.04410   0.06507   0.10808   0.12986   0.15949
 Alpha virt. eigenvalues --    0.18123   0.20984   0.22973   0.26906   0.27860
 Alpha virt. eigenvalues --    0.28766   0.29868   0.30573   0.32068   0.32515

 Mulliken charges:
               1
     1  C   -0.153951
     2  C   -0.220409
     3  C   -0.170893
     4  C    0.158450
     5  C   -0.169983
     6  C   -0.205995
     7  H    0.226874
     8  H    0.215269
     9  H    0.268837
    10  H    0.269742
    11  H    0.221856
    12  N    0.488289
    13  O   -0.464786
    14  O   -0.466144
    15  C   -0.170075
    16  C   -0.218566
    17  C   -0.170623
    18  C    0.157813
    19  C   -0.171253
    20  C   -0.218510
    21  H    0.227514
    22  H    0.225962
    23  H    0.278048
    24  H    0.273591
    25  H    0.224428
    26  N    0.488766
    27  O   -0.471685
    28  O   -0.452563
 Sum of Mulliken charges =  -0.00000

 Dipole moment (field-independent basis, Debye):
    X=             -8.7880    Y=              2.4259    Z=              1.3569  Tot=              9.2172
 Quadrupole moment (field-independent basis, Debye-Ang):
   XX=            -99.0117   YY=           -101.0112   ZZ=           -101.2253
   XY=             18.4007   XZ=              1.4585   YZ=             -1.2919

 Normal termination of Gaussian 16 at Wed May  5 21:12:29 2021.
