 Gaussian 16, Revision A.03,
 Gaussian 16:  EM64L-G16RevA.03 25-Dec-2016

 -------------
 #p 6-31g* mp2
 -------------

 ------------------------------------------------------
 Input file generated by CHIRIPA (05-May-2021 14:51:09)
 ------------------------------------------------------
 Symbolic Z-matrix:
 Charge =  0 Multiplicity = 1

                         Standard orientation:
 ---------------------------------------------------------------------
 Center     Atomic      Atomic             Coordinates (Angstroms)
 Number     Number       Type             X           Y           Z
 ---------------------------------------------------------------------
      1          6           0        3.951480    0.528874   -0.114666
      2          6           0        4.250843   -0.956393   -0.320454
      3          6           0        5.741800   -1.238431   -0.508318
      4          1           0        4.327324    1.095167   -0.977799
      5          1           0        4.507161    0.889748    0.761909
      6          1           0        3.693680   -1.314689   -1.195560
      7          1           0        3.874071   -1.519238    0.543181
      8          1           0        6.309700   -0.908087    0.367447
      9          1           0        6.128284   -0.702376   -1.381173
     10          1           0        5.933196   -2.306170   -0.653786
     11          6           0        2.465147    0.826746    0.074580
     12          6           0        2.165785    2.312013    0.280368
     13          6           0        0.674827    2.594052    0.468232
     14          1           0        1.909466    0.465872   -0.801995
     15          1           0        2.089303    0.260453    0.937713
     16          1           0        2.542556    2.874858   -0.583267
     17          1           0        2.722947    2.670309    1.155474
     18          1           0        0.288343    2.057996    1.341087
     19          1           0        0.106927    2.263707   -0.407533
     20          1           0        0.483431    3.661791    0.613700
     21          6           0       -3.936405   -0.537669    0.203550
     22          6           0       -4.625982    0.436344   -0.752362
     23          6           0       -6.082037    0.706709   -0.372096
     24          1           0       -4.494661   -1.483749    0.218641
     25          1           0       -3.980663   -0.132316    1.223905
     26          1           0       -4.579221    0.029930   -1.770820
     27          1           0       -4.065910    1.380149   -0.765325
     28          1           0       -6.144397    1.135189    0.633447
     29          1           0       -6.660623   -0.222702   -0.377761
     30          1           0       -6.555761    1.405496   -1.068617
     31          6           0       -2.480222   -0.817952   -0.163464
     32          6           0       -1.790645   -1.791965    0.792448
     33          6           0       -0.334590   -2.062329    0.412183
     34          1           0       -2.435965   -1.223304   -1.183819
     35          1           0       -1.921966    0.128129   -0.178555
     36          1           0       -2.350717   -2.735770    0.805411
     37          1           0       -1.837407   -1.385550    1.810907
     38          1           0        0.243997   -1.132918    0.417848
     39          1           0       -0.272230   -2.490809   -0.593361
     40          1           0        0.139134   -2.761116    1.108704
 ---------------------------------------------------------------------

 SCF Done:  E(RHF) =  -470.732818086     A.U. after   11 cycles
 E2 =    -0.1583682239D+01 EUMP2 =    -0.47231650032476D+03

 The electronic state is 1-A.
 Alpha  occ. eigenvalues --  -11.21665 -11.21582 -11.21553 -11.21505 -11.21428
 Alpha  occ. eigenvalues --  -11.21367 -11.21334 -11.21269 -11.21177 -11.21060
 Alpha  occ. eigenvalues --  -11.21033 -11.20868  -1.08472  -1.08351  -1.03569
 Alpha  occ. eigenvalues --   -1.03445  -0.96033  -0.95886  -0.87059  -0.86897
 Alpha  occ. eigenvalues --   -0.79663  -0.79504  -0.78342  -0.78108  -0.65100
 Alpha  occ. eigenvalues --   -0.64984  -0.60965  -0.60855  -0.59402  -0.59251
 Alpha  occ. eigenvalues --   -0.57715  -0.57452  -0.55317  -0.55191  -0.52731
 Alpha  occ. eigenvalues --   -0.52599  -0.52559  -0.52193  -0.49974  -0.49840
 Alpha  occ. eigenvalues --   -0.48089  -0.47768  -0.46670  -0.46644  -0.45952
 Alpha  occ. eigenvalues --   -0.45732  -0.45664  -0.45253  -0.43818  -0.43705
 Alpha virt. eigenvalues --    0.21107   0.23029   0.23743   0.24795   0.25815
 Alpha virt. eigenvalues --    0.26221   0.26613   0.27354   0.28881   0.29546
 Alpha virt. eigenvalues --    0.30722   0.31276   0.31622   0.31808   0.32315

 Mulliken charges:
               1
     1  C   -0.297459
     2  C   -0.299956
     3  C   -0.475744
     4  H    0.149571
     5  H    0.149346
     6  H    0.152558
     7  H    0.152692
     8  H    0.155032
     9  H    0.155052
    10  H    0.160405
    11  C   -0.303760
    12  C   -0.299027
    13  C   -0.479235
    14  H    0.151936
    15  H    0.153202
    16  H    0.152249
    17  H    0.152102
    18  H    0.155215
    19  H    0.157224
    20  H    0.161065
    21  C   -0.297961
    22  C   -0.299729
    23  C   -0.475645
    24  H    0.149442
    25  H    0.149414
    26  H    0.151611
    27  H    0.152152
    28  H    0.155178
    29  H    0.155052
    30  H    0.160059
    31  C   -0.301883
    32  C   -0.298685
    33  C   -0.484885
    34  H    0.148814
    35  H    0.153346
    36  H    0.151263
    37  H    0.150803
    38  H    0.166901
    39  H    0.153803
    40  H    0.158480
 Sum of Mulliken charges =  -0.00000

 Dipole moment (field-independent basis, Debye):
    X=              0.0703    Y=              0.0485    Z=             -0.0074  Tot=              0.0857
 Quadrupole moment (field-independent basis, Debye-Ang):
   XX=            -86.9868   YY=            -84.4588   ZZ=            -83.4607
   XY=              0.8640   XZ=              0.5987   YZ=              0.2708

 Normal termination of Gaussian 16 at Wed May  5 15:08:52 2021.
