 Gaussian 16, Revision A.03,
 Gaussian 16:  EM64L-G16RevA.03 25-Dec-2016

 -------------
 #p 6-31g* mp2
 -------------

 ------------------------------------------------------
 Input file generated by CHIRIPA (05-May-2021 14:51:08)
 ------------------------------------------------------
 Symbolic Z-matrix:
 Charge =  0 Multiplicity = 1

                         Standard orientation:
 ---------------------------------------------------------------------
 Center     Atomic      Atomic             Coordinates (Angstroms)
 Number     Number       Type             X           Y           Z
 ---------------------------------------------------------------------
      1          6           0        2.689319    0.021231    0.872102
      2          6           0        1.487781   -0.848157    1.244201
      3          6           0        0.584864   -0.192568    2.289542
      4          1           0        3.271911    0.237540    1.778050
      5          1           0        2.330163    0.988089    0.493173
      6          1           0        1.849072   -1.813607    1.621018
      7          1           0        0.908088   -1.062580    0.337231
      8          1           0        0.196543    0.761689    1.919134
      9          1           0        1.142873    0.006396    3.210215
     10          1           0       -0.267702   -0.831185    2.540855
     11          6           0        3.601368   -0.620617   -0.171894
     12          6           0        4.802906    0.248770   -0.543993
     13          6           0        5.705823   -0.406819   -1.589334
     14          1           0        3.960524   -1.587476    0.207035
     15          1           0        3.018776   -0.836927   -1.077842
     16          1           0        5.382599    0.463194    0.362977
     17          1           0        4.441615    1.214220   -0.920809
     18          1           0        5.147813   -0.605782   -2.510007
     19          1           0        6.094144   -1.361076   -1.218926
     20          1           0        6.558389    0.231799   -1.840647
     21          6           0       -3.095536   -0.451505   -0.221058
     22          6           0       -4.322090   -1.231034   -0.696329
     23          6           0       -4.207505   -2.732497   -0.431235
     24          1           0       -2.201158   -0.846538   -0.722040
     25          1           0       -2.953600   -0.625079    0.854637
     26          1           0       -4.462481   -1.054939   -1.770525
     27          1           0       -5.213676   -0.833972   -0.194302
     28          1           0       -4.090710   -2.926774    0.639848
     29          1           0       -3.335247   -3.148996   -0.945331
     30          1           0       -5.095029   -3.270419   -0.778801
     31          6           0       -3.195151    1.050891   -0.479149
     32          6           0       -1.968597    1.830422   -0.003879
     33          6           0       -2.083181    3.331884   -0.268974
     34          1           0       -3.337088    1.224466   -1.554845
     35          1           0       -4.089529    1.445925    0.021832
     36          1           0       -1.077010    1.433359   -0.505907
     37          1           0       -1.828206    1.654326    1.070317
     38          1           0       -2.955440    3.748382    0.245123
     39          1           0       -2.199976    3.526160   -1.340055
     40          1           0       -1.195658    3.869805    0.078592
 ---------------------------------------------------------------------

 SCF Done:  E(RHF) =  -470.732958843     A.U. after   11 cycles
 E2 =    -0.1583407822D+01 EUMP2 =    -0.47231636666464D+03

 The electronic state is 1-A.
 Alpha  occ. eigenvalues --  -11.21619 -11.21618 -11.21594 -11.21548 -11.21429
 Alpha  occ. eigenvalues --  -11.21386 -11.21369 -11.21324 -11.21108 -11.21083
 Alpha  occ. eigenvalues --  -11.21068 -11.20935  -1.08465  -1.08395  -1.03572
 Alpha  occ. eigenvalues --   -1.03477  -0.96005  -0.95940  -0.87033  -0.86949
 Alpha  occ. eigenvalues --   -0.79688  -0.79507  -0.78283  -0.78205  -0.65089
 Alpha  occ. eigenvalues --   -0.65035  -0.60981  -0.60889  -0.59379  -0.59307
 Alpha  occ. eigenvalues --   -0.57683  -0.57488  -0.55306  -0.55226  -0.52711
 Alpha  occ. eigenvalues --   -0.52623  -0.52469  -0.52329  -0.50010  -0.49871
 Alpha  occ. eigenvalues --   -0.48060  -0.47749  -0.46744  -0.46512  -0.45888
 Alpha  occ. eigenvalues --   -0.45779  -0.45653  -0.45523  -0.43809  -0.43745
 Alpha virt. eigenvalues --    0.20780   0.23119   0.23809   0.24330   0.25250
 Alpha virt. eigenvalues --    0.26291   0.26806   0.27922   0.28223   0.29615
 Alpha virt. eigenvalues --    0.30149   0.31193   0.31638   0.31817   0.32086

 Mulliken charges:
               1
     1  C   -0.298845
     2  C   -0.300033
     3  C   -0.481028
     4  H    0.149654
     5  H    0.149535
     6  H    0.151610
     7  H    0.152267
     8  H    0.162793
     9  H    0.153701
    10  H    0.159662
    11  C   -0.298162
    12  C   -0.299626
    13  C   -0.475675
    14  H    0.149579
    15  H    0.149174
    16  H    0.151978
    17  H    0.151832
    18  H    0.155050
    19  H    0.155201
    20  H    0.160229
    21  C   -0.299880
    22  C   -0.299721
    23  C   -0.475675
    24  H    0.149931
    25  H    0.151088
    26  H    0.151913
    27  H    0.152049
    28  H    0.155152
    29  H    0.155232
    30  H    0.160326
    31  C   -0.297947
    32  C   -0.304796
    33  C   -0.475691
    34  H    0.149367
    35  H    0.149791
    36  H    0.151946
    37  H    0.157370
    38  H    0.155501
    39  H    0.155209
    40  H    0.159938
 Sum of Mulliken charges =  -0.00000

 Dipole moment (field-independent basis, Debye):
    X=             -0.0380    Y=              0.0166    Z=              0.0039  Tot=              0.0416
 Quadrupole moment (field-independent basis, Debye-Ang):
   XX=            -84.8460   YY=            -85.9454   ZZ=            -84.0140
   XY=             -0.1264   XZ=              0.5267   YZ=             -0.2798

 Normal termination of Gaussian 16 at Wed May  5 16:35:03 2021.
