 Gaussian 16, Revision A.03,
 Gaussian 16:  EM64L-G16RevA.03 25-Dec-2016

 -------------
 #p 6-31g* mp2
 -------------

 ------------------------------------------------------
 Input file generated by CHIRIPA (05-May-2021 14:55:20)
 ------------------------------------------------------
 Symbolic Z-matrix:
 Charge =  0 Multiplicity = 1

                         Standard orientation:
 ---------------------------------------------------------------------
 Center     Atomic      Atomic             Coordinates (Angstroms)
 Number     Number       Type             X           Y           Z
 ---------------------------------------------------------------------
      1          6           0       -3.572499   -2.122103    0.125915
      2          6           0       -2.557720   -1.651508    0.965727
      3          6           0       -2.211128   -0.297108    0.970543
      4          6           0       -2.903086    0.562692    0.118941
      5          6           0       -3.918743    0.124244   -0.729289
      6          6           0       -4.248580   -1.234290   -0.717426
      7          1           0       -3.835232   -3.175839    0.128652
      8          1           0       -2.030968   -2.338706    1.621728
      9          1           0       -1.429586    0.094049    1.610547
     10          1           0       -4.425940    0.833396   -1.372151
     11          1           0       -5.037097   -1.596947   -1.370699
     12          7           0       -2.545034    1.998723    0.115211
     13          8           0       -3.169759    2.735846   -0.644399
     14          8           0       -1.646449    2.359971    0.871968
     15          6           0        3.064789   -0.433571   -0.387724
     16          6           0        2.327964   -1.713288    0.009008
     17          6           0        0.875272   -1.730957   -0.467614
     18          1           0        2.530955    0.432717    0.026415
     19          1           0        3.035222   -0.325616   -1.480823
     20          1           0        2.360107   -1.819515    1.100932
     21          1           0        2.863720   -2.576642   -0.405963
     22          1           0        0.826672   -1.649723   -1.558321
     23          1           0        0.320196   -0.888294   -0.042864
     24          1           0        0.367375   -2.654670   -0.173245
     25          6           0        4.518181   -0.401033    0.081661
     26          6           0        5.255006    0.878685   -0.315071
     27          6           0        6.707698    0.896352    0.161552
     28          1           0        4.547748   -0.508987    1.174760
     29          1           0        5.052015   -1.267321   -0.332478
     30          1           0        4.719250    1.742039    0.099900
     31          1           0        5.222863    0.984912   -1.406995
     32          1           0        7.262774    0.053690   -0.263199
     33          1           0        6.756298    0.815119    1.252258
     34          1           0        7.215595    1.820066   -0.132819
 ---------------------------------------------------------------------

 SCF Done:  E(RHF) =  -669.534271295     A.U. after   15 cycles
 E2 =    -0.2092577172D+01 EUMP2 =    -0.67162684846682D+03

 The electronic state is 1-A.
 Alpha  occ. eigenvalues --  -20.60785 -20.60778 -15.85837 -11.31184 -11.27746
 Alpha  occ. eigenvalues --  -11.27736 -11.27481 -11.26758 -11.26744 -11.21746
 Alpha  occ. eigenvalues --  -11.21456 -11.21355 -11.21294 -11.21271 -11.20946
 Alpha  occ. eigenvalues --   -1.59859  -1.39414  -1.19360  -1.08753  -1.08414
 Alpha  occ. eigenvalues --   -1.04772  -1.03548  -0.96010  -0.95591  -0.87029
 Alpha  occ. eigenvalues --   -0.86163  -0.82428  -0.79618  -0.78206  -0.77475
 Alpha  occ. eigenvalues --   -0.72056  -0.71182  -0.70478  -0.65070  -0.64996
 Alpha  occ. eigenvalues --   -0.64771  -0.62142  -0.60945  -0.59388  -0.57612
 Alpha  occ. eigenvalues --   -0.55378  -0.55229  -0.53268  -0.52904  -0.52576
 Alpha  occ. eigenvalues --   -0.52334  -0.49922  -0.48814  -0.48810  -0.47926
 Alpha  occ. eigenvalues --   -0.46645  -0.45752  -0.45665  -0.44818  -0.43800
 Alpha  occ. eigenvalues --   -0.37329  -0.36249
 Alpha virt. eigenvalues --    0.05051   0.11171   0.16540   0.20871   0.22967
 Alpha virt. eigenvalues --    0.24208   0.26508   0.27005   0.27322   0.28173
 Alpha virt. eigenvalues --    0.29067   0.29880   0.31485   0.31728   0.32016

 Mulliken charges:
               1
     1  C   -0.171911
     2  C   -0.211473
     3  C   -0.173149
     4  C    0.159251
     5  C   -0.171338
     6  C   -0.218102
     7  H    0.225467
     8  H    0.223748
     9  H    0.274924
    10  H    0.275462
    11  H    0.223348
    12  N    0.488438
    13  O   -0.460086
    14  O   -0.461588
    15  C   -0.299978
    16  C   -0.299767
    17  C   -0.476858
    18  H    0.155406
    19  H    0.150415
    20  H    0.148313
    21  H    0.151344
    22  H    0.157611
    23  H    0.158212
    24  H    0.151646
    25  C   -0.298184
    26  C   -0.300296
    27  C   -0.475765
    28  H    0.148845
    29  H    0.148452
    30  H    0.155272
    31  H    0.152235
    32  H    0.154162
    33  H    0.154944
    34  H    0.161002
 Sum of Mulliken charges =  -0.00000

 Dipole moment (field-independent basis, Debye):
    X=             -1.2845    Y=             -4.9984    Z=             -0.0187  Tot=              5.1609
 Quadrupole moment (field-independent basis, Debye-Ang):
   XX=            -86.4287   YY=           -100.9932   ZZ=            -92.0993
   XY=             13.4947   XZ=              2.0557   YZ=             -0.9436

 Normal termination of Gaussian 16 at Wed May  5 22:11:18 2021.
