 Gaussian 16, Revision A.03,
 Gaussian 16:  EM64L-G16RevA.03 25-Dec-2016

 -------------
 #p 6-31g* mp2
 -------------

 ------------------------------------------------------
 Input file generated by CHIRIPA (05-May-2021 14:51:08)
 ------------------------------------------------------
 Symbolic Z-matrix:
 Charge =  0 Multiplicity = 1

                         Standard orientation:
 ---------------------------------------------------------------------
 Center     Atomic      Atomic             Coordinates (Angstroms)
 Number     Number       Type             X           Y           Z
 ---------------------------------------------------------------------
      1          6           0        3.113191    0.689850   -0.162799
      2          6           0        2.339047    1.282615   -1.340643
      3          6           0        1.698359    2.630594   -1.008579
      4          1           0        2.434059    0.573779    0.692919
      5          1           0        3.891488    1.399695    0.149883
      6          1           0        1.563341    0.571268   -1.651899
      7          1           0        3.020056    1.397110   -2.193716
      8          1           0        2.462318    3.359266   -0.718743
      9          1           0        0.997326    2.528732   -0.173847
     10          1           0        1.150035    3.036212   -1.864543
     11          6           0        3.759441   -0.657714   -0.479278
     12          6           0        4.533584   -1.250479    0.698566
     13          6           0        5.174272   -2.598458    0.366502
     14          1           0        2.981144   -1.367558   -0.791960
     15          1           0        4.438572   -0.541643   -1.334996
     16          1           0        3.852576   -1.364974    1.551640
     17          1           0        5.309291   -0.539132    1.009822
     18          1           0        5.875305   -2.496595   -0.468230
     19          1           0        4.410313   -3.327130    0.076666
     20          1           0        5.722596   -3.004075    1.222466
     21          6           0       -4.016000   -0.127382   -0.163737
     22          6           0       -4.637716   -1.520159   -0.055900
     23          6           0       -5.796128   -1.727628   -1.032032
     24          1           0       -4.791716    0.628664    0.019578
     25          1           0       -3.662762    0.030225   -1.192220
     26          1           0       -4.988431   -1.675620    0.972422
     27          1           0       -3.860388   -2.272980   -0.239305
     28          1           0       -5.457080   -1.599342   -2.065081
     29          1           0       -6.591533   -0.998588   -0.846470
     30          1           0       -6.225797   -2.729823   -0.937962
     31          6           0       -2.856631    0.095246    0.805813
     32          6           0       -2.234916    1.488022    0.697978
     33          6           0       -1.076504    1.695491    1.674109
     34          1           0       -3.209870   -0.062361    1.834297
     35          1           0       -2.080914   -0.660800    0.622499
     36          1           0       -3.012243    2.240844    0.881382
     37          1           0       -1.884200    1.643483   -0.330344
     38          1           0       -0.281099    0.966452    1.488547
     39          1           0       -1.415550    1.567206    2.707159
     40          1           0       -0.646835    2.697687    1.580039
 ---------------------------------------------------------------------

 SCF Done:  E(RHF) =  -470.732818530     A.U. after   11 cycles
 E2 =    -0.1583265644D+01 EUMP2 =    -0.47231608417362D+03

 The electronic state is 1-A.
 Alpha  occ. eigenvalues --  -11.21654 -11.21631 -11.21599 -11.21577 -11.21449
 Alpha  occ. eigenvalues --  -11.21399 -11.21387 -11.21339 -11.21154 -11.21093
 Alpha  occ. eigenvalues --  -11.21071 -11.20935  -1.08479  -1.08414  -1.03604
 Alpha  occ. eigenvalues --   -1.03485  -0.96073  -0.95921  -0.87091  -0.86938
 Alpha  occ. eigenvalues --   -0.79667  -0.79548  -0.78287  -0.78228  -0.65191
 Alpha  occ. eigenvalues --   -0.64986  -0.61195  -0.60728  -0.59431  -0.59313
 Alpha  occ. eigenvalues --   -0.57716  -0.57511  -0.55480  -0.55075  -0.52802
 Alpha  occ. eigenvalues --   -0.52644  -0.52499  -0.52267  -0.50048  -0.49807
 Alpha  occ. eigenvalues --   -0.47965  -0.47861  -0.46735  -0.46537  -0.45858
 Alpha  occ. eigenvalues --   -0.45767  -0.45742  -0.45631  -0.43819  -0.43763
 Alpha virt. eigenvalues --    0.20538   0.23161   0.23596   0.25249   0.25752
 Alpha virt. eigenvalues --    0.26669   0.26959   0.27326   0.28043   0.29178
 Alpha virt. eigenvalues --    0.30753   0.31189   0.31571   0.31915   0.32193

 Mulliken charges:
               1
     1  C   -0.301346
     2  C   -0.298771
     3  C   -0.485745
     4  H    0.151794
     5  H    0.149844
     6  H    0.150554
     7  H    0.151807
     8  H    0.154442
     9  H    0.168138
    10  H    0.159071
    11  C   -0.298120
    12  C   -0.299663
    13  C   -0.475685
    14  H    0.149022
    15  H    0.149766
    16  H    0.151930
    17  H    0.152050
    18  H    0.155185
    19  H    0.155062
    20  H    0.160295
    21  C   -0.298363
    22  C   -0.299681
    23  C   -0.475740
    24  H    0.149853
    25  H    0.149658
    26  H    0.151991
    27  H    0.151856
    28  H    0.155253
    29  H    0.155264
    30  H    0.160340
    31  C   -0.298362
    32  C   -0.301440
    33  C   -0.482321
    34  H    0.149735
    35  H    0.149300
    36  H    0.152574
    37  H    0.154093
    38  H    0.156947
    39  H    0.156999
    40  H    0.162412
 Sum of Mulliken charges =  -0.00000

 Dipole moment (field-independent basis, Debye):
    X=             -0.0390    Y=              0.0125    Z=              0.0338  Tot=              0.0531
 Quadrupole moment (field-independent basis, Debye-Ang):
   XX=            -84.6000   YY=            -85.4996   ZZ=            -84.6595
   XY=              0.3775   XZ=             -1.1992   YZ=             -0.0966

 Normal termination of Gaussian 16 at Thu May  6 05:17:30 2021.
