 Gaussian 16, Revision A.03,
 Gaussian 16:  EM64L-G16RevA.03 25-Dec-2016

 -------------
 #p 6-31g* mp2
 -------------

 ------------------------------------------------------
 Input file generated by CHIRIPA (05-May-2021 14:57:24)
 ------------------------------------------------------
 Symbolic Z-matrix:
 Charge =  0 Multiplicity = 1

                         Standard orientation:
 ---------------------------------------------------------------------
 Center     Atomic      Atomic             Coordinates (Angstroms)
 Number     Number       Type             X           Y           Z
 ---------------------------------------------------------------------
      1          6           0       -6.005444    1.347817    0.543697
      2          6           0       -6.057925   -0.037807    0.359812
      3          6           0       -4.901724   -0.755950    0.040409
      4          6           0       -3.704582   -0.053349   -0.088010
      5          6           0       -3.620036    1.326795    0.089036
      6          6           0       -4.788812    2.024502    0.407962
      7          1           0       -6.908493    1.897751    0.791631
      8          1           0       -7.001388   -0.565956    0.464595
      9          1           0       -4.913889   -1.828995   -0.107387
     10          1           0       -2.664908    1.825600   -0.022061
     11          1           0       -4.745072    3.100560    0.550199
     12          7           0       -2.473907   -0.802798   -0.425895
     13          8           0       -1.431580   -0.160436   -0.533424
     14          8           0       -2.574934   -2.018387   -0.576802
     15          6           0        5.892151    1.487150    0.070954
     16          6           0        4.934668    1.598465   -0.942633
     17          6           0        3.830922    0.740962   -0.973975
     18          6           0        3.715535   -0.220725    0.028588
     19          6           0        4.652663   -0.356559    1.051638
     20          6           0        5.748345    0.511713    1.063105
     21          1           0        6.746435    2.157462    0.087581
     22          1           0        5.043770    2.355062   -1.714451
     23          1           0        3.074817    0.805144   -1.747023
     24          1           0        4.516725   -1.120678    1.807323
     25          1           0        6.490381    0.422959    1.851488
     26          7           0        2.551316   -1.134225    0.005928
     27          8           0        2.472606   -1.973110    0.900755
     28          8           0        1.739557   -0.994046   -0.906231
 ---------------------------------------------------------------------

 SCF Done:  E(RHF) =  -868.334358561     A.U. after   16 cycles
 E2 =    -0.2600592252D+01 EUMP2 =    -0.87093495081345D+03

 The electronic state is 1-A.
 Alpha  occ. eigenvalues --  -20.59660 -20.59636 -20.59526 -20.59386 -15.84733
 Alpha  occ. eigenvalues --  -15.84518 -11.30502 -11.30345 -11.27134 -11.27109
 Alpha  occ. eigenvalues --  -11.26981 -11.26952 -11.26941 -11.26811 -11.26238
 Alpha  occ. eigenvalues --  -11.26216 -11.26099 -11.26086  -1.58719  -1.58524
 Alpha  occ. eigenvalues --   -1.38270  -1.38066  -1.18714  -1.18565  -1.08031
 Alpha  occ. eigenvalues --   -1.07876  -1.04179  -1.04036  -0.94799  -0.94624
 Alpha  occ. eigenvalues --   -0.85558  -0.85412  -0.81639  -0.81453  -0.76614
 Alpha  occ. eigenvalues --   -0.76429  -0.71011  -0.70637  -0.70084  -0.69865
 Alpha  occ. eigenvalues --   -0.69819  -0.69672  -0.64358  -0.64209  -0.64180
 Alpha  occ. eigenvalues --   -0.64046  -0.61526  -0.61377  -0.54668  -0.54531
 Alpha  occ. eigenvalues --   -0.52485  -0.52344  -0.52279  -0.52135  -0.47833
 Alpha  occ. eigenvalues --   -0.47679  -0.47486  -0.47291  -0.43604  -0.43331
 Alpha  occ. eigenvalues --   -0.36718  -0.36575  -0.35802  -0.35662
 Alpha virt. eigenvalues --    0.05932   0.06118   0.11846   0.11985   0.17355
 Alpha virt. eigenvalues --    0.17521   0.21924   0.22057   0.27801   0.27935
 Alpha virt. eigenvalues --    0.28848   0.28999   0.31441   0.31573   0.33097

 Mulliken charges:
               1
     1  C   -0.172173
     2  C   -0.218445
     3  C   -0.171396
     4  C    0.159661
     5  C   -0.171696
     6  C   -0.218446
     7  H    0.222933
     8  H    0.221511
     9  H    0.275768
    10  H    0.273843
    11  H    0.220452
    12  N    0.486917
    13  O   -0.450763
    14  O   -0.458141
    15  C   -0.172486
    16  C   -0.218882
    17  C   -0.171586
    18  C    0.159570
    19  C   -0.172004
    20  C   -0.218673
    21  H    0.222203
    22  H    0.220481
    23  H    0.277382
    24  H    0.274512
    25  H    0.220477
    26  N    0.486408
    27  O   -0.465205
    28  O   -0.442221
 Sum of Mulliken charges =  -0.00000

 Dipole moment (field-independent basis, Debye):
    X=             -0.3108    Y=              5.6921    Z=              1.1247  Tot=              5.8105
 Quadrupole moment (field-independent basis, Debye-Ang):
   XX=            -44.3866   YY=           -102.9903   ZZ=           -102.8171
   XY=              3.3568   XZ=             -2.1128   YZ=             -2.1744

 Normal termination of Gaussian 16 at Fri May  7 04:56:02 2021.
