 Gaussian 16, Revision A.03,
 Gaussian 16:  EM64L-G16RevA.03 25-Dec-2016

 -------------
 #p 6-31g* mp2
 -------------

 ------------------------------------------------------
 Input file generated by CHIRIPA (05-May-2021 14:57:23)
 ------------------------------------------------------
 Symbolic Z-matrix:
 Charge =  0 Multiplicity = 1

                         Standard orientation:
 ---------------------------------------------------------------------
 Center     Atomic      Atomic             Coordinates (Angstroms)
 Number     Number       Type             X           Y           Z
 ---------------------------------------------------------------------
      1          6           0        3.702671   -2.264769   -0.875552
      2          6           0        4.607853   -1.536661   -0.096434
      3          6           0        4.327883   -0.216901    0.270170
      4          6           0        3.127934    0.346048   -0.161688
      5          6           0        2.205902   -0.353481   -0.938739
      6          6           0        2.506693   -1.671900   -1.293481
      7          1           0        3.928245   -3.289470   -1.155731
      8          1           0        5.537439   -1.994524    0.229565
      9          1           0        5.010842    0.369634    0.872634
     10          1           0        1.287399    0.129977   -1.248640
     11          1           0        1.801851   -2.234963   -1.898628
     12          7           0        2.820521    1.742509    0.220140
     13          8           0        1.756480    2.215642   -0.173051
     14          8           0        3.649432    2.337481    0.905378
     15          6           0       -4.982421    0.431583   -1.452409
     16          6           0       -3.665104    0.841934   -1.682215
     17          6           0       -2.657539    0.544156   -0.759888
     18          6           0       -3.004212   -0.168822    0.386746
     19          6           0       -4.307460   -0.591471    0.644046
     20          6           0       -5.298836   -0.282551   -0.292057
     21          1           0       -5.758834    0.667231   -2.174246
     22          1           0       -3.416466    1.396676   -2.582485
     23          1           0       -1.629576    0.849654   -0.912792
     24          1           0       -4.524694   -1.143033    1.550691
     25          1           0       -6.321028   -0.602512   -0.110967
     26          7           0       -1.946117   -0.489964    1.370466
     27          8           0       -2.277389   -1.119308    2.372874
     28          8           0       -0.805546   -0.106250    1.120469
 ---------------------------------------------------------------------

 SCF Done:  E(RHF) =  -868.338083394     A.U. after   16 cycles
 E2 =    -0.2600064617D+01 EUMP2 =    -0.87093814801098D+03

 The electronic state is 1-A.
 Alpha  occ. eigenvalues --  -20.60750 -20.60732 -20.60066 -20.60045 -15.85787
 Alpha  occ. eigenvalues --  -15.85109 -11.31160 -11.30423 -11.27734 -11.27714
 Alpha  occ. eigenvalues --  -11.27476 -11.27045 -11.27039 -11.26818 -11.26753
 Alpha  occ. eigenvalues --  -11.26732 -11.26062 -11.26053  -1.59813  -1.59111
 Alpha  occ. eigenvalues --   -1.39366  -1.38673  -1.19334  -1.18615  -1.08729
 Alpha  occ. eigenvalues --   -1.08027  -1.04736  -1.04037  -0.95563  -0.94871
 Alpha  occ. eigenvalues --   -0.86134  -0.85444  -0.82391  -0.81725  -0.77449
 Alpha  occ. eigenvalues --   -0.76751  -0.72020  -0.71351  -0.71136  -0.70448
 Alpha  occ. eigenvalues --   -0.70386  -0.69772  -0.64987  -0.64739  -0.64298
 Alpha  occ. eigenvalues --   -0.64077  -0.62085  -0.61402  -0.55239  -0.54581
 Alpha  occ. eigenvalues --   -0.53070  -0.52827  -0.52330  -0.52163  -0.48768
 Alpha  occ. eigenvalues --   -0.48761  -0.48093  -0.48089  -0.44767  -0.44082
 Alpha  occ. eigenvalues --   -0.37320  -0.36594  -0.36342  -0.35603
 Alpha virt. eigenvalues --    0.05073   0.05821   0.11301   0.12036   0.16576
 Alpha virt. eigenvalues --    0.17297   0.20511   0.22172   0.25349   0.27703
 Alpha virt. eigenvalues --    0.28244   0.29410   0.30520   0.31540   0.32170

 Mulliken charges:
               1
     1  C   -0.169971
     2  C   -0.218955
     3  C   -0.169876
     4  C    0.159613
     5  C   -0.155377
     6  C   -0.219520
     7  H    0.222824
     8  H    0.220953
     9  H    0.274023
    10  H    0.271953
    11  H    0.219005
    12  N    0.490440
    13  O   -0.463126
    14  O   -0.462549
    15  C   -0.170704
    16  C   -0.219751
    17  C   -0.175029
    18  C    0.157251
    19  C   -0.170852
    20  C   -0.218779
    21  H    0.225583
    22  H    0.224628
    23  H    0.282346
    24  H    0.275364
    25  H    0.223246
    26  N    0.488630
    27  O   -0.460761
    28  O   -0.460610
 Sum of Mulliken charges =  -0.00000

 Dipole moment (field-independent basis, Debye):
    X=             -2.7575    Y=             -3.7269    Z=             -4.7203  Tot=              6.6163
 Quadrupole moment (field-independent basis, Debye-Ang):
   XX=            -70.5141   YY=           -109.1153   ZZ=           -105.4438
   XY=            -15.9754   XZ=              5.2355   YZ=             -0.0990

 Normal termination of Gaussian 16 at Thu May  6 21:10:25 2021.
