 Gaussian 16, Revision A.03,
 Gaussian 16:  EM64L-G16RevA.03 25-Dec-2016

 -------------
 #p 6-31g* mp2
 -------------

 ------------------------------------------------------
 Input file generated by CHIRIPA (05-May-2021 14:53:17)
 ------------------------------------------------------
 Symbolic Z-matrix:
 Charge =  0 Multiplicity = 1

                         Standard orientation:
 ---------------------------------------------------------------------
 Center     Atomic      Atomic             Coordinates (Angstroms)
 Number     Number       Type             X           Y           Z
 ---------------------------------------------------------------------
      1          6           0       -3.364741   -0.289737   -0.345055
      2          6           0       -3.267488   -1.592449    0.449595
      3          6           0       -3.561134   -2.827797   -0.402157
      4          1           0       -4.370447   -0.206811   -0.779363
      5          1           0       -2.662169   -0.329846   -1.188961
      6          1           0       -3.969040   -1.549330    1.292555
      7          1           0       -2.261957   -1.672190    0.882222
      8          1           0       -2.853964   -2.898514   -1.234930
      9          1           0       -4.570746   -2.774956   -0.822265
     10          1           0       -3.486037   -3.747895    0.185755
     11          6           0       -3.073833    0.954113    0.492762
     12          6           0       -3.171087    2.256825   -0.301888
     13          6           0       -2.877441    3.492173    0.549864
     14          1           0       -3.776406    0.994222    1.336669
     15          1           0       -2.068127    0.871188    0.927071
     16          1           0       -4.176617    2.336567   -0.734515
     17          1           0       -2.469534    2.213706   -1.144848
     18          1           0       -1.867828    3.439332    0.969973
     19          1           0       -3.584610    3.562891    1.382637
     20          1           0       -2.952537    4.412271   -0.038047
     21          6           0        4.516230    1.277118   -0.060750
     22          6           0        4.628122   -0.016927    0.458333
     23          6           0        3.525918   -0.876955    0.465159
     24          6           0        2.321604   -0.408079   -0.057403
     25          6           0        2.178515    0.875685   -0.581584
     26          6           0        3.293939    1.718516   -0.578140
     27          1           0        5.377584    1.938529   -0.062063
     28          1           0        5.576122   -0.362413    0.860800
     29          1           0        3.584649   -1.883638    0.860835
     30          1           0        1.220358    1.191723   -0.975889
     31          1           0        3.204119    2.722978   -0.981915
     32          7           0        1.147751   -1.309449   -0.055613
     33          8           0        0.097844   -0.872424   -0.521812
     34          8           0        1.299820   -2.435900    0.411956
 ---------------------------------------------------------------------

 SCF Done:  E(RHF) =  -669.536502799     A.U. after   15 cycles
 E2 =    -0.2092593954D+01 EUMP2 =    -0.67162909675280D+03

 The electronic state is 1-A.
 Alpha  occ. eigenvalues --  -20.61166 -20.61160 -15.86171 -11.31417 -11.27970
 Alpha  occ. eigenvalues --  -11.27964 -11.27690 -11.26957 -11.26947 -11.20920
 Alpha  occ. eigenvalues --  -11.20675 -11.20266 -11.19865 -11.19803 -11.19484
 Alpha  occ. eigenvalues --   -1.60211  -1.39771  -1.19576  -1.08997  -1.07196
 Alpha  occ. eigenvalues --   -1.04959  -1.02352  -0.95851  -0.94843  -0.86364
 Alpha  occ. eigenvalues --   -0.85877  -0.82689  -0.78504  -0.77753  -0.76912
 Alpha  occ. eigenvalues --   -0.72423  -0.71516  -0.70684  -0.65247  -0.64963
 Alpha  occ. eigenvalues --   -0.63761  -0.62308  -0.59723  -0.58304  -0.56433
 Alpha  occ. eigenvalues --   -0.55466  -0.54122  -0.53295  -0.53049  -0.51617
 Alpha  occ. eigenvalues --   -0.51275  -0.49251  -0.49149  -0.48705  -0.46805
 Alpha  occ. eigenvalues --   -0.45515  -0.45284  -0.44456  -0.44175  -0.42582
 Alpha  occ. eigenvalues --   -0.37549  -0.36556
 Alpha virt. eigenvalues --    0.04737   0.11096   0.16232   0.20921   0.23495
 Alpha virt. eigenvalues --    0.25540   0.26861   0.27455   0.28539   0.28842
 Alpha virt. eigenvalues --    0.29155   0.31105   0.32117   0.32495   0.32981

 Mulliken charges:
               1
     1  C   -0.296298
     2  C   -0.299854
     3  C   -0.475295
     4  H    0.140253
     5  H    0.161912
     6  H    0.140636
     7  H    0.170325
     8  H    0.162071
     9  H    0.146093
    10  H    0.156530
    11  C   -0.298154
    12  C   -0.298578
    13  C   -0.474497
    14  H    0.144340
    15  H    0.153126
    16  H    0.150559
    17  H    0.147861
    18  H    0.150069
    19  H    0.155394
    20  H    0.156012
    21  C   -0.170285
    22  C   -0.218599
    23  C   -0.170353
    24  C    0.157438
    25  C   -0.170951
    26  C   -0.218523
    27  H    0.226557
    28  H    0.224290
    29  H    0.276135
    30  H    0.275833
    31  H    0.224570
    32  N    0.493269
    33  O   -0.464513
    34  O   -0.457375
 Sum of Mulliken charges =  -0.00000

 Dipole moment (field-independent basis, Debye):
    X=              4.5917    Y=              3.0134    Z=             -0.0457  Tot=              5.4924
 Quadrupole moment (field-independent basis, Debye-Ang):
   XX=            -74.8523   YY=            -96.6967   ZZ=            -94.8754
   XY=              3.3759   XZ=              0.9512   YZ=             -2.4927

 Normal termination of Gaussian 16 at Thu May  6 01:13:52 2021.
