 Gaussian 16, Revision A.03,
 Gaussian 16:  EM64L-G16RevA.03 25-Dec-2016

 -------------
 #p 6-31g* mp2
 -------------

 ------------------------------------------------------
 Input file generated by CHIRIPA (05-May-2021 14:57:27)
 ------------------------------------------------------
 Symbolic Z-matrix:
 Charge =  0 Multiplicity = 1

                         Standard orientation:
 ---------------------------------------------------------------------
 Center     Atomic      Atomic             Coordinates (Angstroms)
 Number     Number       Type             X           Y           Z
 ---------------------------------------------------------------------
      1          6           0        1.889453    2.234369   -0.195684
      2          6           0        2.205838    1.435051   -1.299094
      3          6           0        3.038243    0.321276   -1.153646
      4          6           0        3.538974    0.034685    0.115379
      5          6           0        3.242069    0.811765    1.233987
      6          6           0        2.407665    1.920728    1.065112
      7          1           0        1.242044    3.097707   -0.317771
      8          1           0        1.804829    1.676234   -2.279434
      9          1           0        3.299341   -0.314558   -1.990879
     10          1           0        3.656995    0.546103    2.198704
     11          1           0        2.163650    2.539703    1.923815
     12          7           0        4.421263   -1.141871    0.281759
     13          8           0        4.849592   -1.373049    1.410354
     14          8           0        4.667765   -1.810599   -0.719578
     15          6           0       -5.807761   -0.197287    0.644565
     16          6           0       -5.116757    1.004704    0.459494
     17          6           0       -3.778876    0.999354    0.053795
     18          6           0       -3.160167   -0.231623   -0.158775
     19          6           0       -3.821718   -1.445996    0.017116
     20          6           0       -5.159179   -1.416652    0.423176
     21          1           0       -6.846895   -0.183811    0.959862
     22          1           0       -5.617912    1.953167    0.630688
     23          1           0       -3.220177    1.915072   -0.096982
     24          1           0       -3.295352   -2.375787   -0.161342
     25          1           0       -5.693332   -2.351688    0.566119
     26          7           0       -1.744034   -0.249989   -0.588462
     27          8           0       -1.221568   -1.347722   -0.769149
     28          8           0       -1.183350    0.833698   -0.736429
 ---------------------------------------------------------------------

 SCF Done:  E(RHF) =  -868.338235508     A.U. after   16 cycles
 E2 =    -0.2599968628D+01 EUMP2 =    -0.87093820413584D+03

 The electronic state is 1-A.
 Alpha  occ. eigenvalues --  -20.61384 -20.61329 -20.59620 -20.59603 -15.86401
 Alpha  occ. eigenvalues --  -15.84660 -11.31660 -11.29748 -11.28252 -11.28180
 Alpha  occ. eigenvalues --  -11.27923 -11.27219 -11.27173 -11.26377 -11.26246
 Alpha  occ. eigenvalues --  -11.25990 -11.25348 -11.25170  -1.60422  -1.58694
 Alpha  occ. eigenvalues --   -1.39985  -1.38256  -1.19819  -1.17894  -1.09231
 Alpha  occ. eigenvalues --   -1.07334  -1.05207  -1.03281  -0.96088  -0.94225
 Alpha  occ. eigenvalues --   -0.86609  -0.84700  -0.82929  -0.81088  -0.77990
 Alpha  occ. eigenvalues --   -0.76173  -0.72646  -0.71736  -0.70925  -0.70895
 Alpha  occ. eigenvalues --   -0.70006  -0.69034  -0.65476  -0.65207  -0.63570
 Alpha  occ. eigenvalues --   -0.63322  -0.62559  -0.60673  -0.55705  -0.53804
 Alpha  occ. eigenvalues --   -0.53540  -0.53298  -0.51637  -0.51412  -0.49375
 Alpha  occ. eigenvalues --   -0.49316  -0.47657  -0.47625  -0.45414  -0.43727
 Alpha  occ. eigenvalues --   -0.37789  -0.36806  -0.35752  -0.34827
 Alpha virt. eigenvalues --    0.04528   0.06394   0.10851   0.12830   0.16045
 Alpha virt. eigenvalues --    0.17978   0.21001   0.22734   0.26908   0.27857
 Alpha virt. eigenvalues --    0.28622   0.29573   0.30602   0.32005   0.32357

 Mulliken charges:
               1
     1  C   -0.154949
     2  C   -0.200796
     3  C   -0.168965
     4  C    0.158025
     5  C   -0.172748
     6  C   -0.221961
     7  H    0.220745
     8  H    0.221587
     9  H    0.272260
    10  H    0.269678
    11  H    0.215496
    12  N    0.488508
    13  O   -0.465882
    14  O   -0.462777
    15  C   -0.170353
    16  C   -0.218326
    17  C   -0.171067
    18  C    0.158301
    19  C   -0.170338
    20  C   -0.218384
    21  H    0.227133
    22  H    0.223675
    23  H    0.271313
    24  H    0.277837
    25  H    0.225579
    26  N    0.490238
    27  O   -0.454968
    28  O   -0.468860
 Sum of Mulliken charges =  -0.00000

 Dipole moment (field-independent basis, Debye):
    X=             -8.5500    Y=              4.1382    Z=              0.7464  Tot=              9.5281
 Quadrupole moment (field-independent basis, Debye-Ang):
   XX=            -97.5332   YY=           -100.1140   ZZ=           -101.7766
   XY=             16.1026   XZ=             -6.7231   YZ=              1.1340

 Normal termination of Gaussian 16 at Thu May  6 18:11:42 2021.
