 Gaussian 16, Revision A.03,
 Gaussian 16:  EM64L-G16RevA.03 25-Dec-2016

 -------------
 #p 6-31g* mp2
 -------------

 ------------------------------------------------------
 Input file generated by CHIRIPA (05-May-2021 14:57:25)
 ------------------------------------------------------
 Symbolic Z-matrix:
 Charge =  0 Multiplicity = 1

                         Standard orientation:
 ---------------------------------------------------------------------
 Center     Atomic      Atomic             Coordinates (Angstroms)
 Number     Number       Type             X           Y           Z
 ---------------------------------------------------------------------
      1          6           0        3.081647    1.838881    1.658314
      2          6           0        2.836515    2.044356    0.296620
      3          6           0        2.804012    0.963824   -0.589913
      4          6           0        3.021826   -0.314484   -0.078272
      5          6           0        3.268567   -0.551518    1.273107
      6          6           0        3.296512    0.543882    2.141360
      7          1           0        3.105126    2.684040    2.339894
      8          1           0        2.669302    3.048965   -0.081329
      9          1           0        2.616453    1.094382   -1.648778
     10          1           0        3.431610   -1.564591    1.620266
     11          1           0        3.487117    0.381319    3.198378
     12          7           0        2.989830   -1.466265   -1.007129
     13          8           0        3.184801   -2.582639   -0.531383
     14          8           0        2.770385   -1.230850   -2.193325
     15          6           0       -1.199545    1.497435   -1.143200
     16          6           0       -2.541424    1.818813   -1.372539
     17          6           0       -3.562318    1.065136   -0.785773
     18          6           0       -3.203781   -0.008059    0.028472
     19          6           0       -1.876083   -0.353262    0.276148
     20          6           0       -0.871734    0.414332   -0.321038
     21          1           0       -0.412916    2.088314   -1.603062
     22          1           0       -2.798959    2.659415   -2.010589
     23          1           0       -4.609318    1.291870   -0.946397
     24          1           0       -1.650480   -1.196994    0.916959
     25          1           0        0.169531    0.162433   -0.141156
     26          7           0       -4.275797   -0.813310    0.655171
     27          8           0       -3.933653   -1.753918    1.368494
     28          8           0       -5.437889   -0.488610    0.421187
 ---------------------------------------------------------------------

 SCF Done:  E(RHF) =  -868.336401137     A.U. after   16 cycles
 E2 =    -0.2602498529D+01 EUMP2 =    -0.87093889966605D+03

 The electronic state is 1-A.
 Alpha  occ. eigenvalues --  -20.61715 -20.61706 -20.60672 -20.60665 -15.86773
 Alpha  occ. eigenvalues --  -15.85721 -11.32327 -11.31090 -11.28930 -11.28844
 Alpha  occ. eigenvalues --  -11.28572 -11.27950 -11.27838 -11.27661 -11.27608
 Alpha  occ. eigenvalues --  -11.27450 -11.26723 -11.26554  -1.60794  -1.59745
 Alpha  occ. eigenvalues --   -1.40337  -1.39299  -1.20532  -1.19257  -1.09844
 Alpha  occ. eigenvalues --   -1.08669  -1.05927  -1.04652  -0.96650  -0.95505
 Alpha  occ. eigenvalues --   -0.87291  -0.86065  -0.83463  -0.82332  -0.78506
 Alpha  occ. eigenvalues --   -0.77375  -0.72967  -0.72164  -0.71940  -0.71536
 Alpha  occ. eigenvalues --   -0.71066  -0.70419  -0.66123  -0.65862  -0.64915
 Alpha  occ. eigenvalues --   -0.64715  -0.63235  -0.62043  -0.56326  -0.55252
 Alpha  occ. eigenvalues --   -0.54358  -0.53961  -0.52988  -0.52573  -0.49749
 Alpha  occ. eigenvalues --   -0.49722  -0.48698  -0.48696  -0.45687  -0.44703
 Alpha  occ. eigenvalues --   -0.38470  -0.37559  -0.37233  -0.36236
 Alpha virt. eigenvalues --    0.03974   0.05154   0.10036   0.11425   0.15430
 Alpha virt. eigenvalues --    0.16644   0.19795   0.21718   0.25410   0.27141
 Alpha virt. eigenvalues --    0.27395   0.29171   0.30031   0.31031   0.32102

 Mulliken charges:
               1
     1  C   -0.170211
     2  C   -0.213899
     3  C   -0.190279
     4  C    0.154534
     5  C   -0.173483
     6  C   -0.216344
     7  H    0.230788
     8  H    0.224994
     9  H    0.275393
    10  H    0.280502
    11  H    0.229390
    12  N    0.488805
    13  O   -0.455617
    14  O   -0.458719
    15  C   -0.173392
    16  C   -0.218021
    17  C   -0.171790
    18  C    0.159347
    19  C   -0.173630
    20  C   -0.218873
    21  H    0.216530
    22  H    0.222002
    23  H    0.275136
    24  H    0.276404
    25  H    0.233344
    26  N    0.488003
    27  O   -0.459950
    28  O   -0.460964
 Sum of Mulliken charges =  -0.00000

 Dipole moment (field-independent basis, Debye):
    X=              4.1873    Y=              6.8093    Z=              1.2651  Tot=              8.0932
 Quadrupole moment (field-independent basis, Debye-Ang):
   XX=           -126.1899   YY=           -104.4934   ZZ=           -102.1228
   XY=              0.2540   XZ=             20.3189   YZ=             -5.1548

 Normal termination of Gaussian 16 at Fri May  7 06:33:11 2021.
