 Gaussian 16, Revision A.03,
 Gaussian 16:  EM64L-G16RevA.03 25-Dec-2016

 -------------
 #p 6-31g* mp2
 -------------

 ------------------------------------------------------
 Input file generated by CHIRIPA (05-May-2021 14:53:18)
 ------------------------------------------------------
 Symbolic Z-matrix:
 Charge =  0 Multiplicity = 1

                         Standard orientation:
 ---------------------------------------------------------------------
 Center     Atomic      Atomic             Coordinates (Angstroms)
 Number     Number       Type             X           Y           Z
 ---------------------------------------------------------------------
      1          6           0       -3.753172    0.520345    0.018655
      2          6           0       -4.036987   -0.946486   -0.306676
      3          6           0       -5.470372   -1.359735    0.028627
      4          1           0       -3.947143    0.696871    1.085500
      5          1           0       -4.458025    1.154804   -0.536357
      6          1           0       -3.330908   -1.577926    0.247717
      7          1           0       -3.842134   -1.119586   -1.372830
      8          1           0       -6.187662   -0.754466   -0.535061
      9          1           0       -5.673532   -1.215411    1.094694
     10          1           0       -5.651498   -2.411984   -0.211842
     11          6           0       -2.324280    0.948496   -0.311016
     12          6           0       -2.040464    2.415328    0.014315
     13          6           0       -0.607080    2.828576   -0.320988
     14          1           0       -1.619426    0.314038    0.243996
     15          1           0       -2.130308    0.771970   -1.377861
     16          1           0       -2.235318    2.588427    1.080469
     17          1           0       -2.746544    3.046767   -0.540078
     18          1           0       -0.403920    2.684252   -1.387054
     19          1           0        0.110211    2.223307    0.242700
     20          1           0       -0.425954    3.880825   -0.080519
     21          6           0        3.546988    1.659130    0.049345
     22          6           0        3.807275    0.702757   -0.937632
     23          6           0        3.163146   -0.537796   -0.911653
     24          6           0        2.260605   -0.789634    0.120474
     25          6           0        1.980102    0.142642    1.118206
     26          6           0        2.635839    1.376519    1.072310
     27          1           0        4.051872    2.620228    0.021428
     28          1           0        4.514400    0.919487   -1.733275
     29          1           0        3.345970   -1.296347   -1.663047
     30          1           0        1.270080   -0.102383    1.898750
     31          1           0        2.431738    2.117347    1.840140
     32          7           0        1.572551   -2.099418    0.158519
     33          8           0        0.781737   -2.296824    1.078455
     34          8           0        1.837094   -2.903820   -0.732319
 ---------------------------------------------------------------------

 SCF Done:  E(RHF) =  -669.534830901     A.U. after   15 cycles
 E2 =    -0.2093207762D+01 EUMP2 =    -0.67162803866307D+03

 The electronic state is 1-A.
 Alpha  occ. eigenvalues --  -20.60862 -20.60855 -15.85906 -11.31272 -11.27828
 Alpha  occ. eigenvalues --  -11.27816 -11.27551 -11.26844 -11.26830 -11.21584
 Alpha  occ. eigenvalues --  -11.21181 -11.21106 -11.21099 -11.21047 -11.20637
 Alpha  occ. eigenvalues --   -1.59927  -1.39482  -1.19444  -1.08830  -1.08190
 Alpha  occ. eigenvalues --   -1.04860  -1.03304  -0.95778  -0.95666  -0.86806
 Alpha  occ. eigenvalues --   -0.86236  -0.82507  -0.79380  -0.77975  -0.77550
 Alpha  occ. eigenvalues --   -0.72124  -0.71243  -0.70537  -0.65097  -0.64848
 Alpha  occ. eigenvalues --   -0.64829  -0.62200  -0.60720  -0.59164  -0.57389
 Alpha  occ. eigenvalues --   -0.55332  -0.55147  -0.53274  -0.52936  -0.52471
 Alpha  occ. eigenvalues --   -0.52095  -0.49712  -0.48883  -0.48880  -0.47678
 Alpha  occ. eigenvalues --   -0.46412  -0.45532  -0.45441  -0.44848  -0.43560
 Alpha  occ. eigenvalues --   -0.37400  -0.36336
 Alpha virt. eigenvalues --    0.04954   0.11114   0.16394   0.21053   0.23099
 Alpha virt. eigenvalues --    0.24518   0.26424   0.27270   0.27567   0.28412
 Alpha virt. eigenvalues --    0.28686   0.30832   0.31705   0.31905   0.32257

 Mulliken charges:
               1
     1  C   -0.297800
     2  C   -0.302079
     3  C   -0.475711
     4  H    0.148408
     5  H    0.147667
     6  H    0.161856
     7  H    0.151797
     8  H    0.152724
     9  H    0.154292
    10  H    0.161717
    11  C   -0.300321
    12  C   -0.298863
    13  C   -0.482075
    14  H    0.152778
    15  H    0.149883
    16  H    0.148999
    17  H    0.151640
    18  H    0.155331
    19  H    0.158974
    20  H    0.154276
    21  C   -0.169319
    22  C   -0.218085
    23  C   -0.171076
    24  C    0.160950
    25  C   -0.172701
    26  C   -0.217998
    27  H    0.226334
    28  H    0.223892
    29  H    0.275836
    30  H    0.275767
    31  H    0.225252
    32  N    0.488454
    33  O   -0.461343
    34  O   -0.459455
 Sum of Mulliken charges =  -0.00000

 Dipole moment (field-independent basis, Debye):
    X=              2.5602    Y=              4.4657    Z=             -0.1458  Tot=              5.1496
 Quadrupole moment (field-independent basis, Debye-Ang):
   XX=            -84.0796   YY=           -102.8071   ZZ=            -90.7474
   XY=              7.8159   XZ=             -1.9439   YZ=              1.8673

 Normal termination of Gaussian 16 at Wed May  5 23:41:53 2021.
