 Gaussian 16, Revision A.03,
 Gaussian 16:  EM64L-G16RevA.03 25-Dec-2016

 -------------
 #p 6-31g* mp2
 -------------

 ------------------------------------------------------
 Input file generated by CHIRIPA (05-May-2021 14:53:15)
 ------------------------------------------------------
 Symbolic Z-matrix:
 Charge =  0 Multiplicity = 1

                         Standard orientation:
 ---------------------------------------------------------------------
 Center     Atomic      Atomic             Coordinates (Angstroms)
 Number     Number       Type             X           Y           Z
 ---------------------------------------------------------------------
      1          6           0       -3.646392   -0.402002   -0.410631
      2          6           0       -3.040468   -1.513614    0.446784
      3          6           0       -1.774259   -2.110750   -0.167983
      4          1           0       -3.874422   -0.800496   -1.408704
      5          1           0       -2.898430    0.390129   -0.553732
      6          1           0       -3.789810   -2.302772    0.589380
      7          1           0       -2.814031   -1.112477    1.442992
      8          1           0       -1.007201   -1.339963   -0.294906
      9          1           0       -1.988524   -2.537020   -1.153368
     10          1           0       -1.357783   -2.903464    0.461313
     11          6           0       -4.912786    0.204880    0.190758
     12          6           0       -5.518709    1.316492   -0.666657
     13          6           0       -6.784918    1.913628   -0.051891
     14          1           0       -5.660747   -0.587251    0.333859
     15          1           0       -4.684756    0.603374    1.188831
     16          1           0       -5.745146    0.915355   -1.662865
     17          1           0       -4.769368    2.105650   -0.809253
     18          1           0       -6.570654    2.339898    0.933495
     19          1           0       -7.551977    1.142841    0.075033
     20          1           0       -7.201395    2.706342   -0.681186
     21          6           0        5.326986    1.551261   -0.422030
     22          6           0        4.493708    1.847747    0.661605
     23          6           0        3.391844    1.037872    0.952377
     24          6           0        3.151666   -0.065525    0.134992
     25          6           0        3.963376   -0.387115   -0.951745
     26          6           0        5.059632    0.436741   -1.223832
     27          1           0        6.180761    2.185822   -0.640652
     28          1           0        4.698916    2.712649    1.286009
     29          1           0        2.730421    1.244289    1.785040
     30          1           0        3.733288   -1.256140   -1.556124
     31          1           0        5.705055    0.204063   -2.066053
     32          7           0        1.988141   -0.930304    0.432929
     33          8           0        1.798093   -1.896618   -0.302434
     34          8           0        1.288249   -0.625431    1.396172
 ---------------------------------------------------------------------

 SCF Done:  E(RHF) =  -669.535776268     A.U. after   15 cycles
 E2 =    -0.2091611600D+01 EUMP2 =    -0.67162738786834D+03

 The electronic state is 1-A.
 Alpha  occ. eigenvalues --  -20.60971 -20.60960 -15.85982 -11.31317 -11.27878
 Alpha  occ. eigenvalues --  -11.27872 -11.27614 -11.26882 -11.26872 -11.20975
 Alpha  occ. eigenvalues --  -11.20568 -11.20556 -11.20310 -11.20117 -11.19026
 Alpha  occ. eigenvalues --   -1.60021  -1.39574  -1.19482  -1.08885  -1.07443
 Alpha  occ. eigenvalues --   -1.04877  -1.02412  -0.95729  -0.94827  -0.86277
 Alpha  occ. eigenvalues --   -0.85843  -0.82558  -0.78537  -0.77614  -0.77192
 Alpha  occ. eigenvalues --   -0.72190  -0.71351  -0.70589  -0.65135  -0.64881
 Alpha  occ. eigenvalues --   -0.64085  -0.62224  -0.59814  -0.58313  -0.56430
 Alpha  occ. eigenvalues --   -0.55391  -0.54139  -0.53207  -0.52968  -0.51504
 Alpha  occ. eigenvalues --   -0.51281  -0.49252  -0.48955  -0.48468  -0.46809
 Alpha  occ. eigenvalues --   -0.45574  -0.44993  -0.44714  -0.44598  -0.42653
 Alpha  occ. eigenvalues --   -0.37458  -0.36478
 Alpha virt. eigenvalues --    0.04882   0.11177   0.16386   0.21318   0.23761
 Alpha virt. eigenvalues --    0.25507   0.27234   0.27575   0.28198   0.28404
 Alpha virt. eigenvalues --    0.29262   0.30885   0.32428   0.32515   0.32643

 Mulliken charges:
               1
     1  C   -0.296981
     2  C   -0.301493
     3  C   -0.466874
     4  H    0.146406
     5  H    0.147558
     6  H    0.145005
     7  H    0.153567
     8  H    0.165698
     9  H    0.143282
    10  H    0.165303
    11  C   -0.297262
    12  C   -0.298655
    13  C   -0.475073
    14  H    0.147939
    15  H    0.148802
    16  H    0.150622
    17  H    0.150106
    18  H    0.154272
    19  H    0.154538
    20  H    0.157749
    21  C   -0.170536
    22  C   -0.218590
    23  C   -0.170975
    24  C    0.160064
    25  C   -0.170848
    26  C   -0.218590
    27  H    0.226084
    28  H    0.223872
    29  H    0.275730
    30  H    0.276097
    31  H    0.223951
    32  N    0.485760
    33  O   -0.456901
    34  O   -0.459627
 Sum of Mulliken charges =  -0.00000

 Dipole moment (field-independent basis, Debye):
    X=              4.5156    Y=              3.0002    Z=             -0.9905  Tot=              5.5112
 Quadrupole moment (field-independent basis, Debye-Ang):
   XX=            -71.1267   YY=            -93.8578   ZZ=            -92.2934
   XY=              9.7031   XZ=             -3.5647   YZ=              3.2588

 Normal termination of Gaussian 16 at Wed May  5 18:41:43 2021.
