 Gaussian 16, Revision A.03,
 Gaussian 16:  EM64L-G16RevA.03 25-Dec-2016

 -------------
 #p 6-31g* mp2
 -------------

 ------------------------------------------------------
 Input file generated by CHIRIPA (05-May-2021 14:55:24)
 ------------------------------------------------------
 Symbolic Z-matrix:
 Charge =  0 Multiplicity = 1

                         Standard orientation:
 ---------------------------------------------------------------------
 Center     Atomic      Atomic             Coordinates (Angstroms)
 Number     Number       Type             X           Y           Z
 ---------------------------------------------------------------------
      1          6           0       -5.203481    0.878056    0.283376
      2          6           0       -4.437469    1.311689   -0.803688
      3          6           0       -3.141797    0.824116   -0.998762
      4          6           0       -2.641325   -0.100334   -0.083225
      5          6           0       -3.379800   -0.551678    1.009586
      6          6           0       -4.673137   -0.050606    1.184954
      7          1           0       -6.209084    1.262058    0.427261
      8          1           0       -4.846759    2.032826   -1.505463
      9          1           0       -2.526962    1.142786   -1.831736
     10          1           0       -2.944586   -1.271322    1.692315
     11          1           0       -5.265746   -0.389156    2.030084
     12          7           0       -1.270891   -0.623651   -0.279310
     13          8           0       -0.852950   -1.437436    0.541492
     14          8           0       -0.640635   -0.210133   -1.250092
     15          6           0        3.668893   -0.700599    0.324012
     16          6           0        2.972639   -1.683348   -0.618017
     17          6           0        2.978597   -3.116925   -0.086401
     18          1           0        4.704751   -1.028898    0.485765
     19          1           0        3.174597   -0.730962    1.304902
     20          1           0        3.467229   -1.650128   -1.597249
     21          1           0        1.938375   -1.352565   -0.777698
     22          1           0        2.467286   -3.171502    0.880132
     23          1           0        4.004826   -3.470756    0.055924
     24          1           0        2.475774   -3.802705   -0.775411
     25          6           0        3.671111    0.736658   -0.193690
     26          6           0        4.367365    1.719407    0.748340
     27          6           0        4.361408    3.152983    0.216723
     28          1           0        4.165407    0.767020   -1.174580
     29          1           0        2.635253    1.064957   -0.355442
     30          1           0        5.401629    1.388624    0.908021
     31          1           0        3.872776    1.686187    1.727571
     32          1           0        3.335177    3.506814    0.074398
     33          1           0        4.872718    3.207561   -0.749808
     34          1           0        4.864230    3.838763    0.905734
 ---------------------------------------------------------------------

 SCF Done:  E(RHF) =  -669.537252270     A.U. after   15 cycles
 E2 =    -0.2092032683D+01 EUMP2 =    -0.67162928495332D+03

 The electronic state is 1-A.
 Alpha  occ. eigenvalues --  -20.61232 -20.61217 -15.86201 -11.31446 -11.27989
 Alpha  occ. eigenvalues --  -11.27986 -11.27711 -11.26975 -11.26965 -11.20620
 Alpha  occ. eigenvalues --  -11.20306 -11.20046 -11.19837 -11.19501 -11.19356
 Alpha  occ. eigenvalues --   -1.60248  -1.39806  -1.19598  -1.09020  -1.07007
 Alpha  occ. eigenvalues --   -1.04979  -1.02113  -0.95873  -0.94631  -0.86384
 Alpha  occ. eigenvalues --   -0.85663  -0.82709  -0.78233  -0.77777  -0.76726
 Alpha  occ. eigenvalues --   -0.72399  -0.71544  -0.70705  -0.65252  -0.64983
 Alpha  occ. eigenvalues --   -0.63637  -0.62325  -0.59503  -0.58057  -0.56212
 Alpha  occ. eigenvalues --   -0.55486  -0.53928  -0.53316  -0.53068  -0.51376
 Alpha  occ. eigenvalues --   -0.51054  -0.49279  -0.49169  -0.48579  -0.46526
 Alpha  occ. eigenvalues --   -0.45278  -0.45193  -0.44304  -0.44000  -0.42377
 Alpha  occ. eigenvalues --   -0.37572  -0.36574
 Alpha virt. eigenvalues --    0.04748   0.11082   0.16266   0.21224   0.24192
 Alpha virt. eigenvalues --    0.25713   0.27156   0.27956   0.28217   0.28959
 Alpha virt. eigenvalues --    0.29292   0.30820   0.32344   0.32713   0.33058

 Mulliken charges:
               1
     1  C   -0.170235
     2  C   -0.218595
     3  C   -0.170613
     4  C    0.159307
     5  C   -0.170630
     6  C   -0.218624
     7  H    0.226581
     8  H    0.224418
     9  H    0.276248
    10  H    0.276151
    11  H    0.224383
    12  N    0.488363
    13  O   -0.458325
    14  O   -0.458317
    15  C   -0.296639
    16  C   -0.312868
    17  C   -0.472764
    18  H    0.141869
    19  H    0.148932
    20  H    0.142009
    21  H    0.186798
    22  H    0.157683
    23  H    0.144953
    24  H    0.156649
    25  C   -0.299266
    26  C   -0.298508
    27  C   -0.474508
    28  H    0.146010
    29  H    0.157256
    30  H    0.149135
    31  H    0.149623
    32  H    0.153503
    33  H    0.153822
    34  H    0.156200
 Sum of Mulliken charges =  -0.00000

 Dipole moment (field-independent basis, Debye):
    X=             -5.4079    Y=              1.8574    Z=              0.6565  Tot=              5.7556
 Quadrupole moment (field-independent basis, Debye-Ang):
   XX=            -70.6775   YY=            -96.0995   ZZ=            -91.6946
   XY=             -4.3149   XZ=             -2.4803   YZ=             -2.7615

 Normal termination of Gaussian 16 at Thu May  6 06:21:38 2021.
