 Gaussian 16, Revision A.03,
 Gaussian 16:  EM64L-G16RevA.03 25-Dec-2016

 -------------
 #p 6-31g* mp2
 -------------

 ------------------------------------------------------
 Input file generated by CHIRIPA (05-May-2021 14:55:25)
 ------------------------------------------------------
 Symbolic Z-matrix:
 Charge =  0 Multiplicity = 1

                         Standard orientation:
 ---------------------------------------------------------------------
 Center     Atomic      Atomic             Coordinates (Angstroms)
 Number     Number       Type             X           Y           Z
 ---------------------------------------------------------------------
      1          6           0       -2.808466   -2.689611    0.222328
      2          6           0       -2.556212   -1.905288    1.352694
      3          6           0       -2.326977   -0.531882    1.227170
      4          6           0       -2.357463    0.026806   -0.049633
      5          6           0       -2.606033   -0.728046   -1.194929
      6          6           0       -2.832530   -2.099527   -1.045640
      7          1           0       -2.985478   -3.755758    0.329068
      8          1           0       -2.536922   -2.360852    2.338662
      9          1           0       -2.129258    0.098775    2.085422
     10          1           0       -2.618918   -0.245434   -2.164638
     11          1           0       -3.028179   -2.706183   -1.925262
     12          7           0       -2.116232    1.479751   -0.195099
     13          8           0       -2.148446    1.947908   -1.331069
     14          8           0       -1.899509    2.122899    0.829610
     15          6           0        3.171946   -0.461557    0.218096
     16          6           0        4.390124   -1.091619   -0.457959
     17          6           0        4.583941   -2.559767   -0.077474
     18          1           0        3.279688   -0.548224    1.307970
     19          1           0        2.273853   -1.033371   -0.053665
     20          1           0        5.285462   -0.517959   -0.186114
     21          1           0        4.279559   -1.003271   -1.546346
     22          1           0        3.708070   -3.150843   -0.363972
     23          1           0        4.719689   -2.662774    1.003990
     24          1           0        5.460296   -2.990319   -0.571930
     25          6           0        2.964938    1.005958   -0.152409
     26          6           0        1.746761    1.636020    0.523646
     27          6           0        1.552942    3.104168    0.143161
     28          1           0        3.863030    1.577772    0.119353
     29          1           0        2.857195    1.092626   -1.242284
     30          1           0        1.857324    1.547672    1.612033
     31          1           0        0.851422    1.062360    0.251800
     32          1           0        1.417195    3.207175   -0.938303
     33          1           0        2.428813    3.695244    0.429658
     34          1           0        0.676588    3.534720    0.637618
 ---------------------------------------------------------------------

 SCF Done:  E(RHF) =  -669.535994785     A.U. after   15 cycles
 E2 =    -0.2092651658D+01 EUMP2 =    -0.67162864644317D+03

 The electronic state is 1-A.
 Alpha  occ. eigenvalues --  -20.60941 -20.60933 -15.85955 -11.31289 -11.27850
 Alpha  occ. eigenvalues --  -11.27842 -11.27583 -11.26852 -11.26839 -11.21413
 Alpha  occ. eigenvalues --  -11.21088 -11.21014 -11.20851 -11.20791 -11.19735
 Alpha  occ. eigenvalues --   -1.59993  -1.39549  -1.19454  -1.08858  -1.07977
 Alpha  occ. eigenvalues --   -1.04846  -1.02971  -0.95703  -0.95389  -0.86413
 Alpha  occ. eigenvalues --   -0.86246  -0.82531  -0.79088  -0.77772  -0.77577
 Alpha  occ. eigenvalues --   -0.72186  -0.71334  -0.70557  -0.65107  -0.64848
 Alpha  occ. eigenvalues --   -0.64617  -0.62192  -0.60379  -0.58817  -0.56968
 Alpha  occ. eigenvalues --   -0.55350  -0.54703  -0.53182  -0.52937  -0.52040
 Alpha  occ. eigenvalues --   -0.51824  -0.49380  -0.48946  -0.48917  -0.47358
 Alpha  occ. eigenvalues --   -0.46172  -0.45355  -0.45255  -0.44819  -0.43203
 Alpha  occ. eigenvalues --   -0.37425  -0.36444
 Alpha virt. eigenvalues --    0.04917   0.11194   0.16386   0.21338   0.23206
 Alpha virt. eigenvalues --    0.24844   0.26907   0.27246   0.27703   0.28239
 Alpha virt. eigenvalues --    0.28735   0.30805   0.31709   0.32034   0.32445

 Mulliken charges:
               1
     1  C   -0.170502
     2  C   -0.218458
     3  C   -0.170424
     4  C    0.155770
     5  C   -0.171375
     6  C   -0.218749
     7  H    0.226073
     8  H    0.224015
     9  H    0.276354
    10  H    0.275819
    11  H    0.223782
    12  N    0.490369
    13  O   -0.458724
    14  O   -0.458423
    15  C   -0.297369
    16  C   -0.299049
    17  C   -0.475096
    18  H    0.147631
    19  H    0.146485
    20  H    0.152322
    21  H    0.151655
    22  H    0.152552
    23  H    0.154262
    24  H    0.159548
    25  C   -0.298134
    26  C   -0.294589
    27  C   -0.481209
    28  H    0.148639
    29  H    0.149536
    30  H    0.148286
    31  H    0.143008
    32  H    0.156719
    33  H    0.146931
    34  H    0.182345
 Sum of Mulliken charges =  -0.00000

 Dipole moment (field-independent basis, Debye):
    X=             -1.0788    Y=             -5.0005    Z=              0.5217  Tot=              5.1421
 Quadrupole moment (field-independent basis, Debye-Ang):
   XX=            -91.7763   YY=            -96.3589   ZZ=            -89.2699
   XY=             12.7654   XZ=             -0.1530   YZ=              1.1553

 Normal termination of Gaussian 16 at Thu May  6 14:22:39 2021.
