 Gaussian 16, Revision A.03,
 Gaussian 16:  EM64L-G16RevA.03 25-Dec-2016

 -------------
 #p 6-31g* mp2
 -------------

 ------------------------------------------------------
 Input file generated by CHIRIPA (05-May-2021 14:55:25)
 ------------------------------------------------------
 Symbolic Z-matrix:
 Charge =  0 Multiplicity = 1

                         Standard orientation:
 ---------------------------------------------------------------------
 Center     Atomic      Atomic             Coordinates (Angstroms)
 Number     Number       Type             X           Y           Z
 ---------------------------------------------------------------------
      1          6           0        1.533645    2.025264    0.076697
      2          6           0        2.855085    2.081438    0.531848
      3          6           0        3.669807    0.946139    0.488566
      4          6           0        3.128184   -0.234095   -0.018368
      5          6           0        1.815511   -0.321802   -0.479332
      6          6           0        1.018983    0.825938   -0.426553
      7          1           0        0.907817    2.912023    0.114009
      8          1           0        3.257447    3.011492    0.923191
      9          1           0        4.696272    0.961621    0.834323
     10          1           0        1.442536   -1.263237   -0.864050
     11          1           0       -0.006903    0.779377   -0.780722
     12          7           0        3.981063   -1.442570   -0.069216
     13          8           0        3.480152   -2.470275   -0.520377
     14          8           0        5.134311   -1.339184    0.343054
     15          6           0       -4.358026   -0.431714    0.280063
     16          6           0       -4.113397   -1.892054   -0.101446
     17          6           0       -5.189873   -2.832934    0.440528
     18          1           0       -4.403058   -0.347906    1.374547
     19          1           0       -5.341917   -0.121130   -0.097948
     20          1           0       -3.129668   -2.199378    0.275974
     21          1           0       -4.068752   -1.972364   -1.195143
     22          1           0       -6.175447   -2.554055    0.053914
     23          1           0       -5.231028   -2.782358    1.533391
     24          1           0       -4.995366   -3.871735    0.156063
     25          6           0       -3.290278    0.521118   -0.254495
     26          6           0       -3.534908    1.981457    0.127014
     27          6           0       -2.458431    2.922338   -0.414960
     28          1           0       -2.306388    0.210534    0.123515
     29          1           0       -3.245247    0.437309   -1.348979
     30          1           0       -3.579553    2.061768    1.220711
     31          1           0       -4.518636    2.288782   -0.250406
     32          1           0       -2.417276    2.871762   -1.507823
     33          1           0       -1.472857    2.643458   -0.028347
     34          1           0       -2.652939    3.961139   -0.130496
 ---------------------------------------------------------------------

 SCF Done:  E(RHF) =  -669.534927815     A.U. after   15 cycles
 E2 =    -0.2092452217D+01 EUMP2 =    -0.67162738003174D+03

 The electronic state is 1-A.
 Alpha  occ. eigenvalues --  -20.60719 -20.60714 -15.85771 -11.31124 -11.27695
 Alpha  occ. eigenvalues --  -11.27680 -11.27399 -11.26704 -11.26628 -11.22622
 Alpha  occ. eigenvalues --  -11.22398 -11.22386 -11.22156 -11.22069 -11.21467
 Alpha  occ. eigenvalues --   -1.59794  -1.39348  -1.19292  -1.09281  -1.08689
 Alpha  occ. eigenvalues --   -1.04695  -1.04353  -0.96839  -0.95528  -0.87858
 Alpha  occ. eigenvalues --   -0.86097  -0.82359  -0.80456  -0.79075  -0.77403
 Alpha  occ. eigenvalues --   -0.71990  -0.71117  -0.70428  -0.65941  -0.64946
 Alpha  occ. eigenvalues --   -0.64697  -0.62106  -0.61677  -0.60203  -0.58427
 Alpha  occ. eigenvalues --   -0.56195  -0.55168  -0.53498  -0.53249  -0.53024
 Alpha  occ. eigenvalues --   -0.52796  -0.50770  -0.48803  -0.48745  -0.48678
 Alpha  occ. eigenvalues --   -0.47454  -0.46586  -0.46484  -0.44757  -0.44602
 Alpha  occ. eigenvalues --   -0.37268  -0.36292
 Alpha virt. eigenvalues --    0.05114   0.11272   0.16572   0.20026   0.22475
 Alpha virt. eigenvalues --    0.23751   0.25472   0.25696   0.26205   0.27932
 Alpha virt. eigenvalues --    0.29144   0.29901   0.30928   0.31304   0.31620

 Mulliken charges:
               1
     1  C   -0.176078
     2  C   -0.218391
     3  C   -0.171041
     4  C    0.158463
     5  C   -0.172661
     6  C   -0.225841
     7  H    0.229577
     8  H    0.223241
     9  H    0.275319
    10  H    0.275571
    11  H    0.233535
    12  N    0.488085
    13  O   -0.460578
    14  O   -0.460638
    15  C   -0.298353
    16  C   -0.300843
    17  C   -0.476303
    18  H    0.152130
    19  H    0.151995
    20  H    0.152468
    21  H    0.152416
    22  H    0.155903
    23  H    0.156468
    24  H    0.163123
    25  C   -0.304684
    26  C   -0.298731
    27  C   -0.484770
    28  H    0.147006
    29  H    0.149905
    30  H    0.155538
    31  H    0.156870
    32  H    0.158123
    33  H    0.147740
    34  H    0.165437
 Sum of Mulliken charges =  -0.00000

 Dipole moment (field-independent basis, Debye):
    X=             -3.2778    Y=              4.2374    Z=              0.2033  Tot=              5.3611
 Quadrupole moment (field-independent basis, Debye-Ang):
   XX=           -110.1289   YY=            -96.2273   ZZ=            -94.0828
   XY=             15.7660   XZ=              2.9603   YZ=              1.2205

 Normal termination of Gaussian 16 at Thu May  6 01:37:52 2021.
