 Gaussian 16, Revision A.03,
 Gaussian 16:  EM64L-G16RevA.03 25-Dec-2016

 -------------
 #p 6-31g* mp2
 -------------

 ------------------------------------------------------
 Input file generated by CHIRIPA (05-May-2021 14:57:22)
 ------------------------------------------------------
 Symbolic Z-matrix:
 Charge =  0 Multiplicity = 1

                         Standard orientation:
 ---------------------------------------------------------------------
 Center     Atomic      Atomic             Coordinates (Angstroms)
 Number     Number       Type             X           Y           Z
 ---------------------------------------------------------------------
      1          6           0        2.557429    2.369228   -0.732503
      2          6           0        3.734641    1.747011   -1.160917
      3          6           0        3.995350    0.414568   -0.827488
      4          6           0        3.052809   -0.268904   -0.060826
      5          6           0        1.870723    0.323309    0.381043
      6          6           0        1.630861    1.656647    0.035756
      7          1           0        2.363001    3.404649   -0.996124
      8          1           0        4.456019    2.297961   -1.757670
      9          1           0        4.898591   -0.091588   -1.145891
     10          1           0        1.170504   -0.251721    0.974719
     11          1           0        0.715771    2.137305    0.369858
     12          7           0        3.317775   -1.679975    0.298437
     13          8           0        2.471450   -2.260320    0.974877
     14          8           0        4.366763   -2.178910   -0.103215
     15          6           0       -1.846770    1.849040    1.434932
     16          6           0       -1.645227    0.505124    1.766281
     17          6           0       -2.284085   -0.507598    1.044616
     18          6           0       -3.121512   -0.138903   -0.007082
     19          6           0       -3.342530    1.191075   -0.361485
     20          6           0       -2.693286    2.187129    0.373977
     21          1           0       -1.346456    2.629273    2.000898
     22          1           0       -0.988364    0.239614    2.589737
     23          1           0       -2.145894   -1.555953    1.279719
     24          1           0       -4.003149    1.424710   -1.187569
     25          1           0       -2.851678    3.229999    0.114402
     26          7           0       -3.803341   -1.202204   -0.778380
     27          8           0       -4.536197   -0.851179   -1.700519
     28          8           0       -3.591991   -2.366512   -0.446181
 ---------------------------------------------------------------------

 SCF Done:  E(RHF) =  -868.336324925     A.U. after   16 cycles
 E2 =    -0.2602747541D+01 EUMP2 =    -0.87093907246661D+03

 The electronic state is 1-A.
 Alpha  occ. eigenvalues --  -20.61188 -20.61166 -20.61025 -20.61010 -15.86243
 Alpha  occ. eigenvalues --  -15.86073 -11.31896 -11.31458 -11.28511 -11.28467
 Alpha  occ. eigenvalues --  -11.28381 -11.28021 -11.28008 -11.27783 -11.27624
 Alpha  occ. eigenvalues --  -11.27603 -11.27041 -11.26994  -1.60249  -1.60090
 Alpha  occ. eigenvalues --   -1.39793  -1.39646  -1.20135  -1.19627  -1.09509
 Alpha  occ. eigenvalues --   -1.09024  -1.05566  -1.05028  -0.96271  -0.95859
 Alpha  occ. eigenvalues --   -0.86952  -0.86447  -0.83079  -0.82692  -0.78059
 Alpha  occ. eigenvalues --   -0.77732  -0.72456  -0.72293  -0.71576  -0.71411
 Alpha  occ. eigenvalues --   -0.71269  -0.70769  -0.65781  -0.65568  -0.65277
 Alpha  occ. eigenvalues --   -0.65063  -0.62895  -0.62396  -0.56123  -0.55589
 Alpha  occ. eigenvalues --   -0.53891  -0.53638  -0.53353  -0.53058  -0.49241
 Alpha  occ. eigenvalues --   -0.49190  -0.49053  -0.49041  -0.45134  -0.45046
 Alpha  occ. eigenvalues --   -0.38155  -0.37621  -0.37159  -0.36622
 Alpha virt. eigenvalues --    0.04393   0.04805   0.10390   0.11001   0.15646
 Alpha virt. eigenvalues --    0.16274   0.19665   0.22007   0.25520   0.26454
 Alpha virt. eigenvalues --    0.28229   0.29058   0.29954   0.31471   0.31986

 Mulliken charges:
               1
     1  C   -0.172359
     2  C   -0.218197
     3  C   -0.170382
     4  C    0.160345
     5  C   -0.175676
     6  C   -0.220734
     7  H    0.224160
     8  H    0.224151
     9  H    0.276627
    10  H    0.270730
    11  H    0.223245
    12  N    0.488659
    13  O   -0.462460
    14  O   -0.458385
    15  C   -0.184546
    16  C   -0.226600
    17  C   -0.169109
    18  C    0.160566
    19  C   -0.168466
    20  C   -0.219017
    21  H    0.225961
    22  H    0.229193
    23  H    0.285011
    24  H    0.278584
    25  H    0.224701
    26  N    0.487787
    27  O   -0.459152
    28  O   -0.454637
 Sum of Mulliken charges =  -0.00000

 Dipole moment (field-independent basis, Debye):
    X=              1.1978    Y=              8.5079    Z=              1.3570  Tot=              8.6983
 Quadrupole moment (field-independent basis, Debye-Ang):
   XX=           -120.5324   YY=           -107.1294   ZZ=           -102.8986
   XY=              2.0609   XZ=            -13.5629   YZ=             -2.9394

 Normal termination of Gaussian 16 at Fri May  7 01:43:30 2021.
