 Gaussian 16, Revision A.03,
 Gaussian 16:  EM64L-G16RevA.03 25-Dec-2016

 -------------
 #p 6-31g* mp2
 -------------

 ------------------------------------------------------
 Input file generated by CHIRIPA (05-May-2021 14:53:15)
 ------------------------------------------------------
 Symbolic Z-matrix:
 Charge =  0 Multiplicity = 1

                         Standard orientation:
 ---------------------------------------------------------------------
 Center     Atomic      Atomic             Coordinates (Angstroms)
 Number     Number       Type             X           Y           Z
 ---------------------------------------------------------------------
      1          6           0        4.411314   -0.098957   -0.205439
      2          6           0        5.277398    1.161153   -0.202955
      3          6           0        6.390123    1.115751   -1.250608
      4          1           0        5.049506   -0.975175   -0.026839
      5          1           0        3.971252   -0.231027   -1.203587
      6          1           0        5.714588    1.291566    0.795280
      7          1           0        4.637042    2.034492   -0.381392
      8          1           0        5.968945    1.009735   -2.255581
      9          1           0        7.052613    0.262588   -1.072223
     10          1           0        6.996994    2.026354   -1.231419
     11          6           0        3.294524   -0.068539    0.836474
     12          6           0        2.428440   -1.328649    0.833990
     13          6           0        1.315715   -1.283247    1.881643
     14          1           0        3.734586    0.063531    1.834622
     15          1           0        2.656333    0.807679    0.657874
     16          1           0        3.068796   -2.201988    1.012427
     17          1           0        1.991250   -1.459062   -0.164245
     18          1           0        0.653225   -0.430084    1.703258
     19          1           0        1.736894   -1.177231    2.886616
     20          1           0        0.708844   -2.193851    1.862454
     21          6           0       -4.243654    2.179516    0.365776
     22          6           0       -2.845618    2.172690    0.321418
     23          6           0       -2.151658    1.007050   -0.016590
     24          6           0       -2.890836   -0.138954   -0.305690
     25          6           0       -4.284180   -0.163847   -0.270099
     26          6           0       -4.957215    1.013282    0.070397
     27          1           0       -4.774612    3.089476    0.629315
     28          1           0       -2.288845    3.076929    0.550332
     29          1           0       -1.069736    0.973800   -0.058522
     30          1           0       -4.811675   -1.080776   -0.503354
     31          1           0       -6.042990    1.015652    0.104050
     32          7           0       -2.167249   -1.379047   -0.664841
     33          8           0       -2.841703   -2.375558   -0.915265
     34          8           0       -0.939346   -1.331038   -0.689119
 ---------------------------------------------------------------------

 SCF Done:  E(RHF) =  -669.535774980     A.U. after   15 cycles
 E2 =    -0.2092029292D+01 EUMP2 =    -0.67162780427252D+03

 The electronic state is 1-A.
 Alpha  occ. eigenvalues --  -20.60928 -20.60913 -15.85954 -11.31285 -11.27851
 Alpha  occ. eigenvalues --  -11.27841 -11.27581 -11.26857 -11.26847 -11.21274
 Alpha  occ. eigenvalues --  -11.20890 -11.20794 -11.20788 -11.20549 -11.20112
 Alpha  occ. eigenvalues --   -1.59983  -1.39540  -1.19451  -1.08854  -1.07844
 Alpha  occ. eigenvalues --   -1.04850  -1.02877  -0.95708  -0.95346  -0.86391
 Alpha  occ. eigenvalues --   -0.86249  -0.82532  -0.78975  -0.77632  -0.77586
 Alpha  occ. eigenvalues --   -0.72196  -0.71297  -0.70562  -0.65118  -0.64858
 Alpha  occ. eigenvalues --   -0.64463  -0.62206  -0.60249  -0.58745  -0.56940
 Alpha  occ. eigenvalues --   -0.55354  -0.54660  -0.53178  -0.52944  -0.52035
 Alpha  occ. eigenvalues --   -0.51795  -0.49385  -0.48931  -0.48903  -0.47285
 Alpha  occ. eigenvalues --   -0.46023  -0.45212  -0.45062  -0.44870  -0.43149
 Alpha  occ. eigenvalues --   -0.37426  -0.36448
 Alpha virt. eigenvalues --    0.04926   0.11157   0.16421   0.20663   0.23118
 Alpha virt. eigenvalues --    0.24291   0.26501   0.27469   0.28031   0.28251
 Alpha virt. eigenvalues --    0.29105   0.30671   0.31501   0.32352   0.32545

 Mulliken charges:
               1
     1  C   -0.298189
     2  C   -0.298680
     3  C   -0.475382
     4  H    0.149842
     5  H    0.151506
     6  H    0.150678
     7  H    0.148733
     8  H    0.155333
     9  H    0.155413
    10  H    0.158300
    11  C   -0.296292
    12  C   -0.304412
    13  C   -0.467123
    14  H    0.146187
    15  H    0.141010
    16  H    0.148537
    17  H    0.171842
    18  H    0.145426
    19  H    0.145223
    20  H    0.167790
    21  C   -0.170552
    22  C   -0.218786
    23  C   -0.171694
    24  C    0.157824
    25  C   -0.170668
    26  C   -0.218451
    27  H    0.226009
    28  H    0.224001
    29  H    0.277241
    30  H    0.275816
    31  H    0.223814
    32  N    0.492604
    33  O   -0.459390
    34  O   -0.463510
 Sum of Mulliken charges =  -0.00000

 Dipole moment (field-independent basis, Debye):
    X=             -2.7710    Y=              4.2237    Z=              1.1279  Tot=              5.1759
 Quadrupole moment (field-independent basis, Debye-Ang):
   XX=            -77.1471   YY=            -94.9833   ZZ=            -96.8075
   XY=            -10.8138   XZ=             -1.6970   YZ=             -1.3262

 Normal termination of Gaussian 16 at Thu May  6 12:09:47 2021.
