 Gaussian 16, Revision A.03,
 Gaussian 16:  EM64L-G16RevA.03 25-Dec-2016

 -------------
 #p 6-31g* mp2
 -------------

 ------------------------------------------------------
 Input file generated by CHIRIPA (05-May-2021 14:57:23)
 ------------------------------------------------------
 Symbolic Z-matrix:
 Charge =  0 Multiplicity = 1

                         Standard orientation:
 ---------------------------------------------------------------------
 Center     Atomic      Atomic             Coordinates (Angstroms)
 Number     Number       Type             X           Y           Z
 ---------------------------------------------------------------------
      1          6           0       -2.576114    2.367569    0.822766
      2          6           0       -2.863105    1.384492    1.775508
      3          6           0       -3.246554    0.100356    1.377374
      4          6           0       -3.333186   -0.167361    0.012049
      5          6           0       -3.053731    0.790702   -0.961249
      6          6           0       -2.672174    2.068064   -0.540169
      7          1           0       -2.278977    3.362485    1.140958
      8          1           0       -2.789343    1.614253    2.834665
      9          1           0       -3.474451   -0.679592    2.093727
     10          1           0       -3.136104    0.531759   -2.009858
     11          1           0       -2.449892    2.829555   -1.282306
     12          7           0       -3.738125   -1.523233   -0.421583
     13          8           0       -3.806981   -1.733844   -1.630524
     14          8           0       -3.978992   -2.349680    0.455688
     15          6           0        0.856025    0.556374   -0.508562
     16          6           0        1.168362   -0.621620    0.177949
     17          6           0        2.500409   -0.970973    0.419094
     18          6           0        3.499478   -0.115314   -0.042426
     19          6           0        3.220289    1.065143   -0.729348
     20          6           0        1.881178    1.394518   -0.959225
     21          1           0       -0.181484    0.820001   -0.691512
     22          1           0        0.374278   -1.274437    0.529098
     23          1           0        2.770445   -1.876942    0.947979
     24          1           0        4.033619    1.695834   -1.067196
     25          1           0        1.641574    2.309992   -1.492650
     26          7           0        4.913395   -0.474585    0.206899
     27          8           0        5.775213    0.296196   -0.209995
     28          8           0        5.133031   -1.520159    0.814494
 ---------------------------------------------------------------------

 SCF Done:  E(RHF) =  -868.337086798     A.U. after   16 cycles
 E2 =    -0.2602079813D+01 EUMP2 =    -0.87093916661137D+03

 The electronic state is 1-A.
 Alpha  occ. eigenvalues --  -20.61844 -20.61838 -20.60773 -20.60765 -15.86907
 Alpha  occ. eigenvalues --  -15.85827 -11.32507 -11.31178 -11.29079 -11.29038
 Alpha  occ. eigenvalues --  -11.28776 -11.28104 -11.28020 -11.27797 -11.27739
 Alpha  occ. eigenvalues --  -11.27333 -11.26802 -11.26697  -1.60923  -1.59849
 Alpha  occ. eigenvalues --   -1.40466  -1.39402  -1.20703  -1.19354  -1.10018
 Alpha  occ. eigenvalues --   -1.08738  -1.06110  -1.04766  -0.96810  -0.95576
 Alpha  occ. eigenvalues --   -0.87457  -0.86160  -0.83625  -0.82419  -0.78652
 Alpha  occ. eigenvalues --   -0.77478  -0.73102  -0.72276  -0.72043  -0.71698
 Alpha  occ. eigenvalues --   -0.71174  -0.70474  -0.66296  -0.66035  -0.65000
 Alpha  occ. eigenvalues --   -0.64790  -0.63399  -0.62123  -0.56511  -0.55781
 Alpha  occ. eigenvalues --   -0.54128  -0.53889  -0.53085  -0.52854  -0.49885
 Alpha  occ. eigenvalues --   -0.49854  -0.48803  -0.48799  -0.45817  -0.44811
 Alpha  occ. eigenvalues --   -0.38694  -0.37721  -0.37279  -0.36386
 Alpha virt. eigenvalues --    0.03833   0.05079   0.09862   0.11264   0.15267
 Alpha virt. eigenvalues --    0.16580   0.20193   0.21619   0.26038   0.27039
 Alpha virt. eigenvalues --    0.27309   0.28792   0.29938   0.31306   0.31796

 Mulliken charges:
               1
     1  C   -0.167916
     2  C   -0.216947
     3  C   -0.173101
     4  C    0.159332
     5  C   -0.181470
     6  C   -0.231934
     7  H    0.231207
     8  H    0.229741
     9  H    0.279962
    10  H    0.280111
    11  H    0.226988
    12  N    0.487298
    13  O   -0.456765
    14  O   -0.457137
    15  C   -0.176216
    16  C   -0.223945
    17  C   -0.170379
    18  C    0.157495
    19  C   -0.170434
    20  C   -0.224369
    21  H    0.237998
    22  H    0.224966
    23  H    0.276455
    24  H    0.274549
    25  H    0.217706
    26  N    0.488014
    27  O   -0.461315
    28  O   -0.459894
 Sum of Mulliken charges =  -0.00000

 Dipole moment (field-independent basis, Debye):
    X=             -3.9372    Y=              6.0153    Z=              0.8088  Tot=              7.2346
 Quadrupole moment (field-independent basis, Debye-Ang):
   XX=           -149.5463   YY=           -103.3582   ZZ=            -99.4049
   XY=             -9.9535   XZ=             -9.4318   YZ=             -3.7128

 Normal termination of Gaussian 16 at Fri May  7 12:32:28 2021.
