 Gaussian 16, Revision A.03,
 Gaussian 16:  EM64L-G16RevA.03 25-Dec-2016

 -------------
 #p 6-31g* mp2
 -------------

 ------------------------------------------------------
 Input file generated by CHIRIPA (05-May-2021 14:57:23)
 ------------------------------------------------------
 Symbolic Z-matrix:
 Charge =  0 Multiplicity = 1

                         Standard orientation:
 ---------------------------------------------------------------------
 Center     Atomic      Atomic             Coordinates (Angstroms)
 Number     Number       Type             X           Y           Z
 ---------------------------------------------------------------------
      1          6           0        3.208227    1.926000   -1.162789
      2          6           0        3.452359    0.596224   -1.521423
      3          6           0        3.008402   -0.451262   -0.708883
      4          6           0        2.320328   -0.131372    0.460525
      5          6           0        2.061603    1.183373    0.844969
      6          6           0        2.514851    2.214821    0.017182
      7          1           0        3.556712    2.733482   -1.799912
      8          1           0        3.990589    0.368950   -2.437229
      9          1           0        3.183733   -1.489679   -0.962589
     10          1           0        1.522384    1.378618    1.763958
     11          1           0        2.323822    3.246603    0.298212
     12          7           0        1.845413   -1.231809    1.328796
     13          8           0        1.241485   -0.923548    2.353922
     14          8           0        2.086094   -2.381755    0.967779
     15          6           0       -3.576819    1.985523    0.596026
     16          6           0       -4.277151    0.785783    0.432681
     17          6           0       -3.634496   -0.348358   -0.072555
     18          6           0       -2.284694   -0.246780   -0.405732
     19          6           0       -1.559708    0.934243   -0.254503
     20          6           0       -2.222721    2.055800    0.252519
     21          1           0       -4.083956    2.861664    0.989200
     22          1           0       -5.328824    0.728287    0.698615
     23          1           0       -4.152642   -1.289782   -0.209173
     24          1           0       -0.512008    0.960801   -0.528436
     25          1           0       -1.676316    2.986211    0.378310
     26          7           0       -1.593567   -1.440784   -0.941549
     27          8           0       -0.403832   -1.325326   -1.227618
     28          8           0       -2.254685   -2.469494   -1.065307
 ---------------------------------------------------------------------

 SCF Done:  E(RHF) =  -868.337310010     A.U. after   16 cycles
 E2 =    -0.2603742150D+01 EUMP2 =    -0.87094105216017D+03

 The electronic state is 1-A.
 Alpha  occ. eigenvalues --  -20.60623 -20.60559 -20.60219 -20.60130 -15.85638
 Alpha  occ. eigenvalues --  -15.85231 -11.30980 -11.30828 -11.27563 -11.27558
 Alpha  occ. eigenvalues --  -11.27538 -11.27366 -11.27329 -11.27298 -11.26685
 Alpha  occ. eigenvalues --  -11.26656 -11.26586 -11.26456  -1.59645  -1.59228
 Alpha  occ. eigenvalues --   -1.39213  -1.38782  -1.19176  -1.19069  -1.08580
 Alpha  occ. eigenvalues --   -1.08407  -1.04625  -1.04500  -0.95419  -0.95202
 Alpha  occ. eigenvalues --   -0.86020  -0.85878  -0.82279  -0.82042  -0.77330
 Alpha  occ. eigenvalues --   -0.77034  -0.71941  -0.71473  -0.71075  -0.70342
 Alpha  occ. eigenvalues --   -0.70314  -0.70166  -0.64848  -0.64725  -0.64636
 Alpha  occ. eigenvalues --   -0.64532  -0.62003  -0.61832  -0.55136  -0.55020
 Alpha  occ. eigenvalues --   -0.53091  -0.52898  -0.52610  -0.52411  -0.48626
 Alpha  occ. eigenvalues --   -0.48610  -0.48257  -0.48187  -0.44689  -0.44079
 Alpha  occ. eigenvalues --   -0.37158  -0.37029  -0.36306  -0.35995
 Alpha virt. eigenvalues --    0.05217   0.05543   0.11150   0.11795   0.16686
 Alpha virt. eigenvalues --    0.16951   0.21180   0.21871   0.26739   0.28014
 Alpha virt. eigenvalues --    0.28428   0.28608   0.30764   0.31404   0.32624

 Mulliken charges:
               1
     1  C   -0.172116
     2  C   -0.218697
     3  C   -0.157009
     4  C    0.171842
     5  C   -0.189743
     6  C   -0.223418
     7  H    0.223781
     8  H    0.224455
     9  H    0.281603
    10  H    0.272562
    11  H    0.217908
    12  N    0.490784
    13  O   -0.469161
    14  O   -0.450266
    15  C   -0.169652
    16  C   -0.218636
    17  C   -0.168406
    18  C    0.160481
    19  C   -0.174462
    20  C   -0.221197
    21  H    0.224237
    22  H    0.223313
    23  H    0.276388
    24  H    0.281401
    25  H    0.216678
    26  N    0.491990
    27  O   -0.469185
    28  O   -0.455473
 Sum of Mulliken charges =  -0.00000

 Dipole moment (field-independent basis, Debye):
    X=             -0.7303    Y=              7.5508    Z=             -1.3167  Tot=              7.6994
 Quadrupole moment (field-independent basis, Debye-Ang):
   XX=            -81.7731   YY=           -105.3551   ZZ=           -108.6417
   XY=              0.2904   XZ=            -12.0003   YZ=              2.3120

 Normal termination of Gaussian 16 at Fri May  7 09:32:36 2021.
