 Gaussian 16, Revision A.03,
 Gaussian 16:  EM64L-G16RevA.03 25-Dec-2016

 -------------
 #p 6-31g* mp2
 -------------

 ------------------------------------------------------
 Input file generated by CHIRIPA (05-May-2021 14:51:10)
 ------------------------------------------------------
 Symbolic Z-matrix:
 Charge =  0 Multiplicity = 1

                         Standard orientation:
 ---------------------------------------------------------------------
 Center     Atomic      Atomic             Coordinates (Angstroms)
 Number     Number       Type             X           Y           Z
 ---------------------------------------------------------------------
      1          6           0        3.512341    0.057654   -0.440018
      2          6           0        3.181963   -1.351822   -0.932170
      3          6           0        4.430843   -2.177165   -1.243458
      4          1           0        4.114037    0.573229   -1.200997
      5          1           0        4.139721   -0.013182    0.459300
      6          1           0        2.554245   -1.278357   -1.829494
      7          1           0        2.580822   -1.864035   -0.170013
      8          1           0        5.056854   -2.280098   -0.351204
      9          1           0        5.030127   -1.691093   -2.020114
     10          1           0        4.171560   -3.181158   -1.593643
     11          6           0        2.274131    0.894983   -0.124671
     12          6           0        2.604509    2.304458    0.367482
     13          6           0        1.355629    3.129801    0.678769
     14          1           0        1.646751    0.965818   -1.023988
     15          1           0        1.672435    0.379407    0.636308
     16          1           0        3.205650    2.816671   -0.394675
     17          1           0        3.232227    2.230994    1.264806
     18          1           0        0.756345    2.643729    1.455425
     19          1           0        0.729618    3.232734   -0.213484
     20          1           0        1.614912    4.133795    1.028955
     21          6           0       -2.629232   -1.004398    0.766973
     22          6           0       -1.321110   -0.601850    1.448705
     23          6           0       -0.805593   -1.668532    2.415258
     24          1           0       -3.389288   -1.203578    1.534820
     25          1           0       -2.477048   -1.948368    0.225535
     26          1           0       -1.475344    0.341796    1.987556
     27          1           0       -0.564135   -0.403420    0.679140
     28          1           0       -0.623788   -2.610629    1.888001
     29          1           0       -1.540174   -1.861179    3.203850
     30          1           0        0.130364   -1.360164    2.891446
     31          6           0       -3.157239    0.051762   -0.202285
     32          6           0       -4.465361   -0.350786   -0.884016
     33          6           0       -4.980880    0.715895   -1.850570
     34          1           0       -3.309424    0.995732    0.339153
     35          1           0       -2.397184    0.250941   -0.970132
     36          1           0       -5.222337   -0.549216   -0.114451
     37          1           0       -4.311128   -1.294432   -1.422867
     38          1           0       -4.246298    0.908542   -2.639162
     39          1           0       -5.162685    1.657993   -1.323313
     40          1           0       -5.916836    0.407528   -2.326757
 ---------------------------------------------------------------------

 SCF Done:  E(RHF) =  -470.733208427     A.U. after   11 cycles
 E2 =    -0.1583343125D+01 EUMP2 =    -0.47231655155211D+03

 The electronic state is 1-A.
 Alpha  occ. eigenvalues --  -11.21627 -11.21598 -11.21584 -11.21543 -11.21407
 Alpha  occ. eigenvalues --  -11.21380 -11.21343 -11.21320 -11.21104 -11.21089
 Alpha  occ. eigenvalues --  -11.21059 -11.21043  -1.08455  -1.08397  -1.03545
 Alpha  occ. eigenvalues --   -1.03510  -0.95991  -0.95966  -0.87002  -0.86985
 Alpha  occ. eigenvalues --   -0.79664  -0.79536  -0.78374  -0.78102  -0.65131
 Alpha  occ. eigenvalues --   -0.64990  -0.60944  -0.60913  -0.59400  -0.59298
 Alpha  occ. eigenvalues --   -0.57642  -0.57541  -0.55308  -0.55221  -0.52685
 Alpha  occ. eigenvalues --   -0.52663  -0.52413  -0.52398  -0.49977  -0.49864
 Alpha  occ. eigenvalues --   -0.48068  -0.47809  -0.46736  -0.46603  -0.46059
 Alpha  occ. eigenvalues --   -0.45741  -0.45704  -0.45241  -0.43791  -0.43767
 Alpha virt. eigenvalues --    0.21055   0.23192   0.23789   0.24162   0.25769
 Alpha virt. eigenvalues --    0.26272   0.26676   0.27849   0.28397   0.29576
 Alpha virt. eigenvalues --    0.30255   0.31367   0.31498   0.31814   0.32191

 Mulliken charges:
               1
     1  C   -0.297548
     2  C   -0.300428
     3  C   -0.475600
     4  H    0.149642
     5  H    0.149460
     6  H    0.151410
     7  H    0.152352
     8  H    0.155357
     9  H    0.155267
    10  H    0.160227
    11  C   -0.305314
    12  C   -0.299199
    13  C   -0.476825
    14  H    0.148522
    15  H    0.158154
    16  H    0.151819
    17  H    0.151653
    18  H    0.156735
    19  H    0.155279
    20  H    0.159976
    21  C   -0.297748
    22  C   -0.307007
    23  C   -0.476716
    24  H    0.149306
    25  H    0.149434
    26  H    0.151686
    27  H    0.159838
    28  H    0.155349
    29  H    0.155619
    30  H    0.159230
    31  C   -0.298280
    32  C   -0.299653
    33  C   -0.475666
    34  H    0.149755
    35  H    0.149725
    36  H    0.151903
    37  H    0.151840
    38  H    0.155003
    39  H    0.155261
    40  H    0.160180
 Sum of Mulliken charges =  -0.00000

 Dipole moment (field-independent basis, Debye):
    X=              0.0082    Y=              0.0043    Z=             -0.0021  Tot=              0.0095
 Quadrupole moment (field-independent basis, Debye-Ang):
   XX=            -85.4579   YY=            -85.4969   ZZ=            -83.9178
   XY=              0.6530   XZ=             -0.5298   YZ=              0.3206

 Normal termination of Gaussian 16 at Thu May  6 02:11:19 2021.
