 Gaussian 16, Revision A.03,
 Gaussian 16:  EM64L-G16RevA.03 25-Dec-2016

 -------------
 #p 6-31g* mp2
 -------------

 ------------------------------------------------------
 Input file generated by CHIRIPA (05-May-2021 14:55:21)
 ------------------------------------------------------
 Symbolic Z-matrix:
 Charge =  0 Multiplicity = 1

                         Standard orientation:
 ---------------------------------------------------------------------
 Center     Atomic      Atomic             Coordinates (Angstroms)
 Number     Number       Type             X           Y           Z
 ---------------------------------------------------------------------
      1          6           0       -2.671418    2.333351   -0.409712
      2          6           0       -4.045857    2.109796   -0.277571
      3          6           0       -4.544550    0.810198   -0.147582
      4          6           0       -3.636290   -0.247307   -0.153753
      5          6           0       -2.261460   -0.056918   -0.283694
      6          6           0       -1.785168    1.251189   -0.412348
      7          1           0       -2.292722    3.346215   -0.510172
      8          1           0       -4.736467    2.948305   -0.275196
      9          1           0       -5.603793    0.608589   -0.043770
     10          1           0       -1.597651   -0.912940   -0.282607
     11          1           0       -0.717258    1.421813   -0.514812
     12          7           0       -4.152376   -1.627637   -0.016847
     13          8           0       -3.331408   -2.542283   -0.025200
     14          8           0       -5.368081   -1.768756    0.096221
     15          6           0        5.106319    0.122847   -0.283724
     16          6           0        6.310941   -0.787090   -0.041061
     17          6           0        7.424402   -0.580345   -1.068315
     18          1           0        4.714144   -0.060132   -1.293507
     19          1           0        5.436735    1.170578   -0.261840
     20          1           0        5.978107   -1.832748   -0.062020
     21          1           0        6.700176   -0.602061    0.968333
     22          1           0        7.784390    0.453286   -1.043481
     23          1           0        7.058219   -0.784393   -2.079688
     24          1           0        8.275699   -1.240789   -0.876047
     25          6           0        3.984837   -0.072129    0.735095
     26          6           0        2.780215    0.837808    0.492432
     27          6           0        1.666753    0.631063    1.519687
     28          1           0        3.654421   -1.119861    0.713211
     29          1           0        4.377011    0.110850    1.744878
     30          1           0        2.390980    0.652778   -0.516962
     31          1           0        3.113048    1.883465    0.513391
     32          1           0        2.032937    0.835111    2.531060
     33          1           0        1.306765   -0.402569    1.494852
     34          1           0        0.815456    1.291506    1.327417
 ---------------------------------------------------------------------

 SCF Done:  E(RHF) =  -669.535376985     A.U. after   15 cycles
 E2 =    -0.2091199580D+01 EUMP2 =    -0.67162657656537D+03

 The electronic state is 1-A.
 Alpha  occ. eigenvalues --  -20.60745 -20.60740 -15.85798 -11.31160 -11.27734
 Alpha  occ. eigenvalues --  -11.27724 -11.27474 -11.26748 -11.26706 -11.22373
 Alpha  occ. eigenvalues --  -11.21920 -11.21907 -11.21867 -11.21786 -11.21329
 Alpha  occ. eigenvalues --   -1.59820  -1.39374  -1.19334  -1.08941  -1.08730
 Alpha  occ. eigenvalues --   -1.04738  -1.04064  -0.96507  -0.95565  -0.87524
 Alpha  occ. eigenvalues --   -0.86134  -0.82396  -0.80135  -0.78723  -0.77445
 Alpha  occ. eigenvalues --   -0.72017  -0.71142  -0.70444  -0.65572  -0.64985
 Alpha  occ. eigenvalues --   -0.64775  -0.62151  -0.61437  -0.59879  -0.58114
 Alpha  occ. eigenvalues --   -0.55775  -0.55237  -0.53363  -0.53024  -0.53015
 Alpha  occ. eigenvalues --   -0.52596  -0.50432  -0.48776  -0.48771  -0.48441
 Alpha  occ. eigenvalues --   -0.47167  -0.46270  -0.46172  -0.44780  -0.44305
 Alpha  occ. eigenvalues --   -0.37315  -0.36322
 Alpha virt. eigenvalues --    0.05086   0.11240   0.16514   0.19849   0.22668
 Alpha virt. eigenvalues --    0.23787   0.25934   0.26423   0.26865   0.28011
 Alpha virt. eigenvalues --    0.29347   0.29833   0.31037   0.31425   0.31975

 Mulliken charges:
               1
     1  C   -0.171978
     2  C   -0.218453
     3  C   -0.170860
     4  C    0.158512
     5  C   -0.171559
     6  C   -0.220908
     7  H    0.225606
     8  H    0.223294
     9  H    0.275539
    10  H    0.275583
    11  H    0.229060
    12  N    0.488158
    13  O   -0.460570
    14  O   -0.460525
    15  C   -0.298728
    16  C   -0.300244
    17  C   -0.476016
    18  H    0.149740
    19  H    0.149459
    20  H    0.153490
    21  H    0.152690
    22  H    0.155104
    23  H    0.155590
    24  H    0.161682
    25  C   -0.298592
    26  C   -0.302209
    27  C   -0.480960
    28  H    0.152225
    29  H    0.151915
    30  H    0.147396
    31  H    0.152722
    32  H    0.161170
    33  H    0.158280
    34  H    0.154388
 Sum of Mulliken charges =  -0.00000

 Dipole moment (field-independent basis, Debye):
    X=              1.9682    Y=              4.8299    Z=             -0.4332  Tot=              5.2335
 Quadrupole moment (field-independent basis, Debye-Ang):
   XX=           -103.6097   YY=            -96.6202   ZZ=            -95.4681
   XY=            -20.0799   XZ=              2.1869   YZ=             -0.0809

 Normal termination of Gaussian 16 at Thu May  6 14:09:07 2021.
