 Gaussian 16, Revision A.03,
 Gaussian 16:  EM64L-G16RevA.03 25-Dec-2016

 -------------
 #p 6-31g* mp2
 -------------

 ------------------------------------------------------
 Input file generated by CHIRIPA (05-May-2021 14:51:10)
 ------------------------------------------------------
 Symbolic Z-matrix:
 Charge =  0 Multiplicity = 1

                         Standard orientation:
 ---------------------------------------------------------------------
 Center     Atomic      Atomic             Coordinates (Angstroms)
 Number     Number       Type             X           Y           Z
 ---------------------------------------------------------------------
      1          6           0       -3.366635   -0.473511   -0.335962
      2          6           0       -2.148995   -0.279975    0.568407
      3          6           0       -0.829353   -0.572495   -0.146275
      4          1           0       -3.373879   -1.504731   -0.714746
      5          1           0       -3.270776    0.181072   -1.213302
      6          1           0       -2.247794   -0.933713    1.444467
      7          1           0       -2.144754    0.750849    0.945236
      8          1           0       -0.704250    0.088515   -1.009998
      9          1           0       -0.807876   -1.605619   -0.507930
     10          1           0        0.027920   -0.427897    0.518582
     11          6           0       -4.693325   -0.184849    0.364249
     12          6           0       -5.910965   -0.378385   -0.540120
     13          6           0       -7.230607   -0.085865    0.174563
     14          1           0       -4.789184   -0.839432    1.241590
     15          1           0       -4.686081    0.846371    0.743033
     16          1           0       -5.915206   -1.409209   -0.916948
     17          1           0       -5.812166    0.275353   -1.416180
     18          1           0       -7.252084    0.947259    0.536217
     19          1           0       -7.355710   -0.746874    1.038285
     20          1           0       -8.087880   -0.230463   -0.490294
     21          6           0        3.913646    1.083921    0.002105
     22          6           0        2.436472    1.471525   -0.073421
     23          6           0        2.219902    2.984722   -0.039857
     24          1           0        4.348126    1.497620    0.922445
     25          1           0        4.451311    1.550860   -0.834723
     26          1           0        1.901501    1.002869    0.762511
     27          1           0        2.005412    1.056693   -0.993594
     28          1           0        2.728157    3.465399   -0.882013
     29          1           0        2.623655    3.411270    0.884069
     30          1           0        1.156918    3.239462   -0.094948
     31          6           0        4.146314   -0.425561   -0.030393
     32          6           0        5.623488   -0.813165    0.045134
     33          6           0        5.840058   -2.326362    0.011570
     34          1           0        3.608649   -0.892500    0.806436
     35          1           0        3.711834   -0.839261   -0.950732
     36          1           0        6.054548   -0.398333    0.965307
     37          1           0        6.158459   -0.344510   -0.790798
     38          1           0        5.436306   -2.752910   -0.912357
     39          1           0        5.331804   -2.807040    0.853726
     40          1           0        6.903041   -2.581102    0.066660
 ---------------------------------------------------------------------

 SCF Done:  E(RHF) =  -470.732704295     A.U. after   11 cycles
 E2 =    -0.1582823435D+01 EUMP2 =    -0.47231552772997D+03

 The electronic state is 1-A.
 Alpha  occ. eigenvalues --  -11.21589 -11.21582 -11.21560 -11.21529 -11.21383
 Alpha  occ. eigenvalues --  -11.21373 -11.21323 -11.21313 -11.21062 -11.21054
 Alpha  occ. eigenvalues --  -11.21052 -11.20952  -1.08418  -1.08390  -1.03538
 Alpha  occ. eigenvalues --   -1.03464  -0.95977  -0.95923  -0.87016  -0.86922
 Alpha  occ. eigenvalues --   -0.79687  -0.79455  -0.78250  -0.78178  -0.65042
 Alpha  occ. eigenvalues --   -0.65032  -0.60924  -0.60893  -0.59498  -0.59164
 Alpha  occ. eigenvalues --   -0.57627  -0.57494  -0.55248  -0.55221  -0.52763
 Alpha  occ. eigenvalues --   -0.52587  -0.52391  -0.52331  -0.49918  -0.49874
 Alpha  occ. eigenvalues --   -0.47963  -0.47797  -0.46637  -0.46547  -0.45789
 Alpha  occ. eigenvalues --   -0.45752  -0.45686  -0.45631  -0.43791  -0.43640
 Alpha virt. eigenvalues --    0.21939   0.23047   0.23635   0.24842   0.25819
 Alpha virt. eigenvalues --    0.26413   0.26780   0.27596   0.27812   0.29111
 Alpha virt. eigenvalues --    0.30076   0.31180   0.31633   0.32055   0.32216

 Mulliken charges:
               1
     1  C   -0.298384
     2  C   -0.299914
     3  C   -0.478701
     4  H    0.149594
     5  H    0.149328
     6  H    0.151434
     7  H    0.151450
     8  H    0.155037
     9  H    0.154182
    10  H    0.165639
    11  C   -0.298207
    12  C   -0.299614
    13  C   -0.475683
    14  H    0.149446
    15  H    0.149540
    16  H    0.151907
    17  H    0.151869
    18  H    0.155149
    19  H    0.155152
    20  H    0.160202
    21  C   -0.298189
    22  C   -0.302251
    23  C   -0.475838
    24  H    0.149173
    25  H    0.149236
    26  H    0.154173
    27  H    0.154706
    28  H    0.154985
    29  H    0.154878
    30  H    0.159904
    31  C   -0.298390
    32  C   -0.299555
    33  C   -0.475671
    34  H    0.148971
    35  H    0.150184
    36  H    0.151817
    37  H    0.151921
    38  H    0.155243
    39  H    0.155129
    40  H    0.160148
 Sum of Mulliken charges =  -0.00000

 Dipole moment (field-independent basis, Debye):
    X=              0.0178    Y=             -0.0025    Z=             -0.0071  Tot=              0.0193
 Quadrupole moment (field-independent basis, Debye-Ang):
   XX=            -86.1416   YY=            -85.0477   ZZ=            -83.7897
   XY=              0.5503   XZ=              0.2904   YZ=             -0.4126

 Normal termination of Gaussian 16 at Wed May  5 16:42:28 2021.
