 Gaussian 16, Revision A.03,
 Gaussian 16:  EM64L-G16RevA.03 25-Dec-2016

 -------------
 #p 6-31g* mp2
 -------------

 ------------------------------------------------------
 Input file generated by CHIRIPA (05-May-2021 14:57:22)
 ------------------------------------------------------
 Symbolic Z-matrix:
 Charge =  0 Multiplicity = 1

                         Standard orientation:
 ---------------------------------------------------------------------
 Center     Atomic      Atomic             Coordinates (Angstroms)
 Number     Number       Type             X           Y           Z
 ---------------------------------------------------------------------
      1          6           0        4.279407    0.080501   -1.940016
      2          6           0        3.937706   -1.176768   -1.431060
      3          6           0        3.207281   -1.287696   -0.244163
      4          6           0        2.833237   -0.115368    0.410838
      5          6           0        3.158497    1.151674   -0.070930
      6          6           0        3.889400    1.238667   -1.259527
      7          1           0        4.847004    0.157376   -2.862686
      8          1           0        4.239247   -2.077919   -1.957410
      9          1           0        2.929348   -2.248331    0.172193
     10          1           0        2.843746    2.032036    0.476164
     11          1           0        4.153365    2.216410   -1.652447
     12          7           0        2.059716   -0.220133    1.668252
     13          8           0        1.742137    0.827844    2.226396
     14          8           0        1.785656   -1.348241    2.071860
     15          6           0       -3.554524   -2.348570   -0.368295
     16          6           0       -4.543103   -1.374895   -0.544899
     17          6           0       -4.225516   -0.016309   -0.455848
     18          6           0       -2.903316    0.334636   -0.187680
     19          6           0       -1.896011   -0.611898   -0.006849
     20          6           0       -2.236456   -1.964641   -0.100306
     21          1           0       -3.810111   -3.401682   -0.439183
     22          1           0       -5.567562   -1.670139   -0.753130
     23          1           0       -4.971114    0.758266   -0.588267
     24          1           0       -0.883529   -0.286815    0.199592
     25          1           0       -1.466644   -2.718629    0.037297
     26          7           0       -2.555001    1.769817   -0.091072
     27          8           0       -1.382755    2.053024    0.146141
     28          8           0       -3.460832    2.584329   -0.254395
 ---------------------------------------------------------------------

 SCF Done:  E(RHF) =  -868.337991418     A.U. after   16 cycles
 E2 =    -0.2599830107D+01 EUMP2 =    -0.87093782152475D+03

 The electronic state is 1-A.
 Alpha  occ. eigenvalues --  -20.60933 -20.60814 -20.60322 -20.60292 -15.85910
 Alpha  occ. eigenvalues --  -15.85359 -11.31209 -11.30705 -11.27847 -11.27679
 Alpha  occ. eigenvalues --  -11.27505 -11.27301 -11.27250 -11.27037 -11.26812
 Alpha  occ. eigenvalues --  -11.26697 -11.26326 -11.26248  -1.59965  -1.59384
 Alpha  occ. eigenvalues --   -1.39507  -1.38937  -1.19379  -1.18880  -1.08793
 Alpha  occ. eigenvalues --   -1.08286  -1.04758  -1.04275  -0.95632  -0.95123
 Alpha  occ. eigenvalues --   -0.86162  -0.85682  -0.82453  -0.81948  -0.77513
 Alpha  occ. eigenvalues --   -0.76995  -0.72116  -0.71605  -0.71305  -0.70702
 Alpha  occ. eigenvalues --   -0.70476  -0.69994  -0.65024  -0.64756  -0.64535
 Alpha  occ. eigenvalues --   -0.64283  -0.62097  -0.61622  -0.55268  -0.54804
 Alpha  occ. eigenvalues --   -0.53105  -0.52843  -0.52611  -0.52372  -0.48903
 Alpha  occ. eigenvalues --   -0.48864  -0.48345  -0.48337  -0.44908  -0.44341
 Alpha  occ. eigenvalues --   -0.37368  -0.36874  -0.36352  -0.35870
 Alpha virt. eigenvalues --    0.04991   0.05541   0.11295   0.11778   0.16486
 Alpha virt. eigenvalues --    0.17030   0.21373   0.21812   0.27168   0.27461
 Alpha virt. eigenvalues --    0.28425   0.28503   0.31092   0.31178   0.32406

 Mulliken charges:
               1
     1  C   -0.170326
     2  C   -0.218712
     3  C   -0.174521
     4  C    0.152439
     5  C   -0.165916
     6  C   -0.218568
     7  H    0.225982
     8  H    0.222027
     9  H    0.271243
    10  H    0.283426
    11  H    0.226289
    12  N    0.485240
    13  O   -0.447563
    14  O   -0.469498
    15  C   -0.171153
    16  C   -0.218928
    17  C   -0.171311
    18  C    0.157641
    19  C   -0.166009
    20  C   -0.218466
    21  H    0.223935
    22  H    0.221529
    23  H    0.274099
    24  H    0.274985
    25  H    0.225901
    26  N    0.487840
    27  O   -0.458447
    28  O   -0.463156
 Sum of Mulliken charges =  -0.00000

 Dipole moment (field-independent basis, Debye):
    X=              1.6622    Y=             -4.4408    Z=             -4.7139  Tot=              6.6862
 Quadrupole moment (field-independent basis, Debye-Ang):
   XX=            -78.7361   YY=           -103.6081   ZZ=           -109.6375
   XY=             14.4713   XZ=             -9.6668   YZ=              1.8378

 Normal termination of Gaussian 16 at Fri May  7 01:47:45 2021.
