 Gaussian 16, Revision A.03,
 Gaussian 16:  EM64L-G16RevA.03 25-Dec-2016

 -------------
 #p 6-31g* mp2
 -------------

 ------------------------------------------------------
 Input file generated by CHIRIPA (05-May-2021 14:57:21)
 ------------------------------------------------------
 Symbolic Z-matrix:
 Charge =  0 Multiplicity = 1

                         Standard orientation:
 ---------------------------------------------------------------------
 Center     Atomic      Atomic             Coordinates (Angstroms)
 Number     Number       Type             X           Y           Z
 ---------------------------------------------------------------------
      1          6           0       -2.824499   -2.022838    0.979849
      2          6           0       -4.159451   -2.110896    0.571596
      3          6           0       -4.833738   -0.980628    0.100025
      4          6           0       -4.139428    0.227142    0.049881
      5          6           0       -2.809275    0.346920    0.449428
      6          6           0       -2.154853   -0.796373    0.917572
      7          1           0       -2.308413   -2.905917    1.344846
      8          1           0       -4.682017   -3.062072    0.618861
      9          1           0       -5.867119   -1.020524   -0.222388
     10          1           0       -2.314791    1.308927    0.390712
     11          1           0       -1.118102   -0.725023    1.233960
     12          7           0       -4.842750    1.430601   -0.447537
     13          8           0       -4.208744    2.482975   -0.481919
     14          8           0       -6.014703    1.298711   -0.793611
     15          6           0        5.881152    1.534443    0.554705
     16          6           0        4.546773    1.899824    0.760747
     17          6           0        3.509367    1.041574    0.384261
     18          6           0        3.843922   -0.179926   -0.198235
     19          6           0        5.163591   -0.572432   -0.416643
     20          6           0        6.184767    0.301655   -0.032298
     21          1           0        6.680729    2.207304    0.850222
     22          1           0        4.308018    2.856599    1.216405
     23          1           0        2.467685    1.299319    0.532194
     24          1           0        5.370355   -1.532778   -0.873153
     25          1           0        7.220155    0.015264   -0.193527
     26          7           0        2.754258   -1.096900   -0.600965
     27          8           0        3.075375   -2.167482   -1.112213
     28          8           0        1.599694   -0.727679   -0.397751
 ---------------------------------------------------------------------

 SCF Done:  E(RHF) =  -868.339464571     A.U. after   16 cycles
 E2 =    -0.2598328771D+01 EUMP2 =    -0.87093779334243D+03

 The electronic state is 1-A.
 Alpha  occ. eigenvalues --  -20.61553 -20.61497 -20.60156 -20.60151 -15.86570
 Alpha  occ. eigenvalues --  -15.85200 -11.31737 -11.30378 -11.28301 -11.28264
 Alpha  occ. eigenvalues --  -11.27968 -11.27245 -11.27232 -11.26934 -11.26868
 Alpha  occ. eigenvalues --  -11.26559 -11.25931 -11.25740  -1.60592  -1.59234
 Alpha  occ. eigenvalues --   -1.40155  -1.38794  -1.19887  -1.18508  -1.09314
 Alpha  occ. eigenvalues --   -1.07931  -1.05261  -1.03872  -0.96184  -0.94809
 Alpha  occ. eigenvalues --   -0.86667  -0.85275  -0.83028  -0.81642  -0.78102
 Alpha  occ. eigenvalues --   -0.76722  -0.72800  -0.71901  -0.71426  -0.70991
 Alpha  occ. eigenvalues --   -0.70552  -0.69616  -0.65544  -0.65257  -0.64155
 Alpha  occ. eigenvalues --   -0.63846  -0.62614  -0.61223  -0.55758  -0.54368
 Alpha  occ. eigenvalues --   -0.53598  -0.53349  -0.52217  -0.51947  -0.49560
 Alpha  occ. eigenvalues --   -0.49521  -0.48191  -0.48162  -0.45601  -0.44242
 Alpha  occ. eigenvalues --   -0.37848  -0.36854  -0.36465  -0.35460
 Alpha virt. eigenvalues --    0.04410   0.05788   0.10803   0.12194   0.15936
 Alpha virt. eigenvalues --    0.17348   0.20891   0.22347   0.26774   0.27416
 Alpha virt. eigenvalues --    0.28569   0.29161   0.30559   0.31608   0.32523

 Mulliken charges:
               1
     1  C   -0.170897
     2  C   -0.218561
     3  C   -0.172791
     4  C    0.158089
     5  C   -0.172051
     6  C   -0.214625
     7  H    0.226471
     8  H    0.220746
     9  H    0.272609
    10  H    0.271502
    11  H    0.235551
    12  N    0.488317
    13  O   -0.463239
    14  O   -0.462633
    15  C   -0.170068
    16  C   -0.218195
    17  C   -0.170306
    18  C    0.158124
    19  C   -0.170601
    20  C   -0.218362
    21  H    0.227803
    22  H    0.225617
    23  H    0.272102
    24  H    0.276340
    25  H    0.225250
    26  N    0.490964
    27  O   -0.456899
    28  O   -0.470255
 Sum of Mulliken charges =  -0.00000

 Dipole moment (field-independent basis, Debye):
    X=              6.7983    Y=             -1.0739    Z=              3.1905  Tot=              7.5861
 Quadrupole moment (field-independent basis, Debye-Ang):
   XX=            -90.7143   YY=           -105.0103   ZZ=           -106.1692
   XY=             30.4735   XZ=             -3.0053   YZ=              1.0943

 Normal termination of Gaussian 16 at Wed May  5 17:43:03 2021.
