 Gaussian 16, Revision A.03,
 Gaussian 16:  EM64L-G16RevA.03 25-Dec-2016

 -------------
 #p 6-31g* mp2
 -------------

 ------------------------------------------------------
 Input file generated by CHIRIPA (05-May-2021 14:57:26)
 ------------------------------------------------------
 Symbolic Z-matrix:
 Charge =  0 Multiplicity = 1

                         Standard orientation:
 ---------------------------------------------------------------------
 Center     Atomic      Atomic             Coordinates (Angstroms)
 Number     Number       Type             X           Y           Z
 ---------------------------------------------------------------------
      1          6           0        4.602764   -1.636676   -0.582192
      2          6           0        4.646348   -0.458858   -1.335429
      3          6           0        3.859642    0.640803   -0.979921
      4          6           0        3.037049    0.527474    0.139805
      5          6           0        2.971567   -0.632344    0.910405
      6          6           0        3.766987   -1.719514    0.536349
      7          1           0        5.217280   -2.486068   -0.865564
      8          1           0        5.294488   -0.391677   -2.204593
      9          1           0        3.873919    1.564694   -1.545289
     10          1           0        2.315613   -0.669301    1.771670
     11          1           0        3.731099   -2.632959    1.123185
     12          7           0        2.199587    1.685024    0.525984
     13          8           0        1.483202    1.559841    1.516822
     14          8           0        2.275426    2.695577   -0.169479
     15          6           0       -5.335345    0.927667   -0.393239
     16          6           0       -4.117943    1.616146   -0.372025
     17          6           0       -2.914844    0.925881   -0.196997
     18          6           0       -2.966226   -0.458929   -0.045504
     19          6           0       -4.163209   -1.173242   -0.062161
     20          6           0       -5.354059   -0.462380   -0.238512
     21          1           0       -6.265183    1.471882   -0.529718
     22          1           0       -4.100381    2.695664   -0.491941
     23          1           0       -1.958305    1.433852   -0.176621
     24          1           0       -4.148812   -2.249483    0.059976
     25          1           0       -6.298034   -0.999687   -0.254573
     26          7           0       -1.699043   -1.200585    0.140490
     27          8           0       -1.771245   -2.420500    0.271763
     28          8           0       -0.657618   -0.547937    0.151479
 ---------------------------------------------------------------------

 SCF Done:  E(RHF) =  -868.339609056     A.U. after   16 cycles
 E2 =    -0.2599639020D+01 EUMP2 =    -0.87093924807566D+03

 The electronic state is 1-A.
 Alpha  occ. eigenvalues --  -20.60564 -20.60504 -20.59884 -20.59794 -15.85569
 Alpha  occ. eigenvalues --  -15.84872 -11.30787 -11.30059 -11.27406 -11.27255
 Alpha  occ. eigenvalues --  -11.27115 -11.26735 -11.26568 -11.26463 -11.26395
 Alpha  occ. eigenvalues --  -11.26297 -11.25734 -11.25609  -1.59608  -1.58898
 Alpha  occ. eigenvalues --   -1.39160  -1.38455  -1.18962  -1.18252  -1.08397
 Alpha  occ. eigenvalues --   -1.07698  -1.04337  -1.03649  -0.95250  -0.94557
 Alpha  occ. eigenvalues --   -0.85746  -0.85063  -0.82086  -0.81405  -0.77136
 Alpha  occ. eigenvalues --   -0.76445  -0.71861  -0.71132  -0.70909  -0.70153
 Alpha  occ. eigenvalues --   -0.70041  -0.69417  -0.64619  -0.64346  -0.63934
 Alpha  occ. eigenvalues --   -0.63692  -0.61669  -0.61006  -0.54874  -0.54223
 Alpha  occ. eigenvalues --   -0.52689  -0.52426  -0.51970  -0.51770  -0.48574
 Alpha  occ. eigenvalues --   -0.48554  -0.47887  -0.47859  -0.44629  -0.43838
 Alpha  occ. eigenvalues --   -0.36960  -0.36243  -0.35936  -0.35215
 Alpha virt. eigenvalues --    0.05354   0.06138   0.11717   0.12432   0.16881
 Alpha virt. eigenvalues --    0.17596   0.21852   0.22415   0.27794   0.28324
 Alpha virt. eigenvalues --    0.28736   0.29328   0.31371   0.31901   0.33055

 Mulliken charges:
               1
     1  C   -0.170506
     2  C   -0.219779
     3  C   -0.171996
     4  C    0.160579
     5  C   -0.154417
     6  C   -0.219199
     7  H    0.221846
     8  H    0.218570
     9  H    0.270822
    10  H    0.279417
    11  H    0.222397
    12  N    0.490030
    13  O   -0.457019
    14  O   -0.470673
    15  C   -0.170595
    16  C   -0.219595
    17  C   -0.170753
    18  C    0.156701
    19  C   -0.171467
    20  C   -0.219232
    21  H    0.224604
    22  H    0.225745
    23  H    0.286449
    24  H    0.273217
    25  H    0.221558
    26  N    0.489581
    27  O   -0.466065
    28  O   -0.460217
 Sum of Mulliken charges =  -0.00000

 Dipole moment (field-independent basis, Debye):
    X=             -1.6747    Y=             -1.4512    Z=             -1.8588  Tot=              2.8923
 Quadrupole moment (field-independent basis, Debye-Ang):
   XX=            -61.0975   YY=           -107.6429   ZZ=           -103.4379
   XY=            -13.9460   XZ=             -2.9749   YZ=             -3.7589

 Normal termination of Gaussian 16 at Wed May  5 16:28:47 2021.
