 Gaussian 16, Revision A.03,
 Gaussian 16:  EM64L-G16RevA.03 25-Dec-2016

 -------------
 #p 6-31g* mp2
 -------------

 ------------------------------------------------------
 Input file generated by CHIRIPA (05-May-2021 14:51:12)
 ------------------------------------------------------
 Symbolic Z-matrix:
 Charge =  0 Multiplicity = 1

                         Standard orientation:
 ---------------------------------------------------------------------
 Center     Atomic      Atomic             Coordinates (Angstroms)
 Number     Number       Type             X           Y           Z
 ---------------------------------------------------------------------
      1          6           0        3.575599   -0.599689   -0.215173
      2          6           0        3.915735    0.680623   -0.978780
      3          6           0        5.355005    0.696627   -1.494571
      4          1           0        4.270253   -0.711328    0.628590
      5          1           0        3.740266   -1.464907   -0.872195
      6          1           0        3.749151    1.543255   -0.320956
      7          1           0        3.220068    0.789327   -1.820711
      8          1           0        5.530866   -0.145299   -2.171944
      9          1           0        6.062955    0.612912   -0.663668
     10          1           0        5.576698    1.620797   -2.037361
     11          6           0        2.140195   -0.630579    0.306737
     12          6           0        1.800059   -1.910891    1.070344
     13          6           0        0.360789   -1.926895    1.586134
     14          1           0        1.975527    0.234639    0.963758
     15          1           0        1.445541   -0.518940   -0.537027
     16          1           0        2.495725   -2.019595    1.912274
     17          1           0        1.966642   -2.773523    0.412520
     18          1           0       -0.347161   -1.843180    0.755232
     19          1           0        0.184928   -1.084969    2.263508
     20          1           0        0.139095   -2.851065    2.128925
     21          6           0       -3.101265    0.170374   -0.617089
     22          6           0       -4.572775   -0.225975   -0.492393
     23          6           0       -5.044874   -1.115709   -1.642735
     24          1           0       -2.948094    0.691322   -1.572126
     25          1           0       -2.485724   -0.739064   -0.654885
     26          1           0       -5.185243    0.683960   -0.453450
     27          1           0       -4.722499   -0.745872    0.462545
     28          1           0       -4.458840   -2.039685   -1.680631
     29          1           0       -4.924214   -0.601729   -2.601832
     30          1           0       -6.099525   -1.387116   -1.533598
     31          6           0       -2.614529    1.059894    0.525526
     32          6           0       -1.143019    1.456243    0.400829
     33          6           0       -0.670920    2.345978    1.551172
     34          1           0       -3.230070    1.969332    0.563322
     35          1           0       -2.767700    0.538946    1.480564
     36          1           0       -0.993295    1.976139   -0.554109
     37          1           0       -0.530550    0.546308    0.361887
     38          1           0       -0.791579    1.831997    2.510268
     39          1           0       -1.256954    3.269953    1.589068
     40          1           0        0.383731    2.617384    1.442035
 ---------------------------------------------------------------------

 SCF Done:  E(RHF) =  -470.731517794     A.U. after   11 cycles
 E2 =    -0.1585420480D+01 EUMP2 =    -0.47231693827392D+03

 The electronic state is 1-A.
 Alpha  occ. eigenvalues --  -11.21681 -11.21623 -11.21564 -11.21431 -11.21372
 Alpha  occ. eigenvalues --  -11.21354 -11.21324 -11.21243 -11.21177 -11.21087
 Alpha  occ. eigenvalues --  -11.21050 -11.21010  -1.08510  -1.08326  -1.03628
 Alpha  occ. eigenvalues --   -1.03418  -0.96046  -0.95918  -0.87067  -0.86932
 Alpha  occ. eigenvalues --   -0.79764  -0.79469  -0.78456  -0.77991  -0.65121
 Alpha  occ. eigenvalues --   -0.64997  -0.61011  -0.60907  -0.59460  -0.59206
 Alpha  occ. eigenvalues --   -0.57700  -0.57480  -0.55390  -0.55162  -0.52737
 Alpha  occ. eigenvalues --   -0.52609  -0.52491  -0.52333  -0.49989  -0.49878
 Alpha  occ. eigenvalues --   -0.48229  -0.47730  -0.46774  -0.46619  -0.46095
 Alpha  occ. eigenvalues --   -0.45749  -0.45664  -0.44934  -0.43834  -0.43698
 Alpha virt. eigenvalues --    0.20680   0.22562   0.23386   0.24204   0.25695
 Alpha virt. eigenvalues --    0.26070   0.26562   0.27830   0.28295   0.29982
 Alpha virt. eigenvalues --    0.30497   0.31364   0.31755   0.31971   0.32367

 Mulliken charges:
               1
     1  C   -0.297238
     2  C   -0.299626
     3  C   -0.475754
     4  H    0.149600
     5  H    0.149509
     6  H    0.151605
     7  H    0.152291
     8  H    0.155242
     9  H    0.155209
    10  H    0.160370
    11  C   -0.305625
    12  C   -0.298259
    13  C   -0.483743
    14  H    0.154020
    15  H    0.151922
    16  H    0.152317
    17  H    0.152114
    18  H    0.157977
    19  H    0.157866
    20  H    0.161451
    21  C   -0.301003
    22  C   -0.299453
    23  C   -0.475701
    24  H    0.149434
    25  H    0.150267
    26  H    0.152014
    27  H    0.152219
    28  H    0.154906
    29  H    0.155002
    30  H    0.160208
    31  C   -0.297378
    32  C   -0.311320
    33  C   -0.477123
    34  H    0.148796
    35  H    0.149649
    36  H    0.149914
    37  H    0.169691
    38  H    0.153994
    39  H    0.155041
    40  H    0.159596
 Sum of Mulliken charges =  -0.00000

 Dipole moment (field-independent basis, Debye):
    X=              0.0576    Y=             -0.0442    Z=              0.0040  Tot=              0.0727
 Quadrupole moment (field-independent basis, Debye-Ang):
   XX=            -85.9844   YY=            -84.4645   ZZ=            -84.5335
   XY=             -0.5305   XZ=              0.4773   YZ=             -0.5348

 Normal termination of Gaussian 16 at Wed May  5 23:08:02 2021.
