 Gaussian 16, Revision A.03,
 Gaussian 16:  EM64L-G16RevA.03 25-Dec-2016

 -------------
 #p 6-31g* mp2
 -------------

 ------------------------------------------------------
 Input file generated by CHIRIPA (05-May-2021 14:51:14)
 ------------------------------------------------------
 Symbolic Z-matrix:
 Charge =  0 Multiplicity = 1

                         Standard orientation:
 ---------------------------------------------------------------------
 Center     Atomic      Atomic             Coordinates (Angstroms)
 Number     Number       Type             X           Y           Z
 ---------------------------------------------------------------------
      1          6           0       -3.558985    0.786333    0.242226
      2          6           0       -3.926680    2.037802   -0.555653
      3          6           0       -3.603627    3.331736    0.192122
      4          1           0       -4.094143    0.800484    1.201575
      5          1           0       -2.486991    0.814569    0.481864
      6          1           0       -4.997379    2.006538   -0.794904
      7          1           0       -3.390732    2.020575   -1.513295
      8          1           0       -2.533850    3.389569    0.417581
      9          1           0       -4.149626    3.375453    1.140054
     10          1           0       -3.874482    4.213862   -0.396395
     11          6           0       -3.875977   -0.515184   -0.492142
     12          6           0       -3.508282   -1.766653    0.305737
     13          6           0       -3.831334   -3.060587   -0.442037
     14          1           0       -4.947971   -0.543419   -0.731779
     15          1           0       -3.340818   -0.529335   -1.451490
     16          1           0       -4.044230   -1.749426    1.263380
     17          1           0       -2.437582   -1.735389    0.544989
     18          1           0       -3.285336   -3.104303   -1.389969
     19          1           0       -4.901112   -3.118420   -0.667497
     20          1           0       -3.560480   -3.942712    0.146479
     21          6           0        3.028361    0.081559    0.372746
     22          6           0        1.992789   -1.043136    0.347456
     23          6           0        0.619175   -0.593264    0.846045
     24          1           0        3.116885    0.466876    1.397752
     25          1           0        2.668309    0.916017   -0.244860
     26          1           0        2.355319   -1.875780    0.963810
     27          1           0        1.906860   -1.425951   -0.677573
     28          1           0        0.232424    0.222110    0.226215
     29          1           0        0.683431   -0.230275    1.876924
     30          1           0       -0.105742   -1.412808    0.819506
     31          6           0        4.406601   -0.352708   -0.122830
     32          6           0        5.442172    0.771987   -0.097541
     33          6           0        6.815788    0.322115   -0.596130
     34          1           0        4.766652   -1.187167    0.494775
     35          1           0        4.318077   -0.738026   -1.147837
     36          1           0        5.528101    1.154802    0.927488
     37          1           0        5.079643    1.604631   -0.713894
     38          1           0        6.751531   -0.040874   -1.627008
     39          1           0        7.202538   -0.493259    0.023700
     40          1           0        7.540703    1.141659   -0.569591
 ---------------------------------------------------------------------

 SCF Done:  E(RHF) =  -470.733149948     A.U. after   11 cycles
 E2 =    -0.1582974073D+01 EUMP2 =    -0.47231612402081D+03

 The electronic state is 1-A.
 Alpha  occ. eigenvalues --  -11.21672 -11.21632 -11.21554 -11.21518 -11.21453
 Alpha  occ. eigenvalues --  -11.21391 -11.21332 -11.21266 -11.21165 -11.21094
 Alpha  occ. eigenvalues --  -11.21036 -11.21034  -1.08481  -1.08366  -1.03587
 Alpha  occ. eigenvalues --   -1.03478  -0.96041  -0.95928  -0.87063  -0.86944
 Alpha  occ. eigenvalues --   -0.79666  -0.79534  -0.78299  -0.78165  -0.65123
 Alpha  occ. eigenvalues --   -0.64997  -0.60980  -0.60915  -0.59448  -0.59253
 Alpha  occ. eigenvalues --   -0.57672  -0.57517  -0.55350  -0.55193  -0.52799
 Alpha  occ. eigenvalues --   -0.52602  -0.52493  -0.52324  -0.49990  -0.49861
 Alpha  occ. eigenvalues --   -0.48032  -0.47799  -0.46695  -0.46558  -0.45865
 Alpha  occ. eigenvalues --   -0.45774  -0.45709  -0.45592  -0.43783  -0.43708
 Alpha virt. eigenvalues --    0.21257   0.23001   0.23802   0.24579   0.25605
 Alpha virt. eigenvalues --    0.26648   0.27155   0.27315   0.27929   0.29232
 Alpha virt. eigenvalues --    0.29403   0.31562   0.31683   0.31919   0.32114

 Mulliken charges:
               1
     1  C   -0.303379
     2  C   -0.299482
     3  C   -0.475594
     4  H    0.149326
     5  H    0.155667
     6  H    0.151760
     7  H    0.151360
     8  H    0.155013
     9  H    0.155200
    10  H    0.159979
    11  C   -0.297153
    12  C   -0.307970
    13  C   -0.475291
    14  H    0.149196
    15  H    0.149034
    16  H    0.151719
    17  H    0.159761
    18  H    0.154813
    19  H    0.155140
    20  H    0.159761
    21  C   -0.298820
    22  C   -0.299598
    23  C   -0.482795
    24  H    0.149879
    25  H    0.149459
    26  H    0.152343
    27  H    0.152070
    28  H    0.155614
    29  H    0.156255
    30  H    0.166196
    31  C   -0.298269
    32  C   -0.299670
    33  C   -0.475732
    34  H    0.149672
    35  H    0.149704
    36  H    0.152036
    37  H    0.151962
    38  H    0.155215
    39  H    0.155246
    40  H    0.160371
 Sum of Mulliken charges =  -0.00000

 Dipole moment (field-independent basis, Debye):
    X=              0.0522    Y=             -0.0036    Z=              0.0213  Tot=              0.0565
 Quadrupole moment (field-independent basis, Debye-Ang):
   XX=            -85.0965   YY=            -85.8741   ZZ=            -83.9597
   XY=             -0.0900   XZ=              0.1049   YZ=             -0.7444

 Normal termination of Gaussian 16 at Wed May  5 21:39:46 2021.
