 Gaussian 16, Revision A.03,
 Gaussian 16:  EM64L-G16RevA.03 25-Dec-2016

 -------------
 #p 6-31g* mp2
 -------------

 ------------------------------------------------------
 Input file generated by CHIRIPA (05-May-2021 14:55:24)
 ------------------------------------------------------
 Symbolic Z-matrix:
 Charge =  0 Multiplicity = 1

                         Standard orientation:
 ---------------------------------------------------------------------
 Center     Atomic      Atomic             Coordinates (Angstroms)
 Number     Number       Type             X           Y           Z
 ---------------------------------------------------------------------
      1          6           0       -4.934983    0.311225   -0.517271
      2          6           0       -3.998734    0.101140   -1.535025
      3          6           0       -2.696553   -0.305354   -1.229026
      4          6           0       -2.363235   -0.493200    0.111460
      5          6           0       -3.273502   -0.292061    1.147920
      6          6           0       -4.570022    0.114301    0.818598
      7          1           0       -5.944350    0.626948   -0.764037
      8          1           0       -4.279365    0.253301   -2.573359
      9          1           0       -1.951851   -0.475208   -1.997131
     10          1           0       -2.964224   -0.451884    2.173698
     11          1           0       -5.295040    0.276701    1.611075
     12          7           0       -0.987671   -0.923467    0.447753
     13          8           0       -0.718949   -1.082086    1.636562
     14          8           0       -0.204271   -1.093944   -0.483837
     15          6           0        2.675924    0.954979   -0.127190
     16          6           0        2.879259    2.431679    0.213395
     17          6           0        1.591449    3.247762    0.097851
     18          1           0        2.277934    0.872075   -1.147816
     19          1           0        1.912413    0.533474    0.541227
     20          1           0        3.643154    2.849924   -0.454551
     21          1           0        3.276990    2.511069    1.233258
     22          1           0        0.825907    2.857524    0.776276
     23          1           0        1.194151    3.198305   -0.921123
     24          1           0        1.759649    4.300447    0.345686
     25          6           0        3.954336    0.126074   -0.016260
     26          6           0        3.751000   -1.350625   -0.356845
     27          6           0        5.038809   -2.166708   -0.241302
     28          1           0        4.717845    0.547580   -0.684677
     29          1           0        4.352325    0.208979    1.004365
     30          1           0        3.353269   -1.430015   -1.376709
     31          1           0        2.987105   -1.768871    0.311100
     32          1           0        5.436108   -2.117252    0.777673
     33          1           0        5.804352   -1.776471   -0.919727
     34          1           0        4.870609   -3.219394   -0.489136
 ---------------------------------------------------------------------

 SCF Done:  E(RHF) =  -669.536247500     A.U. after   15 cycles
 E2 =    -0.2092210305D+01 EUMP2 =    -0.67162845780477D+03

 The electronic state is 1-A.
 Alpha  occ. eigenvalues --  -20.61034 -20.61004 -15.86022 -11.31325 -11.27883
 Alpha  occ. eigenvalues --  -11.27879 -11.27615 -11.26882 -11.26872 -11.20575
 Alpha  occ. eigenvalues --  -11.20364 -11.20059 -11.19995 -11.19876 -11.19814
 Alpha  occ. eigenvalues --   -1.60067  -1.39622  -1.19488  -1.08898  -1.07096
 Alpha  occ. eigenvalues --   -1.04879  -1.02352  -0.95744  -0.94831  -0.86281
 Alpha  occ. eigenvalues --   -0.85864  -0.82580  -0.78384  -0.77638  -0.76843
 Alpha  occ. eigenvalues --   -0.72232  -0.71373  -0.70597  -0.65142  -0.64884
 Alpha  occ. eigenvalues --   -0.63735  -0.62227  -0.59762  -0.58214  -0.56423
 Alpha  occ. eigenvalues --   -0.55387  -0.54139  -0.53212  -0.52971  -0.51591
 Alpha  occ. eigenvalues --   -0.51265  -0.49070  -0.49009  -0.48792  -0.46725
 Alpha  occ. eigenvalues --   -0.45394  -0.45126  -0.44339  -0.44140  -0.42548
 Alpha  occ. eigenvalues --   -0.37461  -0.36478
 Alpha virt. eigenvalues --    0.04865   0.11178   0.16369   0.21305   0.24092
 Alpha virt. eigenvalues --    0.25334   0.27226   0.27920   0.28093   0.28738
 Alpha virt. eigenvalues --    0.29300   0.30957   0.32326   0.32494   0.32795

 Mulliken charges:
               1
     1  C   -0.170397
     2  C   -0.218532
     3  C   -0.170364
     4  C    0.159423
     5  C   -0.170794
     6  C   -0.218548
     7  H    0.226148
     8  H    0.223947
     9  H    0.275791
    10  H    0.275748
    11  H    0.223926
    12  N    0.487699
    13  O   -0.461569
    14  O   -0.457013
    15  C   -0.299652
    16  C   -0.298912
    17  C   -0.473986
    18  H    0.148457
    19  H    0.167527
    20  H    0.147123
    21  H    0.149737
    22  H    0.153183
    23  H    0.151421
    24  H    0.155934
    25  C   -0.298599
    26  C   -0.299265
    27  C   -0.475508
    28  H    0.142174
    29  H    0.145879
    30  H    0.151116
    31  H    0.168569
    32  H    0.152179
    33  H    0.149727
    34  H    0.157432
 Sum of Mulliken charges =  -0.00000

 Dipole moment (field-independent basis, Debye):
    X=             -5.2084    Y=              1.3224    Z=             -1.1548  Tot=              5.4963
 Quadrupole moment (field-independent basis, Debye-Ang):
   XX=            -74.2488   YY=            -98.4304   ZZ=            -89.3851
   XY=             -0.8980   XZ=              0.9826   YZ=              0.5776

 Normal termination of Gaussian 16 at Thu May  6 04:45:56 2021.
