 Gaussian 16, Revision A.03,
 Gaussian 16:  EM64L-G16RevA.03 25-Dec-2016

 -------------
 #p 6-31g* mp2
 -------------

 ------------------------------------------------------
 Input file generated by CHIRIPA (05-May-2021 14:55:21)
 ------------------------------------------------------
 Symbolic Z-matrix:
 Charge =  0 Multiplicity = 1

                         Standard orientation:
 ---------------------------------------------------------------------
 Center     Atomic      Atomic             Coordinates (Angstroms)
 Number     Number       Type             X           Y           Z
 ---------------------------------------------------------------------
      1          6           0        2.019218    2.571829   -0.317040
      2          6           0        1.310439    1.725359   -1.175901
      3          6           0        1.599001    0.358221   -1.222959
      4          6           0        2.607173   -0.130895   -0.393716
      5          6           0        3.331037    0.686909    0.472604
      6          6           0        3.025480    2.050821    0.503025
      7          1           0        1.788455    3.632602   -0.286946
      8          1           0        0.528443    2.127208   -1.813902
      9          1           0        1.065897   -0.319638   -1.878493
     10          1           0        4.105103    0.257110    1.096713
     11          1           0        3.577563    2.705838    1.171009
     12          7           0        2.921657   -1.576515   -0.434728
     13          8           0        3.814473   -1.982761    0.305867
     14          8           0        2.269378   -2.275973   -1.206692
     15          6           0       -2.609895    0.185314    0.701280
     16          6           0       -1.774925   -0.687765    1.638588
     17          6           0       -0.455611   -0.028489    2.041776
     18          1           0       -2.021957    0.412687   -0.198483
     19          1           0       -2.814410    1.146824    1.192267
     20          1           0       -1.573217   -1.647873    1.146528
     21          1           0       -2.364989   -0.913246    2.536140
     22          1           0       -0.640371    0.920325    2.555795
     23          1           0        0.155900    0.181524    1.158289
     24          1           0        0.125365   -0.669833    2.711855
     25          6           0       -3.931783   -0.460157    0.289328
     26          6           0       -4.766753    0.412921   -0.647978
     27          6           0       -6.086067   -0.246355   -1.051166
     28          1           0       -3.727268   -1.421668   -0.201657
     29          1           0       -4.519721   -0.687532    1.189092
     30          1           0       -4.176689    0.638401   -1.545530
     31          1           0       -4.968461    1.373028   -0.155919
     32          1           0       -6.697578   -0.456368   -0.167679
     33          1           0       -5.901308   -1.195170   -1.565186
     34          1           0       -6.667043    0.394989   -1.721245
 ---------------------------------------------------------------------

 SCF Done:  E(RHF) =  -669.534615140     A.U. after   15 cycles
 E2 =    -0.2093725194D+01 EUMP2 =    -0.67162834033358D+03

 The electronic state is 1-A.
 Alpha  occ. eigenvalues --  -20.60814 -20.60808 -15.85868 -11.31238 -11.27835
 Alpha  occ. eigenvalues --  -11.27816 -11.27582 -11.26864 -11.26854 -11.21809
 Alpha  occ. eigenvalues --  -11.21584 -11.21527 -11.21480 -11.21214 -11.20874
 Alpha  occ. eigenvalues --   -1.59888  -1.39441  -1.19459  -1.08828  -1.08539
 Alpha  occ. eigenvalues --   -1.04859  -1.03590  -0.96046  -0.95658  -0.87063
 Alpha  occ. eigenvalues --   -0.86241  -0.82490  -0.79667  -0.78365  -0.77534
 Alpha  occ. eigenvalues --   -0.72087  -0.71217  -0.70542  -0.65183  -0.65092
 Alpha  occ. eigenvalues --   -0.64844  -0.62195  -0.61025  -0.59416  -0.57682
 Alpha  occ. eigenvalues --   -0.55495  -0.55341  -0.53405  -0.52934  -0.52715
 Alpha  occ. eigenvalues --   -0.52237  -0.49899  -0.48848  -0.48840  -0.47929
 Alpha  occ. eigenvalues --   -0.46667  -0.45881  -0.45821  -0.44842  -0.43865
 Alpha  occ. eigenvalues --   -0.37408  -0.36422
 Alpha virt. eigenvalues --    0.04976   0.11163   0.16415   0.21054   0.22812
 Alpha virt. eigenvalues --    0.24278   0.25966   0.27040   0.27829   0.28056
 Alpha virt. eigenvalues --    0.28454   0.30847   0.31439   0.31818   0.31960

 Mulliken charges:
               1
     1  C   -0.170364
     2  C   -0.214270
     3  C   -0.181176
     4  C    0.163792
     5  C   -0.170731
     6  C   -0.216239
     7  H    0.226348
     8  H    0.224518
     9  H    0.275589
    10  H    0.276125
    11  H    0.224158
    12  N    0.488378
    13  O   -0.460252
    14  O   -0.460832
    15  C   -0.296403
    16  C   -0.300236
    17  C   -0.484336
    18  H    0.141936
    19  H    0.147372
    20  H    0.156692
    21  H    0.151932
    22  H    0.150135
    23  H    0.165344
    24  H    0.161412
    25  C   -0.298758
    26  C   -0.298957
    27  C   -0.475789
    28  H    0.152121
    29  H    0.150916
    30  H    0.148390
    31  H    0.150773
    32  H    0.156069
    33  H    0.156595
    34  H    0.159748
 Sum of Mulliken charges =  -0.00000

 Dipole moment (field-independent basis, Debye):
    X=             -1.0060    Y=              5.0828    Z=              0.1427  Tot=              5.1834
 Quadrupole moment (field-independent basis, Debye-Ang):
   XX=            -99.0332   YY=            -96.4168   ZZ=            -92.5640
   XY=             13.8815   XZ=              2.9883   YZ=             -1.3211

 Normal termination of Gaussian 16 at Wed May  5 19:00:19 2021.
