 Gaussian 16, Revision A.03,
 Gaussian 16:  EM64L-G16RevA.03 25-Dec-2016

 -------------
 #p 6-31g* mp2
 -------------

 ------------------------------------------------------
 Input file generated by CHIRIPA (05-May-2021 14:55:23)
 ------------------------------------------------------
 Symbolic Z-matrix:
 Charge =  0 Multiplicity = 1

                         Standard orientation:
 ---------------------------------------------------------------------
 Center     Atomic      Atomic             Coordinates (Angstroms)
 Number     Number       Type             X           Y           Z
 ---------------------------------------------------------------------
      1          6           0       -4.931214   -1.809528    0.138181
      2          6           0       -3.598081   -2.199253   -0.027323
      3          6           0       -2.586101   -1.240571   -0.133969
      4          6           0       -2.944535    0.105093   -0.070688
      5          6           0       -4.263641    0.524930    0.093592
      6          6           0       -5.259161   -0.451075    0.198005
      7          1           0       -5.710951   -2.560983    0.220159
      8          1           0       -3.340462   -3.253524   -0.074123
      9          1           0       -1.545979   -1.514449   -0.262640
     10          1           0       -4.489561    1.583477    0.136662
     11          1           0       -6.293645   -0.145492    0.326481
     12          7           0       -1.881910    1.129176   -0.182408
     13          8           0       -2.223768    2.308292   -0.123633
     14          8           0       -0.727287    0.733345   -0.326633
     15          6           0        3.893537    0.782839   -0.218846
     16          6           0        2.909218    1.631587    0.586590
     17          6           0        2.720423    3.031927    0.002467
     18          1           0        4.863009    1.297913   -0.260884
     19          1           0        3.536375    0.703841   -1.254988
     20          1           0        3.267414    1.707808    1.621240
     21          1           0        1.942031    1.114342    0.626877
     22          1           0        2.340317    2.973728   -1.022585
     23          1           0        3.673230    3.570567   -0.022572
     24          1           0        2.012840    3.621506    0.593724
     25          6           0        4.092815   -0.619795    0.352672
     26          6           0        5.077134   -1.468545   -0.452764
     27          6           0        5.265930   -2.868885    0.131358
     28          1           0        4.449978   -0.540798    1.388813
     29          1           0        3.123343   -1.134870    0.394711
     30          1           0        6.044321   -0.951299   -0.493051
     31          1           0        4.718938   -1.544766   -1.487414
     32          1           0        4.313123   -3.407524    0.156398
     33          1           0        5.646036   -2.810686    1.156411
     34          1           0        5.973511   -3.458463   -0.459898
 ---------------------------------------------------------------------

 SCF Done:  E(RHF) =  -669.536198947     A.U. after   15 cycles
 E2 =    -0.2090987992D+01 EUMP2 =    -0.67162718693871D+03

 The electronic state is 1-A.
 Alpha  occ. eigenvalues --  -20.60993 -20.60986 -15.86028 -11.31331 -11.27895
 Alpha  occ. eigenvalues --  -11.27888 -11.27625 -11.26896 -11.26886 -11.21003
 Alpha  occ. eigenvalues --  -11.20656 -11.20570 -11.20269 -11.20026 -11.19535
 Alpha  occ. eigenvalues --   -1.60051  -1.39609  -1.19497  -1.08904  -1.07451
 Alpha  occ. eigenvalues --   -1.04892  -1.02490  -0.95750  -0.94980  -0.86293
 Alpha  occ. eigenvalues --   -0.86007  -0.82586  -0.78626  -0.77642  -0.77188
 Alpha  occ. eigenvalues --   -0.72254  -0.71364  -0.70606  -0.65156  -0.64895
 Alpha  occ. eigenvalues --   -0.64076  -0.62240  -0.59867  -0.58415  -0.56560
 Alpha  occ. eigenvalues --   -0.55396  -0.54275  -0.53224  -0.52983  -0.51681
 Alpha  occ. eigenvalues --   -0.51410  -0.49013  -0.49004  -0.48940  -0.46926
 Alpha  occ. eigenvalues --   -0.45674  -0.45078  -0.44741  -0.44500  -0.42761
 Alpha  occ. eigenvalues --   -0.37475  -0.36492
 Alpha virt. eigenvalues --    0.04876   0.11163   0.16365   0.21277   0.23741
 Alpha virt. eigenvalues --    0.25385   0.27182   0.27502   0.28104   0.28629
 Alpha virt. eigenvalues --    0.28984   0.30883   0.32262   0.32438   0.32719

 Mulliken charges:
               1
     1  C   -0.170541
     2  C   -0.218501
     3  C   -0.170625
     4  C    0.157661
     5  C   -0.170507
     6  C   -0.218572
     7  H    0.226152
     8  H    0.223967
     9  H    0.275267
    10  H    0.275978
    11  H    0.223960
    12  N    0.491975
    13  O   -0.458385
    14  O   -0.463938
    15  C   -0.297235
    16  C   -0.308421
    17  C   -0.471816
    18  H    0.144792
    19  H    0.150222
    20  H    0.143127
    21  H    0.176343
    22  H    0.159078
    23  H    0.145492
    24  H    0.162906
    25  C   -0.297168
    26  C   -0.298897
    27  C   -0.474688
    28  H    0.146985
    29  H    0.148801
    30  H    0.151002
    31  H    0.151013
    32  H    0.152224
    33  H    0.154300
    34  H    0.158047
 Sum of Mulliken charges =  -0.00000

 Dipole moment (field-independent basis, Debye):
    X=             -4.1331    Y=             -3.5666    Z=              0.3603  Tot=              5.4711
 Quadrupole moment (field-independent basis, Debye-Ang):
   XX=            -71.3938   YY=            -94.5113   ZZ=            -95.5666
   XY=              8.0597   XZ=             -1.0819   YZ=              1.1274

 Normal termination of Gaussian 16 at Thu May  6 07:52:39 2021.
