 Gaussian 16, Revision A.03,
 Gaussian 16:  EM64L-G16RevA.03 25-Dec-2016

 -------------
 #p 6-31g* mp2
 -------------

 ------------------------------------------------------
 Input file generated by CHIRIPA (05-May-2021 14:53:12)
 ------------------------------------------------------
 Symbolic Z-matrix:
 Charge =  0 Multiplicity = 1

                         Standard orientation:
 ---------------------------------------------------------------------
 Center     Atomic      Atomic             Coordinates (Angstroms)
 Number     Number       Type             X           Y           Z
 ---------------------------------------------------------------------
      1          6           0        3.038917    0.981120    0.216350
      2          6           0        3.427972    2.273501   -0.502242
      3          6           0        2.434823    3.409404   -0.254911
      4          1           0        2.037423    0.672809   -0.113646
      5          1           0        2.965976    1.177265    1.295054
      6          1           0        3.501510    2.074652   -1.579121
      7          1           0        4.428737    2.578668   -0.170640
      8          1           0        2.367587    3.636424    0.813987
      9          1           0        1.435092    3.129544   -0.602497
     10          1           0        2.732227    4.323693   -0.777870
     11          6           0        4.022104   -0.163707   -0.021229
     12          6           0        3.633048   -1.456087    0.697363
     13          6           0        4.626198   -2.591990    0.450032
     14          1           0        4.095045   -0.359851   -1.099933
     15          1           0        5.023598    0.144605    0.308767
     16          1           0        2.632284   -1.761254    0.365760
     17          1           0        3.559511   -1.257238    1.774241
     18          1           0        5.625929   -2.312130    0.797618
     19          1           0        4.693434   -2.819010   -0.618866
     20          1           0        4.328794   -3.506280    0.972990
     21          6           0       -4.674227    1.203828    0.536055
     22          6           0       -4.904493   -0.159007    0.321164
     23          6           0       -3.850407   -1.012268   -0.018534
     24          6           0       -2.572978   -0.466553   -0.135411
     25          6           0       -2.311621    0.886885    0.072402
     26          6           0       -3.380807    1.721512    0.411209
     27          1           0       -5.498931    1.859424    0.799595
     28          1           0       -5.907942   -0.563816    0.417427
     29          1           0       -4.000491   -2.071202   -0.190442
     30          1           0       -1.300382    1.261247   -0.030876
     31          1           0       -3.199025    2.779503    0.577515
     32          7           0       -1.449072   -1.359998   -0.494562
     33          8           0       -0.332902   -0.854593   -0.591353
     34          8           0       -1.705605   -2.548769   -0.672474
 ---------------------------------------------------------------------

 SCF Done:  E(RHF) =  -669.536558854     A.U. after   15 cycles
 E2 =    -0.2091596625D+01 EUMP2 =    -0.67162815547901D+03

 The electronic state is 1-A.
 Alpha  occ. eigenvalues --  -20.61019 -20.61013 -15.86049 -11.31320 -11.27878
 Alpha  occ. eigenvalues --  -11.27874 -11.27608 -11.26876 -11.26864 -11.21034
 Alpha  occ. eigenvalues --  -11.20874 -11.20428 -11.20379 -11.20338 -11.20073
 Alpha  occ. eigenvalues --   -1.60074  -1.39632  -1.19484  -1.08897  -1.07529
 Alpha  occ. eigenvalues --   -1.04873  -1.02734  -0.95748  -0.95217  -0.86277
 Alpha  occ. eigenvalues --   -0.86249  -0.82587  -0.78802  -0.77667  -0.77265
 Alpha  occ. eigenvalues --   -0.72277  -0.71381  -0.70594  -0.65146  -0.64876
 Alpha  occ. eigenvalues --   -0.64132  -0.62222  -0.60127  -0.58617  -0.56808
 Alpha  occ. eigenvalues --   -0.55381  -0.54512  -0.53208  -0.52964  -0.51957
 Alpha  occ. eigenvalues --   -0.51659  -0.49224  -0.49024  -0.49000  -0.47122
 Alpha  occ. eigenvalues --   -0.45789  -0.45124  -0.44854  -0.44597  -0.42945
 Alpha  occ. eigenvalues --   -0.37461  -0.36472
 Alpha virt. eigenvalues --    0.04879   0.11183   0.16379   0.20436   0.23201
 Alpha virt. eigenvalues --    0.24537   0.26162   0.27473   0.27871   0.28747
 Alpha virt. eigenvalues --    0.29318   0.30862   0.31517   0.32281   0.32728

 Mulliken charges:
               1
     1  C   -0.310625
     2  C   -0.298237
     3  C   -0.474828
     4  H    0.173924
     5  H    0.143240
     6  H    0.152720
     7  H    0.149775
     8  H    0.152689
     9  H    0.148555
    10  H    0.158646
    11  C   -0.295883
    12  C   -0.306808
    13  C   -0.475023
    14  H    0.150031
    15  H    0.143861
    16  H    0.174131
    17  H    0.145818
    18  H    0.150031
    19  H    0.155259
    20  H    0.158960
    21  C   -0.170390
    22  C   -0.218673
    23  C   -0.170599
    24  C    0.157379
    25  C   -0.171455
    26  C   -0.219067
    27  H    0.226165
    28  H    0.223898
    29  H    0.275815
    30  H    0.277483
    31  H    0.224547
    32  N    0.496314
    33  O   -0.469141
    34  O   -0.458510
 Sum of Mulliken charges =  -0.00000

 Dipole moment (field-independent basis, Debye):
    X=             -4.2560    Y=              2.9923    Z=              1.1904  Tot=              5.3370
 Quadrupole moment (field-independent basis, Debye-Ang):
   XX=            -73.7811   YY=            -96.1485   ZZ=            -95.4848
   XY=             -3.0321   XZ=             -2.5542   YZ=             -0.5602

 Normal termination of Gaussian 16 at Thu May  6 15:20:57 2021.
