 Gaussian 16, Revision A.03,
 Gaussian 16:  EM64L-G16RevA.03 25-Dec-2016

 -------------
 #p 6-31g* mp2
 -------------

 ------------------------------------------------------
 Input file generated by CHIRIPA (05-May-2021 14:51:07)
 ------------------------------------------------------
 Symbolic Z-matrix:
 Charge =  0 Multiplicity = 1

                         Standard orientation:
 ---------------------------------------------------------------------
 Center     Atomic      Atomic             Coordinates (Angstroms)
 Number     Number       Type             X           Y           Z
 ---------------------------------------------------------------------
      1          6           0        3.881281   -0.287975   -0.131803
      2          6           0        4.644922    1.024893   -0.308483
      3          6           0        5.914892    0.862221   -1.144251
      4          1           0        4.541220   -1.027789    0.341590
      5          1           0        3.621307   -0.688875   -1.121291
      6          1           0        4.902172    1.423902    0.681078
      7          1           0        3.983028    1.761726   -0.781335
      8          1           0        5.672796    0.487012   -2.143856
      9          1           0        6.597162    0.147269   -0.673134
     10          1           0        6.445185    1.812865   -1.257944
     11          6           0        2.609302   -0.141544    0.701477
     12          6           0        1.845660   -1.454411    0.878158
     13          6           0        0.575691   -1.291740    1.713926
     14          1           0        2.869275    0.259356    1.690966
     15          1           0        1.949363    0.598270    0.228085
     16          1           0        2.507554   -2.191245    1.351010
     17          1           0        1.588410   -1.853421   -0.111403
     18          1           0       -0.106580   -0.576788    1.242809
     19          1           0        0.817786   -0.916531    2.713531
     20          1           0        0.045398   -2.242383    1.827619
     21          6           0       -3.578754   -0.471694   -0.316731
     22          6           0       -2.630347   -1.586574   -0.758939
     23          6           0       -3.312080   -2.953893   -0.817876
     24          1           0       -3.991355   -0.720145    0.670679
     25          1           0       -4.430567   -0.428180   -1.009491
     26          1           0       -1.779880   -1.627061   -0.066349
     27          1           0       -2.219809   -1.335347   -1.745326
     28          1           0       -4.149149   -2.936916   -1.523303
     29          1           0       -3.706721   -3.230288    0.165215
     30          1           0       -2.615972   -3.736179   -1.136189
     31          6           0       -2.911828    0.901212   -0.252944
     32          6           0       -3.860236    2.016093    0.189264
     33          6           0       -3.178502    3.383412    0.248200
     34          1           0       -2.060016    0.857698    0.439816
     35          1           0       -2.499227    1.149664   -1.240354
     36          1           0       -4.270774    1.764866    1.175651
     37          1           0       -4.710703    2.056580   -0.503327
     38          1           0       -2.783861    3.659807   -0.734890
     39          1           0       -2.341433    3.366435    0.953628
     40          1           0       -3.874610    4.165697    0.566514
 ---------------------------------------------------------------------

 SCF Done:  E(RHF) =  -470.732659741     A.U. after   11 cycles
 E2 =    -0.1583531528D+01 EUMP2 =    -0.47231619126828D+03

 The electronic state is 1-A.
 Alpha  occ. eigenvalues --  -11.21635 -11.21606 -11.21604 -11.21483 -11.21418
 Alpha  occ. eigenvalues --  -11.21404 -11.21358 -11.21328 -11.21116 -11.21075
 Alpha  occ. eigenvalues --  -11.21074 -11.21029  -1.08457  -1.08406  -1.03571
 Alpha  occ. eigenvalues --   -1.03489  -0.96015  -0.95961  -0.87047  -0.86966
 Alpha  occ. eigenvalues --   -0.79660  -0.79541  -0.78291  -0.78199  -0.65191
 Alpha  occ. eigenvalues --   -0.64960  -0.61082  -0.60798  -0.59406  -0.59296
 Alpha  occ. eigenvalues --   -0.57668  -0.57525  -0.55327  -0.55248  -0.52727
 Alpha  occ. eigenvalues --   -0.52648  -0.52437  -0.52377  -0.50043  -0.49875
 Alpha  occ. eigenvalues --   -0.47955  -0.47876  -0.46795  -0.46545  -0.45896
 Alpha  occ. eigenvalues --   -0.45747  -0.45743  -0.45356  -0.43802  -0.43757
 Alpha virt. eigenvalues --    0.21194   0.23135   0.23792   0.24349   0.25681
 Alpha virt. eigenvalues --    0.26776   0.27077   0.27459   0.27972   0.29221
 Alpha virt. eigenvalues --    0.31335   0.31556   0.31642   0.31961   0.32036

 Mulliken charges:
               1
     1  C   -0.298357
     2  C   -0.299717
     3  C   -0.475722
     4  H    0.149646
     5  H    0.149683
     6  H    0.151908
     7  H    0.152120
     8  H    0.155206
     9  H    0.155163
    10  H    0.160297
    11  C   -0.298783
    12  C   -0.300261
    13  C   -0.484761
    14  H    0.149457
    15  H    0.150336
    16  H    0.152277
    17  H    0.153120
    18  H    0.162126
    19  H    0.155946
    20  H    0.160650
    21  C   -0.297431
    22  C   -0.309706
    23  C   -0.475229
    24  H    0.149596
    25  H    0.149340
    26  H    0.164369
    27  H    0.150447
    28  H    0.154859
    29  H    0.154891
    30  H    0.159702
    31  C   -0.304115
    32  C   -0.299296
    33  C   -0.475845
    34  H    0.153826
    35  H    0.149290
    36  H    0.152220
    37  H    0.152117
    38  H    0.154983
    39  H    0.155288
    40  H    0.160361
 Sum of Mulliken charges =  -0.00000

 Dipole moment (field-independent basis, Debye):
    X=              0.0285    Y=              0.0045    Z=              0.0211  Tot=              0.0358
 Quadrupole moment (field-independent basis, Debye-Ang):
   XX=            -85.5431   YY=            -85.8828   ZZ=            -83.4821
   XY=             -0.6183   XZ=              1.1497   YZ=             -0.4429

 Normal termination of Gaussian 16 at Thu May  6 00:29:44 2021.
