 Gaussian 16, Revision A.03,
 Gaussian 16:  EM64L-G16RevA.03 25-Dec-2016

 -------------
 #p 6-31g* mp2
 -------------

 ------------------------------------------------------
 Input file generated by CHIRIPA (05-May-2021 14:53:13)
 ------------------------------------------------------
 Symbolic Z-matrix:
 Charge =  0 Multiplicity = 1

                         Standard orientation:
 ---------------------------------------------------------------------
 Center     Atomic      Atomic             Coordinates (Angstroms)
 Number     Number       Type             X           Y           Z
 ---------------------------------------------------------------------
      1          6           0       -4.236541   -0.388508   -0.530816
      2          6           0       -5.160622   -0.856289    0.594013
      3          6           0       -6.093866   -1.987217    0.160597
      4          1           0       -4.845468   -0.057060   -1.383046
      5          1           0       -3.640916   -1.241216   -0.885099
      6          1           0       -5.753336   -0.002649    0.947007
      7          1           0       -4.549427   -1.186482    1.443736
      8          1           0       -5.517247   -2.856262   -0.172382
      9          1           0       -6.727997   -1.665702   -0.671933
     10          1           0       -6.745593   -2.306195    0.979965
     11          6           0       -3.297576    0.741728   -0.112917
     12          6           0       -2.373496    1.209508   -1.237747
     13          6           0       -1.440252    2.340437   -0.804330
     14          1           0       -3.893201    1.594435    0.241365
     15          1           0       -2.688649    0.410279    0.739312
     16          1           0       -2.984691    1.539702   -2.087470
     17          1           0       -1.780781    0.355868   -1.590741
     18          1           0       -0.806120    2.018921    0.028199
     19          1           0       -2.016870    3.209481   -0.471352
     20          1           0       -0.788525    2.659415   -1.623699
     21          6           0        1.590646    1.650681    1.408059
     22          6           0        2.417525    1.985166    0.330603
     23          6           0        3.171329    1.002329   -0.317749
     24          6           0        3.073757   -0.310897    0.139643
     25          6           0        2.259017   -0.675590    1.210384
     26          6           0        1.514165    0.323711    1.843743
     27          1           0        1.008550    2.420567    1.905891
     28          1           0        2.478897    3.014888   -0.009910
     29          1           0        3.819502    1.233536   -1.154309
     30          1           0        2.218668   -1.710711    1.527109
     31          1           0        0.872841    0.061038    2.680254
     32          7           0        3.867036   -1.360098   -0.538802
     33          8           0        3.763490   -2.509754   -0.116661
     34          8           0        4.577335   -1.012936   -1.479861
 ---------------------------------------------------------------------

 SCF Done:  E(RHF) =  -669.534917702     A.U. after   15 cycles
 E2 =    -0.2092218513D+01 EUMP2 =    -0.67162713621464D+03

 The electronic state is 1-A.
 Alpha  occ. eigenvalues --  -20.60803 -20.60797 -15.85857 -11.31236 -11.27819
 Alpha  occ. eigenvalues --  -11.27802 -11.27544 -11.26837 -11.26805 -11.21984
 Alpha  occ. eigenvalues --  -11.21916 -11.21817 -11.21688 -11.21532 -11.21306
 Alpha  occ. eigenvalues --   -1.59878  -1.39431  -1.19421  -1.08836  -1.08779
 Alpha  occ. eigenvalues --   -1.04819  -1.03888  -0.96358  -0.95643  -0.87377
 Alpha  occ. eigenvalues --   -0.86216  -0.82473  -0.79962  -0.78612  -0.77511
 Alpha  occ. eigenvalues --   -0.72075  -0.71202  -0.70542  -0.65427  -0.65070
 Alpha  occ. eigenvalues --   -0.64816  -0.62163  -0.61296  -0.59718  -0.57969
 Alpha  occ. eigenvalues --   -0.55742  -0.55293  -0.53274  -0.53006  -0.52905
 Alpha  occ. eigenvalues --   -0.52695  -0.50263  -0.48835  -0.48829  -0.48277
 Alpha  occ. eigenvalues --   -0.46985  -0.46160  -0.46071  -0.44834  -0.44152
 Alpha  occ. eigenvalues --   -0.37310  -0.36422
 Alpha virt. eigenvalues --    0.04988   0.11189   0.16403   0.21042   0.22594
 Alpha virt. eigenvalues --    0.24067   0.26206   0.26891   0.27003   0.27713
 Alpha virt. eigenvalues --    0.28671   0.30567   0.31259   0.31617   0.31908

 Mulliken charges:
               1
     1  C   -0.298862
     2  C   -0.299518
     3  C   -0.475985
     4  H    0.150984
     5  H    0.151504
     6  H    0.151633
     7  H    0.150150
     8  H    0.156431
     9  H    0.155997
    10  H    0.160639
    11  C   -0.297605
    12  C   -0.298894
    13  C   -0.481224
    14  H    0.148814
    15  H    0.145114
    16  H    0.153323
    17  H    0.155490
    18  H    0.155918
    19  H    0.152113
    20  H    0.159529
    21  C   -0.172483
    22  C   -0.214986
    23  C   -0.171313
    24  C    0.158621
    25  C   -0.170746
    26  C   -0.219724
    27  H    0.227735
    28  H    0.224566
    29  H    0.275856
    30  H    0.275742
    31  H    0.223786
    32  N    0.488062
    33  O   -0.460440
    34  O   -0.460226
 Sum of Mulliken charges =  -0.00000

 Dipole moment (field-independent basis, Debye):
    X=             -2.7850    Y=              3.6626    Z=              2.3594  Tot=              5.1709
 Quadrupole moment (field-independent basis, Debye-Ang):
   XX=           -111.8254   YY=            -95.3558   ZZ=            -92.5186
   XY=             12.9901   XZ=              5.8647   YZ=             -2.9591

 Normal termination of Gaussian 16 at Wed May  5 23:24:02 2021.
