 Gaussian 16, Revision A.03,
 Gaussian 16:  EM64L-G16RevA.03 25-Dec-2016

 -------------
 #p 6-31g* mp2
 -------------

 ------------------------------------------------------
 Input file generated by CHIRIPA (05-May-2021 14:57:24)
 ------------------------------------------------------
 Symbolic Z-matrix:
 Charge =  0 Multiplicity = 1

                         Standard orientation:
 ---------------------------------------------------------------------
 Center     Atomic      Atomic             Coordinates (Angstroms)
 Number     Number       Type             X           Y           Z
 ---------------------------------------------------------------------
      1          6           0       -4.491022   -2.134462    0.611492
      2          6           0       -3.377770   -2.137958   -0.235372
      3          6           0       -2.822485   -0.935566   -0.683099
      4          6           0       -3.408433    0.257316   -0.262400
      5          6           0       -4.517874    0.293639    0.580875
      6          6           0       -5.056524   -0.920815    1.016199
      7          1           0       -4.915919   -3.073194    0.954480
      8          1           0       -2.936510   -3.078985   -0.551290
      9          1           0       -1.960890   -0.909296   -1.339134
     10          1           0       -4.935792    1.247591    0.878762
     11          1           0       -5.921115   -0.915062    1.673841
     12          7           0       -2.829384    1.536619   -0.729824
     13          8           0       -3.364138    2.574134   -0.344806
     14          8           0       -1.851735    1.477599   -1.472357
     15          6           0        1.092722    0.477728    0.712159
     16          6           0        1.413216   -0.648640   -0.052759
     17          6           0        2.745743   -0.948812   -0.350780
     18          6           0        3.736969   -0.097149    0.134435
     19          6           0        3.449552    1.032499    0.899012
     20          6           0        2.110119    1.313229    1.184769
     21          1           0        0.054900    0.703357    0.938906
     22          1           0        0.625166   -1.299281   -0.421121
     23          1           0        3.022006   -1.814262   -0.940774
     24          1           0        4.256981    1.662346    1.252237
     25          1           0        1.864169    2.188667    1.779044
     26          7           0        5.151311   -0.404636   -0.174576
     27          8           0        6.006124    0.361503    0.264698
     28          8           0        5.378278   -1.405962   -0.850201
 ---------------------------------------------------------------------

 SCF Done:  E(RHF) =  -868.337869606     A.U. after   16 cycles
 E2 =    -0.2600301267D+01 EUMP2 =    -0.87093817087290D+03

 The electronic state is 1-A.
 Alpha  occ. eigenvalues --  -20.61867 -20.61860 -20.60470 -20.60462 -15.86896
 Alpha  occ. eigenvalues --  -15.85523 -11.32257 -11.30804 -11.28850 -11.28743
 Alpha  occ. eigenvalues --  -11.28452 -11.27797 -11.27730 -11.27437 -11.27370
 Alpha  occ. eigenvalues --  -11.27083 -11.26455 -11.26307  -1.60945  -1.59546
 Alpha  occ. eigenvalues --   -1.40493  -1.39103  -1.20400  -1.18980  -1.09784
 Alpha  occ. eigenvalues --   -1.08373  -1.05789  -1.04393  -0.96625  -0.95223
 Alpha  occ. eigenvalues --   -0.87181  -0.85791  -0.83448  -0.82076  -0.78523
 Alpha  occ. eigenvalues --   -0.77147  -0.73097  -0.72312  -0.71745  -0.71470
 Alpha  occ. eigenvalues --   -0.70868  -0.70046  -0.66034  -0.65772  -0.64639
 Alpha  occ. eigenvalues --   -0.64436  -0.63126  -0.61758  -0.56238  -0.54861
 Alpha  occ. eigenvalues --   -0.54119  -0.53864  -0.52689  -0.52499  -0.49877
 Alpha  occ. eigenvalues --   -0.49858  -0.48502  -0.48496  -0.45879  -0.44528
 Alpha  occ. eigenvalues --   -0.38351  -0.37392  -0.36890  -0.35994
 Alpha virt. eigenvalues --    0.03957   0.05432   0.10169   0.11645   0.15483
 Alpha virt. eigenvalues --    0.16954   0.19536   0.21794   0.25148   0.26987
 Alpha virt. eigenvalues --    0.28066   0.28652   0.30363   0.30686   0.32139

 Mulliken charges:
               1
     1  C   -0.170030
     2  C   -0.217701
     3  C   -0.180309
     4  C    0.155631
     5  C   -0.170942
     6  C   -0.217570
     7  H    0.229698
     8  H    0.225571
     9  H    0.274349
    10  H    0.278031
    11  H    0.227364
    12  N    0.485385
    13  O   -0.456197
    14  O   -0.459691
    15  C   -0.159094
    16  C   -0.215916
    17  C   -0.171109
    18  C    0.157919
    19  C   -0.170373
    20  C   -0.218987
    21  H    0.224198
    22  H    0.211773
    23  H    0.272863
    24  H    0.275044
    25  H    0.225107
    26  N    0.488263
    27  O   -0.460871
    28  O   -0.462406
 Sum of Mulliken charges =  -0.00000

 Dipole moment (field-independent basis, Debye):
    X=             -7.3933    Y=             -3.3280    Z=              2.8095  Tot=              8.5808
 Quadrupole moment (field-independent basis, Debye-Ang):
   XX=           -125.3257   YY=           -103.2032   ZZ=           -103.9434
   XY=             19.4166   XZ=             -3.2033   YZ=              5.4901

 Normal termination of Gaussian 16 at Thu May  6 21:17:00 2021.
