 Gaussian 16, Revision A.03,
 Gaussian 16:  EM64L-G16RevA.03 25-Dec-2016

 -------------
 #p 6-31g* mp2
 -------------

 ------------------------------------------------------
 Input file generated by CHIRIPA (05-May-2021 14:51:14)
 ------------------------------------------------------
 Symbolic Z-matrix:
 Charge =  0 Multiplicity = 1

                         Standard orientation:
 ---------------------------------------------------------------------
 Center     Atomic      Atomic             Coordinates (Angstroms)
 Number     Number       Type             X           Y           Z
 ---------------------------------------------------------------------
      1          6           0        3.996217   -0.394314    0.253793
      2          6           0        4.696250    0.232587   -0.952414
      3          6           0        6.114293    0.706511   -0.632501
      4          1           0        3.963772    0.337824    1.072247
      5          1           0        4.594106   -1.241999    0.616219
      6          1           0        4.096516    1.077980   -1.313309
      7          1           0        4.726862   -0.501063   -1.768157
      8          1           0        6.732937   -0.130651   -0.293323
      9          1           0        6.099010    1.457364    0.164109
     10          1           0        6.596200    1.151289   -1.508742
     11          6           0        2.577715   -0.872986   -0.050270
     12          6           0        1.877682   -1.499887    1.155937
     13          6           0        0.459639   -1.973810    0.836024
     14          1           0        1.979826   -0.025301   -0.412696
     15          1           0        2.610160   -1.605123   -0.868724
     16          1           0        1.847070   -0.766237    1.971680
     17          1           0        2.477416   -2.345280    1.516832
     18          1           0        0.474923   -2.724664    0.039414
     19          1           0       -0.159005   -1.136648    0.496847
     20          1           0       -0.022267   -2.418588    1.712265
     21          6           0       -3.148301    1.318452    0.206864
     22          6           0       -1.716518    1.805963   -0.017445
     23          6           0       -1.454506    3.177340    0.605825
     24          1           0       -3.849030    2.053328   -0.212520
     25          1           0       -3.348879    1.275984    1.286382
     26          1           0       -1.518247    1.846177   -1.096190
     27          1           0       -1.019113    1.069748    0.402351
     28          1           0       -1.625006    3.148102    1.686879
     29          1           0       -2.126979    3.928942    0.179824
     30          1           0       -0.425052    3.506571    0.433516
     31          6           0       -3.425631   -0.051153   -0.410387
     32          6           0       -4.857414   -0.538662   -0.186078
     33          6           0       -5.119426   -1.910040   -0.809348
     34          1           0       -3.225053   -0.008685   -1.489906
     35          1           0       -2.724902   -0.786029    0.008997
     36          1           0       -5.554820    0.197551   -0.605874
     37          1           0       -5.055685   -0.578877    0.892667
     38          1           0       -4.446955   -2.661643   -0.383346
     39          1           0       -4.948926   -1.880802   -1.890401
     40          1           0       -6.148880   -2.239272   -0.637039
 ---------------------------------------------------------------------

 SCF Done:  E(RHF) =  -470.733122582     A.U. after   11 cycles
 E2 =    -0.1583224002D+01 EUMP2 =    -0.47231634658431D+03

 The electronic state is 1-A.
 Alpha  occ. eigenvalues --  -11.21646 -11.21622 -11.21602 -11.21579 -11.21406
 Alpha  occ. eigenvalues --  -11.21403 -11.21347 -11.21327 -11.21118 -11.21074
 Alpha  occ. eigenvalues --  -11.21071 -11.21040  -1.08451  -1.08421  -1.03555
 Alpha  occ. eigenvalues --   -1.03525  -0.95999  -0.95976  -0.87012  -0.86999
 Alpha  occ. eigenvalues --   -0.79643  -0.79578  -0.78306  -0.78187  -0.65176
 Alpha  occ. eigenvalues --   -0.64978  -0.61053  -0.60836  -0.59385  -0.59325
 Alpha  occ. eigenvalues --   -0.57622  -0.57575  -0.55315  -0.55247  -0.52700
 Alpha  occ. eigenvalues --   -0.52682  -0.52421  -0.52400  -0.49987  -0.49910
 Alpha  occ. eigenvalues --   -0.48022  -0.47871  -0.46803  -0.46562  -0.45936
 Alpha  occ. eigenvalues --   -0.45754  -0.45733  -0.45338  -0.43793  -0.43787
 Alpha virt. eigenvalues --    0.20922   0.23025   0.23778   0.24534   0.25567
 Alpha virt. eigenvalues --    0.26651   0.27035   0.27411   0.28182   0.29298
 Alpha virt. eigenvalues --    0.30546   0.31586   0.31690   0.31856   0.31967

 Mulliken charges:
               1
     1  C   -0.298307
     2  C   -0.299659
     3  C   -0.475714
     4  H    0.149633
     5  H    0.149536
     6  H    0.151977
     7  H    0.151968
     8  H    0.155178
     9  H    0.155182
    10  H    0.160262
    11  C   -0.299399
    12  C   -0.299258
    13  C   -0.486138
    14  H    0.150594
    15  H    0.149800
    16  H    0.151600
    17  H    0.152110
    18  H    0.155812
    19  H    0.164814
    20  H    0.159614
    21  C   -0.297793
    22  C   -0.307361
    23  C   -0.475150
    24  H    0.149784
    25  H    0.149416
    26  H    0.152055
    27  H    0.158125
    28  H    0.155319
    29  H    0.155575
    30  H    0.159750
    31  C   -0.303621
    32  C   -0.299427
    33  C   -0.475800
    34  H    0.149273
    35  H    0.155723
    36  H    0.151782
    37  H    0.151842
    38  H    0.155736
    39  H    0.155103
    40  H    0.160065
 Sum of Mulliken charges =  -0.00000

 Dipole moment (field-independent basis, Debye):
    X=             -0.0049    Y=             -0.0025    Z=             -0.0075  Tot=              0.0093
 Quadrupole moment (field-independent basis, Debye-Ang):
   XX=            -85.7968   YY=            -84.8723   ZZ=            -84.1315
   XY=             -1.2122   XZ=             -0.0822   YZ=             -0.5456

 Normal termination of Gaussian 16 at Thu May  6 05:36:34 2021.
