 Gaussian 16, Revision A.03,
 Gaussian 16:  EM64L-G16RevA.03 25-Dec-2016

 -------------
 #p 6-31g* mp2
 -------------

 ------------------------------------------------------
 Input file generated by CHIRIPA (05-May-2021 14:57:21)
 ------------------------------------------------------
 Symbolic Z-matrix:
 Charge =  0 Multiplicity = 1

                         Standard orientation:
 ---------------------------------------------------------------------
 Center     Atomic      Atomic             Coordinates (Angstroms)
 Number     Number       Type             X           Y           Z
 ---------------------------------------------------------------------
      1          6           0       -2.177137    2.088396    0.579328
      2          6           0       -1.677926    0.837303    0.956258
      3          6           0       -2.422475   -0.323215    0.725189
      4          6           0       -3.667978   -0.195360    0.112272
      5          6           0       -4.192575    1.036819   -0.274796
      6          6           0       -3.430658    2.183993   -0.033915
      7          1           0       -1.592007    2.984731    0.762639
      8          1           0       -0.704741    0.760046    1.432689
      9          1           0       -2.060022   -1.304401    1.006827
     10          1           0       -5.166019    1.082053   -0.747848
     11          1           0       -3.820869    3.154284   -0.327709
     12          7           0       -4.465392   -1.416885   -0.137544
     13          8           0       -5.559874   -1.277413   -0.679109
     14          8           0       -3.980823   -2.490657    0.212945
     15          6           0        1.454885    1.368573   -0.531901
     16          6           0        1.377991   -0.027957   -0.514353
     17          6           0        2.524928   -0.799627   -0.305523
     18          6           0        3.737802   -0.138847   -0.116857
     19          6           0        3.846758    1.250856   -0.128889
     20          6           0        2.686852    2.002406   -0.339452
     21          1           0        0.558880    1.960211   -0.694798
     22          1           0        0.422577   -0.522908   -0.663526
     23          1           0        2.493937   -1.882272   -0.287127
     24          1           0        4.813357    1.715713    0.022812
     25          1           0        2.749561    3.086814   -0.352575
     26          7           0        4.958879   -0.945130    0.105139
     27          8           0        6.015439   -0.338892    0.268823
     28          8           0        4.836275   -2.168063    0.111252
 ---------------------------------------------------------------------

 SCF Done:  E(RHF) =  -868.335552197     A.U. after   16 cycles
 E2 =    -0.2603334713D+01 EUMP2 =    -0.87093888691023D+03

 The electronic state is 1-A.
 Alpha  occ. eigenvalues --  -20.61565 -20.61559 -20.61204 -20.61195 -15.86622
 Alpha  occ. eigenvalues --  -15.86259 -11.32225 -11.31773 -11.28774 -11.28726
 Alpha  occ. eigenvalues --  -11.28569 -11.28358 -11.28329 -11.28111 -11.27840
 Alpha  occ. eigenvalues --  -11.27787 -11.27428 -11.27338  -1.60635  -1.60275
 Alpha  occ. eigenvalues --   -1.40182  -1.39823  -1.20408  -1.19967  -1.09788
 Alpha  occ. eigenvalues --   -1.09338  -1.05837  -1.05369  -0.96574  -0.96147
 Alpha  occ. eigenvalues --   -0.87244  -0.86752  -0.83380  -0.82963  -0.78401
 Alpha  occ. eigenvalues --   -0.77965  -0.72835  -0.72474  -0.71963  -0.71611
 Alpha  occ. eigenvalues --   -0.71600  -0.71025  -0.66048  -0.65932  -0.65566
 Alpha  occ. eigenvalues --   -0.65312  -0.63163  -0.62650  -0.56378  -0.55896
 Alpha  occ. eigenvalues --   -0.54209  -0.54042  -0.53512  -0.53390  -0.49609
 Alpha  occ. eigenvalues --   -0.49578  -0.49245  -0.49220  -0.45535  -0.45196
 Alpha  occ. eigenvalues --   -0.38501  -0.38003  -0.37375  -0.36895
 Alpha virt. eigenvalues --    0.04044   0.04509   0.09947   0.10759   0.15395
 Alpha virt. eigenvalues --    0.15927   0.19858   0.21622   0.25535   0.26510
 Alpha virt. eigenvalues --    0.27359   0.28547   0.30243   0.31295   0.31861

 Mulliken charges:
               1
     1  C   -0.180573
     2  C   -0.225395
     3  C   -0.178841
     4  C    0.160927
     5  C   -0.170524
     6  C   -0.217157
     7  H    0.224548
     8  H    0.234637
     9  H    0.277601
    10  H    0.279159
    11  H    0.226910
    12  N    0.487798
    13  O   -0.456905
    14  O   -0.458114
    15  C   -0.180437
    16  C   -0.228416
    17  C   -0.171354
    18  C    0.159136
    19  C   -0.170139
    20  C   -0.219305
    21  H    0.226793
    22  H    0.229684
    23  H    0.278867
    24  H    0.277346
    25  H    0.222970
    26  N    0.487920
    27  O   -0.459147
    28  O   -0.457988
 Sum of Mulliken charges =  -0.00000

 Dipole moment (field-independent basis, Debye):
    X=             -1.6384    Y=              7.0375    Z=              0.0896  Tot=              7.2263
 Quadrupole moment (field-independent basis, Debye-Ang):
   XX=           -152.5848   YY=           -102.7375   ZZ=           -105.0575
   XY=             -5.0284   XZ=             -3.4588   YZ=             -0.8716

 Normal termination of Gaussian 16 at Thu May  6 14:32:08 2021.
