 Gaussian 16, Revision A.03,
 Gaussian 16:  EM64L-G16RevA.03 25-Dec-2016

 -------------
 #p 6-31g* mp2
 -------------

 ------------------------------------------------------
 Input file generated by CHIRIPA (05-May-2021 14:55:19)
 ------------------------------------------------------
 Symbolic Z-matrix:
 Charge =  0 Multiplicity = 1

                         Standard orientation:
 ---------------------------------------------------------------------
 Center     Atomic      Atomic             Coordinates (Angstroms)
 Number     Number       Type             X           Y           Z
 ---------------------------------------------------------------------
      1          6           0       -6.182635    1.077389    0.044036
      2          6           0       -5.047513    1.894217    0.072497
      3          6           0       -3.767615    1.332355    0.045658
      4          6           0       -3.659132   -0.056325   -0.009912
      5          6           0       -4.770904   -0.896791   -0.039395
      6          6           0       -6.040958   -0.313057   -0.011721
      7          1           0       -7.173067    1.522352    0.065210
      8          1           0       -5.154520    2.974365    0.115801
      9          1           0       -2.871920    1.941211    0.066697
     10          1           0       -4.632392   -1.970276   -0.082545
     11          1           0       -6.920735   -0.949880   -0.033928
     12          7           0       -2.309372   -0.662720   -0.038768
     13          8           0       -2.240681   -1.888902   -0.087740
     14          8           0       -1.345679    0.099650   -0.011867
     15          6           0        4.286908   -0.124172   -0.331461
     16          6           0        3.257222   -0.863320    0.523754
     17          6           0        1.898812   -0.992064   -0.166131
     18          1           0        3.901798    0.875371   -0.575486
     19          1           0        4.408346   -0.654063   -1.286376
     20          1           0        3.138784   -0.332965    1.477332
     21          1           0        3.644911   -1.861148    0.765932
     22          1           0        1.995895   -1.540343   -1.108768
     23          1           0        1.486892   -0.003476   -0.393326
     24          1           0        1.177892   -1.523619    0.462823
     25          6           0        5.649958    0.012515    0.344662
     26          6           0        6.679645    0.751661   -0.510553
     27          6           0        8.038055    0.880405    0.179331
     28          1           0        5.528520    0.542405    1.299578
     29          1           0        6.035069   -0.987028    0.588688
     30          1           0        6.291955    1.749491   -0.752731
     31          1           0        6.798082    0.221307   -1.464132
     32          1           0        8.449975   -0.108182    0.406527
     33          1           0        7.940972    1.428684    1.121969
     34          1           0        8.758975    1.411962   -0.449622
 ---------------------------------------------------------------------

 SCF Done:  E(RHF) =  -669.535587440     A.U. after   15 cycles
 E2 =    -0.2091268509D+01 EUMP2 =    -0.67162685594989D+03

 The electronic state is 1-A.
 Alpha  occ. eigenvalues --  -20.60923 -20.60913 -15.85951 -11.31290 -11.27855
 Alpha  occ. eigenvalues --  -11.27850 -11.27592 -11.26863 -11.26854 -11.20931
 Alpha  occ. eigenvalues --  -11.20536 -11.20525 -11.20284 -11.20122 -11.18894
 Alpha  occ. eigenvalues --   -1.59978  -1.39535  -1.19458  -1.08859  -1.07419
 Alpha  occ. eigenvalues --   -1.04857  -1.02379  -0.95704  -0.94776  -0.86257
 Alpha  occ. eigenvalues --   -0.85783  -0.82533  -0.78493  -0.77585  -0.77170
 Alpha  occ. eigenvalues --   -0.72168  -0.71294  -0.70567  -0.65114  -0.64860
 Alpha  occ. eigenvalues --   -0.64067  -0.62204  -0.59790  -0.58265  -0.56381
 Alpha  occ. eigenvalues --   -0.55361  -0.54089  -0.53187  -0.52948  -0.51468
 Alpha  occ. eigenvalues --   -0.51216  -0.49076  -0.48921  -0.48512  -0.46775
 Alpha  occ. eigenvalues --   -0.45555  -0.44950  -0.44690  -0.44601  -0.42575
 Alpha  occ. eigenvalues --   -0.37438  -0.36458
 Alpha virt. eigenvalues --    0.04945   0.11197   0.16443   0.21330   0.23775
 Alpha virt. eigenvalues --    0.25523   0.27247   0.27587   0.28194   0.28421
 Alpha virt. eigenvalues --    0.29335   0.30901   0.32384   0.32545   0.32686

 Mulliken charges:
               1
     1  C   -0.170640
     2  C   -0.218524
     3  C   -0.170855
     4  C    0.158029
     5  C   -0.170603
     6  C   -0.218576
     7  H    0.225952
     8  H    0.223759
     9  H    0.275514
    10  H    0.275873
    11  H    0.223794
    12  N    0.490113
    13  O   -0.459584
    14  O   -0.459282
    15  C   -0.296839
    16  C   -0.301852
    17  C   -0.469844
    18  H    0.147634
    19  H    0.147377
    20  H    0.147599
    21  H    0.146242
    22  H    0.146111
    23  H    0.163754
    24  H    0.171940
    25  C   -0.297056
    26  C   -0.298738
    27  C   -0.475076
    28  H    0.147663
    29  H    0.148127
    30  H    0.150549
    31  H    0.150950
    32  H    0.154407
    33  H    0.154077
    34  H    0.158004
 Sum of Mulliken charges =  -0.00000

 Dipole moment (field-independent basis, Debye):
    X=             -5.2043    Y=              2.1390    Z=              0.0991  Tot=              5.6276
 Quadrupole moment (field-independent basis, Debye-Ang):
   XX=            -62.3769   YY=            -90.2300   ZZ=            -95.8011
   XY=             -5.9712   XZ=             -0.7806   YZ=              0.4600

 Normal termination of Gaussian 16 at Wed May  5 20:29:50 2021.
