 Gaussian 16, Revision A.03,
 Gaussian 16:  EM64L-G16RevA.03 25-Dec-2016

 -------------
 #p 6-31g* mp2
 -------------

 ------------------------------------------------------
 Input file generated by CHIRIPA (05-May-2021 14:55:22)
 ------------------------------------------------------
 Symbolic Z-matrix:
 Charge =  0 Multiplicity = 1

                         Standard orientation:
 ---------------------------------------------------------------------
 Center     Atomic      Atomic             Coordinates (Angstroms)
 Number     Number       Type             X           Y           Z
 ---------------------------------------------------------------------
      1          6           0        2.620049   -2.247748    0.647824
      2          6           0        2.459581   -1.299281    1.663296
      3          6           0        2.568934    0.066075    1.383312
      4          6           0        2.840730    0.449423    0.070887
      5          6           0        3.005814   -0.471462   -0.962557
      6          6           0        2.892174   -1.831545   -0.659557
      7          1           0        2.533436   -3.306341    0.874262
      8          1           0        2.248183   -1.619613    2.679536
      9          1           0        2.449298    0.821607    2.150305
     10          1           0        3.215892   -0.121612   -1.965996
     11          1           0        3.017278   -2.565908   -1.450192
     12          7           0        2.958767    1.892074   -0.237703
     13          8           0        3.198771    2.204030   -1.402056
     14          8           0        2.809044    2.683550    0.690621
     15          6           0       -4.371420   -0.229476   -0.217721
     16          6           0       -4.963193    1.031912    0.412112
     17          6           0       -6.484939    1.100424    0.280254
     18          1           0       -4.650958   -0.267242   -1.279501
     19          1           0       -4.821554   -1.113057    0.255626
     20          1           0       -4.511060    1.912850   -0.061324
     21          1           0       -4.682053    1.066779    1.472470
     22          1           0       -6.953091    0.239768    0.768828
     23          1           0       -6.781126    1.090645   -0.773681
     24          1           0       -6.886956    2.010060    0.737208
     25          6           0       -2.851046   -0.312366   -0.093948
     26          6           0       -2.259274   -1.573755   -0.723782
     27          6           0       -0.737527   -1.642267   -0.591923
     28          1           0       -2.400912    0.571215   -0.567295
     29          1           0       -2.571508   -0.274600    0.967832
     30          1           0       -2.540414   -1.608620   -1.784140
     31          1           0       -2.711408   -2.454692   -0.250346
     32          1           0       -0.441341   -1.632488    0.462012
     33          1           0       -0.269376   -0.781609   -1.080497
     34          1           0       -0.335512   -2.551902   -1.048877
 ---------------------------------------------------------------------

 SCF Done:  E(RHF) =  -669.534537323     A.U. after   15 cycles
 E2 =    -0.2093136684D+01 EUMP2 =    -0.67162767400704D+03

 The electronic state is 1-A.
 Alpha  occ. eigenvalues --  -20.60765 -20.60760 -15.85820 -11.31174 -11.27751
 Alpha  occ. eigenvalues --  -11.27747 -11.27482 -11.26755 -11.26740 -11.21691
 Alpha  occ. eigenvalues --  -11.21579 -11.21448 -11.21384 -11.21169 -11.21052
 Alpha  occ. eigenvalues --   -1.59842  -1.39396  -1.19355  -1.08755  -1.08472
 Alpha  occ. eigenvalues --   -1.04760  -1.03579  -0.96035  -0.95585  -0.87055
 Alpha  occ. eigenvalues --   -0.86160  -0.82420  -0.79649  -0.78283  -0.77467
 Alpha  occ. eigenvalues --   -0.72039  -0.71166  -0.70467  -0.65108  -0.65011
 Alpha  occ. eigenvalues --   -0.64769  -0.62110  -0.60984  -0.59419  -0.57662
 Alpha  occ. eigenvalues --   -0.55334  -0.55262  -0.53562  -0.52857  -0.52649
 Alpha  occ. eigenvalues --   -0.52076  -0.49991  -0.48797  -0.48793  -0.47915
 Alpha  occ. eigenvalues --   -0.46692  -0.45812  -0.45750  -0.44804  -0.43852
 Alpha  occ. eigenvalues --   -0.37251  -0.36311
 Alpha virt. eigenvalues --    0.05071   0.11204   0.16557   0.21277   0.22831
 Alpha virt. eigenvalues --    0.24236   0.26588   0.27111   0.27447   0.27820
 Alpha virt. eigenvalues --    0.28437   0.30839   0.31326   0.31546   0.31874

 Mulliken charges:
               1
     1  C   -0.166731
     2  C   -0.219413
     3  C   -0.170239
     4  C    0.159367
     5  C   -0.171899
     6  C   -0.213778
     7  H    0.225523
     8  H    0.223105
     9  H    0.275515
    10  H    0.275430
    11  H    0.223163
    12  N    0.487882
    13  O   -0.460829
    14  O   -0.460426
    15  C   -0.298172
    16  C   -0.299906
    17  C   -0.475765
    18  H    0.150025
    19  H    0.148194
    20  H    0.154201
    21  H    0.151454
    22  H    0.154277
    23  H    0.155394
    24  H    0.160925
    25  C   -0.298438
    26  C   -0.301162
    27  C   -0.472708
    28  H    0.152715
    29  H    0.147879
    30  H    0.151648
    31  H    0.149092
    32  H    0.154711
    33  H    0.157997
    34  H    0.150972
 Sum of Mulliken charges =  -0.00000

 Dipole moment (field-independent basis, Debye):
    X=             -0.3366    Y=             -5.0534    Z=              1.0959  Tot=              5.1818
 Quadrupole moment (field-independent basis, Debye-Ang):
   XX=            -99.0346   YY=            -99.6589   ZZ=            -89.2824
   XY=            -15.0984   XZ=              1.9921   YZ=              0.8101

 Normal termination of Gaussian 16 at Thu May  6 12:33:25 2021.
