 Gaussian 16, Revision A.03,
 Gaussian 16:  EM64L-G16RevA.03 25-Dec-2016

 -------------
 #p 6-31g* mp2
 -------------

 ------------------------------------------------------
 Input file generated by CHIRIPA (05-May-2021 14:55:23)
 ------------------------------------------------------
 Symbolic Z-matrix:
 Charge =  0 Multiplicity = 1

                         Standard orientation:
 ---------------------------------------------------------------------
 Center     Atomic      Atomic             Coordinates (Angstroms)
 Number     Number       Type             X           Y           Z
 ---------------------------------------------------------------------
      1          6           0        1.914945    2.258503   -0.921989
      2          6           0        3.230143    2.066835   -0.486054
      3          6           0        3.653167    0.812802   -0.035498
      4          6           0        2.730470   -0.232148   -0.034370
      5          6           0        1.413421   -0.072728   -0.462455
      6          6           0        1.012373    1.189994   -0.908822
      7          1           0        1.594866    3.236040   -1.270365
      8          1           0        3.933260    2.894837   -0.495171
      9          1           0        4.665450    0.636586    0.307501
     10          1           0        0.735365   -0.917255   -0.441682
     11          1           0       -0.009645    1.335928   -1.246798
     12          7           0        3.166675   -1.564335    0.440396
     13          8           0        2.334490   -2.468783    0.431524
     14          8           0        4.332497   -1.678830    0.812400
     15          6           0       -3.851645   -0.537757   -0.130372
     16          6           0       -3.191284   -1.916763   -0.114531
     17          6           0       -4.101295   -3.014353   -0.666770
     18          1           0       -4.779867   -0.575982    0.456048
     19          1           0       -4.142751   -0.290130   -1.160582
     20          1           0       -2.900263   -2.161119    0.915135
     21          1           0       -2.264428   -1.875201   -0.700898
     22          1           0       -4.381740   -2.797341   -1.702558
     23          1           0       -5.021188   -3.084882   -0.077342
     24          1           0       -3.609378   -3.991826   -0.646162
     25          6           0       -2.954316    0.569980    0.418671
     26          6           0       -3.614677    1.948986    0.402830
     27          6           0       -2.704666    3.046575    0.955069
     28          1           0       -2.663210    0.322354    1.448881
     29          1           0       -2.026095    0.608204   -0.167749
     30          1           0       -4.541534    1.907425    0.989198
     31          1           0       -3.905699    2.193341   -0.626836
     32          1           0       -1.784773    3.117105    0.365641
     33          1           0       -2.424221    2.829564    1.990857
     34          1           0       -3.196583    4.024048    0.934461
 ---------------------------------------------------------------------

 SCF Done:  E(RHF) =  -669.535334515     A.U. after   15 cycles
 E2 =    -0.2092094887D+01 EUMP2 =    -0.67162742940208D+03

 The electronic state is 1-A.
 Alpha  occ. eigenvalues --  -20.60740 -20.60735 -15.85794 -11.31161 -11.27737
 Alpha  occ. eigenvalues --  -11.27726 -11.27483 -11.26750 -11.26732 -11.22284
 Alpha  occ. eigenvalues --  -11.22116 -11.21997 -11.21878 -11.21800 -11.21289
 Alpha  occ. eigenvalues --   -1.59816  -1.39369  -1.19337  -1.09021  -1.08732
 Alpha  occ. eigenvalues --   -1.04743  -1.04051  -0.96505  -0.95566  -0.87518
 Alpha  occ. eigenvalues --   -0.86143  -0.82405  -0.80124  -0.78839  -0.77437
 Alpha  occ. eigenvalues --   -0.72013  -0.71139  -0.70446  -0.65718  -0.64990
 Alpha  occ. eigenvalues --   -0.64732  -0.62102  -0.61438  -0.59872  -0.58101
 Alpha  occ. eigenvalues --   -0.55815  -0.55245  -0.53170  -0.53067  -0.52962
 Alpha  occ. eigenvalues --   -0.52813  -0.50457  -0.48778  -0.48766  -0.48421
 Alpha  occ. eigenvalues --   -0.47165  -0.46364  -0.46263  -0.44774  -0.44320
 Alpha  occ. eigenvalues --   -0.37316  -0.36328
 Alpha virt. eigenvalues --    0.05082   0.11234   0.16504   0.18898   0.22922
 Alpha virt. eigenvalues --    0.23046   0.24695   0.26329   0.26848   0.28073
 Alpha virt. eigenvalues --    0.29336   0.30771   0.31272   0.31561   0.31823

 Mulliken charges:
               1
     1  C   -0.171438
     2  C   -0.218697
     3  C   -0.170607
     4  C    0.158152
     5  C   -0.173101
     6  C   -0.220928
     7  H    0.225776
     8  H    0.223410
     9  H    0.275562
    10  H    0.277966
    11  H    0.227029
    12  N    0.487958
    13  O   -0.460247
    14  O   -0.460625
    15  C   -0.298679
    16  C   -0.300514
    17  C   -0.476400
    18  H    0.152852
    19  H    0.148883
    20  H    0.157065
    21  H    0.147327
    22  H    0.154662
    23  H    0.156264
    24  H    0.165054
    25  C   -0.301355
    26  C   -0.300681
    27  C   -0.474939
    28  H    0.155216
    29  H    0.139709
    30  H    0.156148
    31  H    0.150923
    32  H    0.146399
    33  H    0.159583
    34  H    0.162274
 Sum of Mulliken charges =  -0.00000

 Dipole moment (field-independent basis, Debye):
    X=             -1.6865    Y=              4.6194    Z=             -1.5660  Tot=              5.1610
 Quadrupole moment (field-independent basis, Debye-Ang):
   XX=            -98.5155   YY=            -97.3655   ZZ=            -94.4957
   XY=             15.0252   XZ=             -4.4863   YZ=              0.1378

 Normal termination of Gaussian 16 at Thu May  6 01:33:22 2021.
