 Gaussian 16, Revision A.03,
 Gaussian 16:  EM64L-G16RevA.03 25-Dec-2016

 -------------
 #p 6-31g* mp2
 -------------

 ------------------------------------------------------
 Input file generated by CHIRIPA (05-May-2021 14:51:12)
 ------------------------------------------------------
 Symbolic Z-matrix:
 Charge =  0 Multiplicity = 1

                         Standard orientation:
 ---------------------------------------------------------------------
 Center     Atomic      Atomic             Coordinates (Angstroms)
 Number     Number       Type             X           Y           Z
 ---------------------------------------------------------------------
      1          6           0        3.047733    0.829892   -0.420359
      2          6           0        3.880445    1.444181    0.705352
      3          6           0        4.094767    2.947795    0.529265
      4          1           0        3.544504    1.020830   -1.381456
      5          1           0        2.074073    1.337176   -0.465552
      6          1           0        4.851719    0.934956    0.749305
      7          1           0        3.381732    1.251593    1.663899
      8          1           0        3.134847    3.473793    0.507374
      9          1           0        4.613185    3.155357   -0.412415
     10          1           0        4.692459    3.366370    1.344997
     11          6           0        2.824840   -0.672711   -0.258397
     12          6           0        1.992129   -1.287000   -1.384108
     13          6           0        1.777806   -2.790613   -1.208021
     14          1           0        3.798501   -1.179995   -0.213204
     15          1           0        2.328070   -0.863649    0.702700
     16          1           0        2.490841   -1.094411   -2.342655
     17          1           0        1.020855   -0.777774   -1.428062
     18          1           0        1.259388   -2.998176   -0.266341
     19          1           0        2.737727   -3.316612   -1.186130
     20          1           0        1.180114   -3.209188   -2.023753
     21          6           0       -3.301396    0.201983   -0.270052
     22          6           0       -4.221976    1.376736    0.062323
     23          6           0       -4.945371    1.927145   -1.167126
     24          1           0       -2.563688    0.522772   -1.018268
     25          1           0       -3.892909   -0.597609   -0.737128
     26          1           0       -3.629150    2.173323    0.529892
     27          1           0       -4.957458    1.053168    0.809975
     28          1           0       -5.560736    1.150099   -1.632019
     29          1           0       -4.224880    2.276619   -1.913693
     30          1           0       -5.598055    2.766225   -0.906724
     31          6           0       -2.571178   -0.359165    0.948809
     32          6           0       -1.650597   -1.533917    0.616434
     33          6           0       -0.927202   -2.084326    1.845882
     34          1           0       -1.979664    0.440427    1.415884
     35          1           0       -3.308886   -0.679953    1.697024
     36          1           0       -0.915116   -1.210349   -0.131219
     37          1           0       -2.243424   -2.330505    0.148864
     38          1           0       -1.647693   -2.433800    2.592449
     39          1           0       -0.311838   -1.307279    2.310774
     40          1           0       -0.274519   -2.923405    1.585480
 ---------------------------------------------------------------------

 SCF Done:  E(RHF) =  -470.732552278     A.U. after   11 cycles
 E2 =    -0.1584224044D+01 EUMP2 =    -0.47231677632205D+03

 The electronic state is 1-A.
 Alpha  occ. eigenvalues --  -11.21631 -11.21624 -11.21615 -11.21606 -11.21446
 Alpha  occ. eigenvalues --  -11.21422 -11.21387 -11.21359 -11.21145 -11.21093
 Alpha  occ. eigenvalues --  -11.21092 -11.21027  -1.08496  -1.08425  -1.03630
 Alpha  occ. eigenvalues --   -1.03489  -0.96063  -0.95955  -0.87065  -0.86986
 Alpha  occ. eigenvalues --   -0.79690  -0.79560  -0.78313  -0.78231  -0.65321
 Alpha  occ. eigenvalues --   -0.64914  -0.61296  -0.60700  -0.59392  -0.59333
 Alpha  occ. eigenvalues --   -0.57721  -0.57537  -0.55345  -0.55204  -0.52767
 Alpha  occ. eigenvalues --   -0.52677  -0.52523  -0.52308  -0.49984  -0.49908
 Alpha  occ. eigenvalues --   -0.47990  -0.47921  -0.46877  -0.46471  -0.45945
 Alpha  occ. eigenvalues --   -0.45792  -0.45754  -0.45463  -0.43817  -0.43793
 Alpha virt. eigenvalues --    0.19909   0.23226   0.23570   0.24721   0.25636
 Alpha virt. eigenvalues --    0.26387   0.26654   0.27722   0.28636   0.29306
 Alpha virt. eigenvalues --    0.30437   0.30988   0.31609   0.31783   0.32350

 Mulliken charges:
               1
     1  C   -0.298103
     2  C   -0.299618
     3  C   -0.475687
     4  H    0.149819
     5  H    0.148606
     6  H    0.152153
     7  H    0.151758
     8  H    0.154965
     9  H    0.155272
    10  H    0.160375
    11  C   -0.300740
    12  C   -0.303127
    13  C   -0.481667
    14  H    0.149837
    15  H    0.152023
    16  H    0.152580
    17  H    0.153740
    18  H    0.161831
    19  H    0.155069
    20  H    0.160318
    21  C   -0.298277
    22  C   -0.299660
    23  C   -0.475757
    24  H    0.149046
    25  H    0.149848
    26  H    0.151838
    27  H    0.152101
    28  H    0.155277
    29  H    0.155257
    30  H    0.160363
    31  C   -0.297780
    32  C   -0.308072
    33  C   -0.479623
    34  H    0.148922
    35  H    0.149858
    36  H    0.160925
    37  H    0.152504
    38  H    0.156018
    39  H    0.154979
    40  H    0.162827
 Sum of Mulliken charges =  -0.00000

 Dipole moment (field-independent basis, Debye):
    X=             -0.0103    Y=             -0.0176    Z=              0.0052  Tot=              0.0210
 Quadrupole moment (field-independent basis, Debye-Ang):
   XX=            -83.8077   YY=            -85.7466   ZZ=            -85.1407
   XY=              0.4151   XZ=             -1.0337   YZ=              0.3511

 Normal termination of Gaussian 16 at Thu May  6 05:30:57 2021.
