 Gaussian 16, Revision A.03,
 Gaussian 16:  EM64L-G16RevA.03 25-Dec-2016

 -------------
 #p 6-31g* mp2
 -------------

 ------------------------------------------------------
 Input file generated by CHIRIPA (05-May-2021 14:57:22)
 ------------------------------------------------------
 Symbolic Z-matrix:
 Charge =  0 Multiplicity = 1

                         Standard orientation:
 ---------------------------------------------------------------------
 Center     Atomic      Atomic             Coordinates (Angstroms)
 Number     Number       Type             X           Y           Z
 ---------------------------------------------------------------------
      1          6           0        1.125464    0.413888    1.377511
      2          6           0        1.182724   -0.439796    0.270956
      3          6           0        2.404000   -0.713965   -0.351831
      4          6           0        3.553607   -0.114642    0.160520
      5          6           0        3.529071    0.740256    1.261355
      6          6           0        2.296756    1.000156    1.868314
      7          1           0        0.172460    0.621327    1.855159
      8          1           0        0.274691   -0.896507   -0.112368
      9          1           0        2.477017   -1.371021   -1.209948
     10          1           0        4.451181    1.180704    1.620713
     11          1           0        2.255294    1.663541    2.727527
     12          7           0        4.852361   -0.397339   -0.490418
     13          8           0        5.850867    0.143180   -0.019821
     14          8           0        4.847226   -1.154085   -1.458895
     15          6           0       -2.331620    2.188688   -1.191317
     16          6           0       -3.412089    2.255160   -0.305490
     17          6           0       -3.978507    1.086635    0.212454
     18          6           0       -3.437001   -0.136966   -0.178521
     19          6           0       -2.360980   -0.235982   -1.059239
     20          6           0       -1.810433    0.945522   -1.564706
     21          1           0       -1.897777    3.101468   -1.588821
     22          1           0       -3.818907    3.219234   -0.013757
     23          1           0       -4.815393    1.109164    0.899865
     24          1           0       -1.977114   -1.211633   -1.331577
     25          1           0       -0.971370    0.890866   -2.252479
     26          7           0       -4.028241   -1.380901    0.363198
     27          8           0       -3.532878   -2.446554    0.003150
     28          8           0       -4.975824   -1.266690    1.137589
 ---------------------------------------------------------------------

 SCF Done:  E(RHF) =  -868.336957855     A.U. after   16 cycles
 E2 =    -0.2601500579D+01 EUMP2 =    -0.87093845843448D+03

 The electronic state is 1-A.
 Alpha  occ. eigenvalues --  -20.61650 -20.61639 -20.61010 -20.61005 -15.86705
 Alpha  occ. eigenvalues --  -15.86065 -11.32216 -11.31456 -11.28789 -11.28699
 Alpha  occ. eigenvalues --  -11.28408 -11.28036 -11.28021 -11.27769 -11.27733
 Alpha  occ. eigenvalues --  -11.27731 -11.27027 -11.26999  -1.60724  -1.60086
 Alpha  occ. eigenvalues --   -1.40273  -1.39639  -1.20369  -1.19629  -1.09707
 Alpha  occ. eigenvalues --   -1.09007  -1.05791  -1.05037  -0.96533  -0.95838
 Alpha  occ. eigenvalues --   -0.87144  -0.86433  -0.83362  -0.82675  -0.78422
 Alpha  occ. eigenvalues --   -0.77724  -0.72908  -0.72281  -0.72061  -0.71419
 Alpha  occ. eigenvalues --   -0.71412  -0.70706  -0.66004  -0.65738  -0.65273
 Alpha  occ. eigenvalues --   -0.65066  -0.63138  -0.62350  -0.56194  -0.55495
 Alpha  occ. eigenvalues --   -0.54183  -0.53848  -0.53336  -0.53054  -0.49680
 Alpha  occ. eigenvalues --   -0.49664  -0.49041  -0.49035  -0.45646  -0.45039
 Alpha  occ. eigenvalues --   -0.38348  -0.37749  -0.37275  -0.36556
 Alpha virt. eigenvalues --    0.04073   0.04808   0.10059   0.11079   0.15556
 Alpha virt. eigenvalues --    0.16316   0.19882   0.21627   0.25267   0.27058
 Alpha virt. eigenvalues --    0.28026   0.28451   0.29948   0.30714   0.31880

 Mulliken charges:
               1
     1  C   -0.172626
     2  C   -0.220258
     3  C   -0.175035
     4  C    0.158878
     5  C   -0.171154
     6  C   -0.219320
     7  H    0.228579
     8  H    0.224679
     9  H    0.274854
    10  H    0.276096
    11  H    0.223841
    12  N    0.487999
    13  O   -0.459812
    14  O   -0.460421
    15  C   -0.172421
    16  C   -0.218665
    17  C   -0.172951
    18  C    0.158414
    19  C   -0.185247
    20  C   -0.214371
    21  H    0.230325
    22  H    0.226985
    23  H    0.278234
    24  H    0.273897
    25  H    0.228437
    26  N    0.487842
    27  O   -0.459760
    28  O   -0.457018
 Sum of Mulliken charges =  -0.00000

 Dipole moment (field-independent basis, Debye):
    X=             -2.6798    Y=              5.5364    Z=              0.4069  Tot=              6.1643
 Quadrupole moment (field-independent basis, Debye-Ang):
   XX=           -148.7977   YY=           -103.6436   ZZ=           -100.6643
   XY=            -12.1221   XZ=             13.5145   YZ=              3.1044

 Normal termination of Gaussian 16 at Thu May  6 12:55:45 2021.
