 Gaussian 16, Revision A.03,
 Gaussian 16:  EM64L-G16RevA.03 25-Dec-2016

 -------------
 #p 6-31g* mp2
 -------------

 ------------------------------------------------------
 Input file generated by CHIRIPA (05-May-2021 14:53:13)
 ------------------------------------------------------
 Symbolic Z-matrix:
 Charge =  0 Multiplicity = 1

                         Standard orientation:
 ---------------------------------------------------------------------
 Center     Atomic      Atomic             Coordinates (Angstroms)
 Number     Number       Type             X           Y           Z
 ---------------------------------------------------------------------
      1          6           0       -3.968014    0.426008   -0.213660
      2          6           0       -4.203387   -0.906915    0.497608
      3          6           0       -5.614552   -1.453004    0.278078
      4          1           0       -4.705614    1.158870    0.141027
      5          1           0       -4.148723    0.296361   -1.289732
      6          1           0       -4.020943   -0.775127    1.571835
      7          1           0       -3.465019   -1.636635    0.141328
      8          1           0       -5.804240   -1.612764   -0.788269
      9          1           0       -6.363322   -0.746360    0.650366
     10          1           0       -5.761069   -2.406359    0.795287
     11          6           0       -2.561787    0.984709   -0.003644
     12          6           0       -2.326414    2.317632   -0.714913
     13          6           0       -0.915249    2.863721   -0.495382
     14          1           0       -2.381078    1.114356    1.072428
     15          1           0       -1.824186    0.251847   -0.358331
     16          1           0       -3.064782    3.047352   -0.358632
     17          1           0       -2.508858    2.185844   -1.789139
     18          1           0       -0.166478    2.157077   -0.867670
     19          1           0       -0.725561    3.023481    0.570965
     20          1           0       -0.768731    3.817076   -1.012592
     21          6           0        4.582857    0.923708    0.332532
     22          6           0        4.529538   -0.028593   -0.690601
     23          6           0        3.408610   -0.851123   -0.837276
     24          6           0        2.354243   -0.693637    0.060943
     25          6           0        2.377535    0.245927    1.090490
     26          6           0        3.508580    1.057693    1.218251
     27          1           0        5.457550    1.558488    0.439126
     28          1           0        5.362359   -0.134866   -1.379919
     29          1           0        3.341010   -1.596514   -1.620373
     30          1           0        1.531781    0.328481    1.762282
     31          1           0        3.547230    1.796408    2.013770
     32          7           0        1.162211   -1.558714   -0.084323
     33          8           0        0.246445   -1.400226    0.719972
     34          8           0        1.166234   -2.378870   -0.999728
 ---------------------------------------------------------------------

 SCF Done:  E(RHF) =  -669.536255102     A.U. after   15 cycles
 E2 =    -0.2091838288D+01 EUMP2 =    -0.67162809339012D+03

 The electronic state is 1-A.
 Alpha  occ. eigenvalues --  -20.60965 -20.60936 -15.85970 -11.31279 -11.27838
 Alpha  occ. eigenvalues --  -11.27832 -11.27568 -11.26838 -11.26824 -11.21028
 Alpha  occ. eigenvalues --  -11.20815 -11.20521 -11.20461 -11.20341 -11.20210
 Alpha  occ. eigenvalues --   -1.60013  -1.39567  -1.19442  -1.08851  -1.07568
 Alpha  occ. eigenvalues --   -1.04832  -1.02789  -0.95695  -0.95259  -0.86295
 Alpha  occ. eigenvalues --   -0.86230  -0.82528  -0.78836  -0.77603  -0.77297
 Alpha  occ. eigenvalues --   -0.72190  -0.71327  -0.70547  -0.65096  -0.64834
 Alpha  occ. eigenvalues --   -0.64201  -0.62179  -0.60196  -0.58644  -0.56850
 Alpha  occ. eigenvalues --   -0.55339  -0.54567  -0.53167  -0.52923  -0.52000
 Alpha  occ. eigenvalues --   -0.51688  -0.49236  -0.48965  -0.48954  -0.47171
 Alpha  occ. eigenvalues --   -0.45884  -0.45292  -0.44854  -0.44383  -0.42994
 Alpha  occ. eigenvalues --   -0.37417  -0.36424
 Alpha virt. eigenvalues --    0.04918   0.11198   0.16395   0.21270   0.23553
 Alpha virt. eigenvalues --    0.24806   0.27026   0.27592   0.27795   0.28646
 Alpha virt. eigenvalues --    0.28818   0.31011   0.31811   0.32310   0.32408

 Mulliken charges:
               1
     1  C   -0.298188
     2  C   -0.300883
     3  C   -0.475483
     4  H    0.144331
     5  H    0.147407
     6  H    0.150315
     7  H    0.165936
     8  H    0.153580
     9  H    0.151079
    10  H    0.159336
    11  C   -0.302595
    12  C   -0.299230
    13  C   -0.473982
    14  H    0.145870
    15  H    0.167787
    16  H    0.148909
    17  H    0.151012
    18  H    0.152958
    19  H    0.149476
    20  H    0.157271
    21  C   -0.170428
    22  C   -0.218562
    23  C   -0.170964
    24  C    0.157355
    25  C   -0.169350
    26  C   -0.218289
    27  H    0.226019
    28  H    0.223726
    29  H    0.275638
    30  H    0.276545
    31  H    0.224029
    32  N    0.487047
    33  O   -0.457913
    34  O   -0.459758
 Sum of Mulliken charges =  -0.00000

 Dipole moment (field-independent basis, Debye):
    X=              4.4099    Y=              2.8466    Z=              0.5308  Tot=              5.2756
 Quadrupole moment (field-independent basis, Debye-Ang):
   XX=            -76.2758   YY=            -99.1002   ZZ=            -91.2710
   XY=              3.0678   XZ=             -0.7318   YZ=              2.3902

 Normal termination of Gaussian 16 at Wed May  5 21:48:22 2021.
