 Gaussian 16, Revision A.03,
 Gaussian 16:  EM64L-G16RevA.03 25-Dec-2016

 -------------
 #p 6-31g* mp2
 -------------

 ------------------------------------------------------
 Input file generated by CHIRIPA (05-May-2021 14:53:18)
 ------------------------------------------------------
 Symbolic Z-matrix:
 Charge =  0 Multiplicity = 1

                         Standard orientation:
 ---------------------------------------------------------------------
 Center     Atomic      Atomic             Coordinates (Angstroms)
 Number     Number       Type             X           Y           Z
 ---------------------------------------------------------------------
      1          6           0       -3.662072    0.335650   -0.076209
      2          6           0       -4.991071    0.223297   -0.823954
      3          6           0       -5.337614    1.489894   -1.607176
      4          1           0       -3.706089    1.192358    0.610128
      5          1           0       -2.861293    0.553053   -0.796546
      6          1           0       -5.788891    0.004801   -0.102595
      7          1           0       -4.943953   -0.633358   -1.508452
      8          1           0       -4.562194    1.708735   -2.348413
      9          1           0       -5.411932    2.350520   -0.934568
     10          1           0       -6.291450    1.387740   -2.134073
     11          6           0       -3.301874   -0.922729    0.711488
     12          6           0       -1.972875   -0.810376    1.459233
     13          6           0       -1.626332   -2.076972    2.242454
     14          1           0       -4.102653   -1.140132    1.431824
     15          1           0       -3.257857   -1.779437    0.025151
     16          1           0       -2.019993    0.046280    2.143731
     17          1           0       -1.175055   -0.591879    0.737874
     18          1           0       -1.552014   -2.937598    1.569847
     19          1           0       -2.401752   -2.295814    2.983692
     20          1           0       -0.672496   -1.974818    2.769351
     21          6           0        2.483613    2.458315    0.910086
     22          6           0        3.740203    1.852448    0.807966
     23          6           0        3.883144    0.617524    0.168373
     24          6           0        2.743172    0.013837   -0.360131
     25          6           0        1.477689    0.592192   -0.274413
     26          6           0        1.358350    1.827366    0.369523
     27          1           0        2.381741    3.417730    1.408624
     28          1           0        4.615839    2.340145    1.226842
     29          1           0        4.844032    0.126173    0.075173
     30          1           0        0.623177    0.081723   -0.701786
     31          1           0        0.381217    2.295550    0.447348
     32          7           0        2.882004   -1.293653   -1.039538
     33          8           0        1.862183   -1.804979   -1.496863
     34          8           0        4.008014   -1.782381   -1.101867
 ---------------------------------------------------------------------

 SCF Done:  E(RHF) =  -669.535421140     A.U. after   15 cycles
 E2 =    -0.2091767988D+01 EUMP2 =    -0.67162718912813D+03

 The electronic state is 1-A.
 Alpha  occ. eigenvalues --  -20.60776 -20.60770 -15.85828 -11.31184 -11.27752
 Alpha  occ. eigenvalues --  -11.27738 -11.27489 -11.26771 -11.26749 -11.21949
 Alpha  occ. eigenvalues --  -11.21868 -11.21783 -11.21617 -11.21329 -11.21137
 Alpha  occ. eigenvalues --   -1.59850  -1.39404  -1.19357  -1.08752  -1.08733
 Alpha  occ. eigenvalues --   -1.04760  -1.03777  -0.96207  -0.95591  -0.87223
 Alpha  occ. eigenvalues --   -0.86157  -0.82423  -0.79867  -0.78585  -0.77462
 Alpha  occ. eigenvalues --   -0.72048  -0.71172  -0.70477  -0.65381  -0.65006
 Alpha  occ. eigenvalues --   -0.64749  -0.62148  -0.61138  -0.59580  -0.57833
 Alpha  occ. eigenvalues --   -0.55486  -0.55260  -0.53092  -0.52894  -0.52851
 Alpha  occ. eigenvalues --   -0.52629  -0.50136  -0.48805  -0.48804  -0.48166
 Alpha  occ. eigenvalues --   -0.46890  -0.46101  -0.46023  -0.44810  -0.44046
 Alpha  occ. eigenvalues --   -0.37337  -0.36338
 Alpha virt. eigenvalues --    0.05030   0.11253   0.16518   0.19970   0.22840
 Alpha virt. eigenvalues --    0.24069   0.25014   0.26405   0.27714   0.28087
 Alpha virt. eigenvalues --    0.29928   0.30532   0.31412   0.31778   0.31882

 Mulliken charges:
               1
     1  C   -0.298059
     2  C   -0.299904
     3  C   -0.476093
     4  H    0.146668
     5  H    0.143926
     6  H    0.153144
     7  H    0.155283
     8  H    0.155035
     9  H    0.153719
    10  H    0.162092
    11  C   -0.298670
    12  C   -0.302938
    13  C   -0.475778
    14  H    0.150990
    15  H    0.155297
    16  H    0.148093
    17  H    0.147822
    18  H    0.162337
    19  H    0.154961
    20  H    0.161132
    21  C   -0.171105
    22  C   -0.218365
    23  C   -0.171133
    24  C    0.158779
    25  C   -0.173050
    26  C   -0.218466
    27  H    0.225629
    28  H    0.223435
    29  H    0.275550
    30  H    0.277757
    31  H    0.225169
    32  N    0.487968
    33  O   -0.460942
    34  O   -0.460285
 Sum of Mulliken charges =  -0.00000

 Dipole moment (field-independent basis, Debye):
    X=             -0.5528    Y=              4.5044    Z=              2.4067  Tot=              5.1369
 Quadrupole moment (field-independent basis, Debye-Ang):
   XX=            -92.0977   YY=            -95.6253   ZZ=            -96.8469
   XY=             13.3113   XZ=              7.3350   YZ=             -0.7941

 Normal termination of Gaussian 16 at Wed May  5 17:18:26 2021.
