 Gaussian 16, Revision A.03,
 Gaussian 16:  EM64L-G16RevA.03 25-Dec-2016

 -------------
 #p 6-31g* mp2
 -------------

 ------------------------------------------------------
 Input file generated by CHIRIPA (05-May-2021 14:57:23)
 ------------------------------------------------------
 Symbolic Z-matrix:
 Charge =  0 Multiplicity = 1

                         Standard orientation:
 ---------------------------------------------------------------------
 Center     Atomic      Atomic             Coordinates (Angstroms)
 Number     Number       Type             X           Y           Z
 ---------------------------------------------------------------------
      1          6           0       -1.242968    1.706344   -0.052062
      2          6           0       -1.324418    0.520769   -0.789828
      3          6           0       -2.512556   -0.215334   -0.821888
      4          6           0       -3.604718    0.265510   -0.101291
      5          6           0       -3.554841    1.443079    0.643111
      6          6           0       -2.356476    2.162910    0.660796
      7          1           0       -0.316021    2.271846   -0.032740
      8          1           0       -0.461248    0.163793   -1.344401
      9          1           0       -2.603207   -1.136387   -1.384794
     10          1           0       -4.432107    1.773634    1.185842
     11          1           0       -2.296114    3.083306    1.234620
     12          7           0       -4.867960   -0.505156   -0.127622
     13          8           0       -5.815960   -0.060174    0.515748
     14          8           0       -4.886170   -1.539593   -0.791132
     15          6           0        5.178650    1.238193   -0.631539
     16          6           0        4.406259    0.571743   -1.588502
     17          6           0        3.416054   -0.333935   -1.196342
     18          6           0        3.224231   -0.550177    0.167379
     19          6           0        3.977480    0.098358    1.144777
     20          6           0        4.962176    0.999793    0.729647
     21          1           0        5.945725    1.940098   -0.945100
     22          1           0        4.572169    0.754919   -2.646313
     23          1           0        2.803709   -0.863525   -1.916054
     24          1           0        3.788845   -0.104981    2.191911
     25          1           0        5.560517    1.515937    1.475052
     26          7           0        2.178861   -1.506732    0.594700
     27          8           0        2.029492   -1.679733    1.802341
     28          8           0        1.528662   -2.065368   -0.286099
 ---------------------------------------------------------------------

 SCF Done:  E(RHF) =  -868.338278837     A.U. after   16 cycles
 E2 =    -0.2599575968D+01 EUMP2 =    -0.87093785480412D+03

 The electronic state is 1-A.
 Alpha  occ. eigenvalues --  -20.61633 -20.61586 -20.60203 -20.60189 -15.86647
 Alpha  occ. eigenvalues --  -15.85249 -11.32031 -11.30572 -11.28609 -11.28548
 Alpha  occ. eigenvalues --  -11.28280 -11.27588 -11.27557 -11.27172 -11.27077
 Alpha  occ. eigenvalues --  -11.26937 -11.26224 -11.26101  -1.60671  -1.59273
 Alpha  occ. eigenvalues --   -1.40228  -1.38827  -1.20190  -1.18745  -1.09572
 Alpha  occ. eigenvalues --   -1.08170  -1.05583  -1.04132  -0.96406  -0.95008
 Alpha  occ. eigenvalues --   -0.86976  -0.85554  -0.83233  -0.81829  -0.78292
 Alpha  occ. eigenvalues --   -0.76868  -0.72857  -0.72000  -0.71473  -0.71268
 Alpha  occ. eigenvalues --   -0.70591  -0.69901  -0.65829  -0.65564  -0.64409
 Alpha  occ. eigenvalues --   -0.64151  -0.62923  -0.61479  -0.56053  -0.54707
 Alpha  occ. eigenvalues --   -0.53925  -0.53658  -0.52472  -0.52239  -0.49623
 Alpha  occ. eigenvalues --   -0.49607  -0.48232  -0.48223  -0.45613  -0.44242
 Alpha  occ. eigenvalues --   -0.38163  -0.37198  -0.36759  -0.35709
 Alpha virt. eigenvalues --    0.04207   0.05658   0.10411   0.11914   0.15702
 Alpha virt. eigenvalues --    0.17148   0.20535   0.21900   0.26174   0.27075
 Alpha virt. eigenvalues --    0.28197   0.28795   0.30124   0.31026   0.32429

 Mulliken charges:
               1
     1  C   -0.172129
     2  C   -0.216004
     3  C   -0.167695
     4  C    0.158368
     5  C   -0.171499
     6  C   -0.217892
     7  H    0.220374
     8  H    0.225508
     9  H    0.278461
    10  H    0.273722
    11  H    0.220109
    12  N    0.488189
    13  O   -0.462648
    14  O   -0.459543
    15  C   -0.171149
    16  C   -0.218479
    17  C   -0.176564
    18  C    0.157102
    19  C   -0.171781
    20  C   -0.218659
    21  H    0.228206
    22  H    0.225641
    23  H    0.274016
    24  H    0.277786
    25  H    0.226078
    26  N    0.488389
    27  O   -0.454150
    28  O   -0.463760
 Sum of Mulliken charges =  -0.00000

 Dipole moment (field-independent basis, Debye):
    X=              8.3916    Y=              5.9587    Z=             -1.3597  Tot=             10.3814
 Quadrupole moment (field-independent basis, Debye-Ang):
   XX=           -112.7270   YY=           -105.9119   ZZ=            -99.3829
   XY=             -0.5671   XZ=             -5.0394   YZ=              4.3950

 Normal termination of Gaussian 16 at Thu May  6 22:42:18 2021.
