 Gaussian 16, Revision A.03,
 Gaussian 16:  EM64L-G16RevA.03 25-Dec-2016

 -------------
 #p 6-31g* mp2
 -------------

 ------------------------------------------------------
 Input file generated by CHIRIPA (05-May-2021 14:51:10)
 ------------------------------------------------------
 Symbolic Z-matrix:
 Charge =  0 Multiplicity = 1

                         Standard orientation:
 ---------------------------------------------------------------------
 Center     Atomic      Atomic             Coordinates (Angstroms)
 Number     Number       Type             X           Y           Z
 ---------------------------------------------------------------------
      1          6           0        2.489469    1.482957    0.127966
      2          6           0        1.088125    1.575620   -0.476709
      3          6           0        0.399333    2.906085   -0.171387
      4          1           0        2.422442    1.621644    1.215724
      5          1           0        3.102158    2.310586   -0.255488
      6          1           0        0.478671    0.747261   -0.093298
      7          1           0        1.158474    1.436505   -1.563132
      8          1           0        0.983507    3.742420   -0.568737
      9          1           0        0.299841    3.049259    0.909448
     10          1           0       -0.601057    2.950901   -0.613056
     11          6           0        3.190896    0.158659   -0.168621
     12          6           0        4.592241    0.065996    0.436054
     13          6           0        5.281032   -1.264470    0.130732
     14          1           0        2.578207   -0.668970    0.214833
     15          1           0        3.257924    0.019972   -1.256379
     16          1           0        4.521892    0.205110    1.522477
     17          1           0        5.201695    0.894354    0.052643
     18          1           0        5.380524   -1.407644   -0.950103
     19          1           0        4.696859   -2.100804    0.528082
     20          1           0        6.281422   -1.309285    0.572401
     21          6           0       -3.453056   -0.497516   -0.301076
     22          6           0       -4.334326    0.255669    0.695950
     23          6           0       -5.556427    0.896939    0.037896
     24          1           0       -3.126035    0.195594   -1.088223
     25          1           0       -4.052908   -1.273155   -0.797015
     26          1           0       -3.732636    1.028747    1.190861
     27          1           0       -4.659131   -0.439271    1.480920
     28          1           0       -6.180452    0.135206   -0.440598
     29          1           0       -5.248694    1.611564   -0.732306
     30          1           0       -6.172448    1.430121    0.768716
     31          6           0       -2.227309   -1.144100    0.341731
     32          6           0       -1.346039   -1.897285   -0.655295
     33          6           0       -0.123938   -2.538555    0.002759
     34          1           0       -1.627457   -0.368460    0.837670
     35          1           0       -2.554330   -1.837210    1.128878
     36          1           0       -1.021235   -1.202345   -1.440265
     37          1           0       -1.947729   -2.670362   -1.150206
     38          1           0       -0.431672   -3.253180    0.772960
     39          1           0        0.500086   -1.776822    0.481253
     40          1           0        0.492082   -3.071737   -0.728061
 ---------------------------------------------------------------------

 SCF Done:  E(RHF) =  -470.732589356     A.U. after   11 cycles
 E2 =    -0.1584519504D+01 EUMP2 =    -0.47231710885954D+03

 The electronic state is 1-A.
 Alpha  occ. eigenvalues --  -11.21645 -11.21603 -11.21592 -11.21590 -11.21419
 Alpha  occ. eigenvalues --  -11.21416 -11.21356 -11.21337 -11.21142 -11.21072
 Alpha  occ. eigenvalues --  -11.21070 -11.21053  -1.08489  -1.08407  -1.03578
 Alpha  occ. eigenvalues --   -1.03515  -0.96027  -0.95967  -0.87043  -0.86986
 Alpha  occ. eigenvalues --   -0.79639  -0.79589  -0.78321  -0.78207  -0.65346
 Alpha  occ. eigenvalues --   -0.64869  -0.61094  -0.60806  -0.59381  -0.59330
 Alpha  occ. eigenvalues --   -0.57656  -0.57570  -0.55450  -0.55143  -0.52702
 Alpha  occ. eigenvalues --   -0.52685  -0.52453  -0.52389  -0.50085  -0.49819
 Alpha  occ. eigenvalues --   -0.48023  -0.47867  -0.46757  -0.46655  -0.45989
 Alpha  occ. eigenvalues --   -0.45809  -0.45716  -0.45251  -0.43803  -0.43788
 Alpha virt. eigenvalues --    0.20057   0.22729   0.23845   0.24539   0.25936
 Alpha virt. eigenvalues --    0.26400   0.26814   0.27657   0.28859   0.29478
 Alpha virt. eigenvalues --    0.30683   0.31285   0.31733   0.31952   0.32292

 Mulliken charges:
               1
     1  C   -0.297720
     2  C   -0.309623
     3  C   -0.475520
     4  H    0.149158
     5  H    0.149743
     6  H    0.161326
     7  H    0.151983
     8  H    0.155815
     9  H    0.155065
    10  H    0.159675
    11  C   -0.305540
    12  C   -0.299094
    13  C   -0.475826
    14  H    0.157122
    15  H    0.149500
    16  H    0.151731
    17  H    0.151789
    18  H    0.155086
    19  H    0.155719
    20  H    0.160160
    21  C   -0.298162
    22  C   -0.299904
    23  C   -0.475669
    24  H    0.149766
    25  H    0.149636
    26  H    0.152280
    27  H    0.151876
    28  H    0.155168
    29  H    0.155129
    30  H    0.160317
    31  C   -0.301785
    32  C   -0.301330
    33  C   -0.481639
    34  H    0.151503
    35  H    0.149797
    36  H    0.154328
    37  H    0.152509
    38  H    0.155049
    39  H    0.159691
    40  H    0.160892
 Sum of Mulliken charges =  -0.00000

 Dipole moment (field-independent basis, Debye):
    X=              0.0014    Y=             -0.0119    Z=             -0.0070  Tot=              0.0139
 Quadrupole moment (field-independent basis, Debye-Ang):
   XX=            -85.6341   YY=            -85.0173   ZZ=            -84.1412
   XY=              1.6472   XZ=             -0.6515   YZ=             -0.4326

 Normal termination of Gaussian 16 at Wed May  5 19:48:51 2021.
