 Gaussian 16, Revision A.03,
 Gaussian 16:  EM64L-G16RevA.03 25-Dec-2016

 -------------
 #p 6-31g* mp2
 -------------

 ------------------------------------------------------
 Input file generated by CHIRIPA (05-May-2021 14:55:25)
 ------------------------------------------------------
 Symbolic Z-matrix:
 Charge =  0 Multiplicity = 1

                         Standard orientation:
 ---------------------------------------------------------------------
 Center     Atomic      Atomic             Coordinates (Angstroms)
 Number     Number       Type             X           Y           Z
 ---------------------------------------------------------------------
      1          6           0       -2.538384    2.822393    0.265701
      2          6           0       -3.627958    2.316283   -0.450679
      3          6           0       -3.813638    0.936656   -0.579909
      4          6           0       -2.886247    0.088118    0.022767
      5          6           0       -1.790644    0.561755    0.742915
      6          6           0       -1.624815    1.945061    0.859166
      7          1           0       -2.401853    3.895550    0.361049
      8          1           0       -4.339037    2.995267   -0.912625
      9          1           0       -4.648298    0.517831   -1.128858
     10          1           0       -1.098549   -0.140009    1.192303
     11          1           0       -0.777709    2.335281    1.416108
     12          7           0       -3.072310   -1.374379   -0.107172
     13          8           0       -2.241142   -2.100904    0.433160
     14          8           0       -4.045791   -1.766466   -0.746890
     15          6           0        4.394803   -0.250054   -0.140243
     16          6           0        4.668170    1.253808   -0.180910
     17          6           0        6.152382    1.580528   -0.348727
     18          1           0        4.965842   -0.697915    0.684549
     19          1           0        4.769896   -0.709005   -1.065481
     20          1           0        4.291431    1.709993    0.743523
     21          1           0        4.096265    1.698170   -1.005582
     22          1           0        6.538306    1.152156   -1.279406
     23          1           0        6.734581    1.164047    0.479638
     24          1           0        6.325119    2.660952   -0.375304
     25          6           0        2.915484   -0.592582    0.027135
     26          6           0        2.642118   -2.096445    0.067802
     27          6           0        1.157906   -2.423164    0.235619
     28          1           0        2.540391   -0.133632    0.952373
     29          1           0        2.344446   -0.144722   -0.797657
     30          1           0        3.214022   -2.540807    0.892474
     31          1           0        3.018857   -2.552629   -0.856631
     32          1           0        0.575707   -2.006683   -0.592746
     33          1           0        0.771981   -1.994793    1.166298
     34          1           0        0.985169   -3.503588    0.262196
 ---------------------------------------------------------------------

 SCF Done:  E(RHF) =  -669.535413123     A.U. after   15 cycles
 E2 =    -0.2091933932D+01 EUMP2 =    -0.67162734705521D+03

 The electronic state is 1-A.
 Alpha  occ. eigenvalues --  -20.60777 -20.60761 -15.85806 -11.31163 -11.27740
 Alpha  occ. eigenvalues --  -11.27707 -11.27483 -11.26755 -11.26736 -11.21780
 Alpha  occ. eigenvalues --  -11.21467 -11.21408 -11.21276 -11.21222 -11.20431
 Alpha  occ. eigenvalues --   -1.59841  -1.39394  -1.19339  -1.08739  -1.08426
 Alpha  occ. eigenvalues --   -1.04739  -1.03425  -0.95858  -0.95561  -0.86854
 Alpha  occ. eigenvalues --   -0.86137  -0.82404  -0.79503  -0.78264  -0.77424
 Alpha  occ. eigenvalues --   -0.72026  -0.71160  -0.70450  -0.65063  -0.64992
 Alpha  occ. eigenvalues --   -0.64746  -0.62096  -0.60822  -0.59251  -0.57466
 Alpha  occ. eigenvalues --   -0.55254  -0.55132  -0.53073  -0.52863  -0.52481
 Alpha  occ. eigenvalues --   -0.52250  -0.49805  -0.48817  -0.48789  -0.47766
 Alpha  occ. eigenvalues --   -0.46560  -0.45785  -0.45719  -0.44722  -0.43673
 Alpha  occ. eigenvalues --   -0.37325  -0.36339
 Alpha virt. eigenvalues --    0.05059   0.11287   0.16533   0.20782   0.22883
 Alpha virt. eigenvalues --    0.23994   0.25859   0.26964   0.27403   0.27934
 Alpha virt. eigenvalues --    0.29209   0.30640   0.31504   0.31795   0.32356

 Mulliken charges:
               1
     1  C   -0.170560
     2  C   -0.218936
     3  C   -0.170596
     4  C    0.155834
     5  C   -0.172241
     6  C   -0.220438
     7  H    0.225526
     8  H    0.223281
     9  H    0.275432
    10  H    0.282250
    11  H    0.223987
    12  N    0.488514
    13  O   -0.459661
    14  O   -0.460547
    15  C   -0.297625
    16  C   -0.299192
    17  C   -0.475567
    18  H    0.150294
    19  H    0.151091
    20  H    0.148453
    21  H    0.150880
    22  H    0.156256
    23  H    0.155758
    24  H    0.159232
    25  C   -0.297292
    26  C   -0.302953
    27  C   -0.468350
    28  H    0.141041
    29  H    0.148593
    30  H    0.150473
    31  H    0.152021
    32  H    0.157589
    33  H    0.149954
    34  H    0.167500
 Sum of Mulliken charges =  -0.00000

 Dipole moment (field-independent basis, Debye):
    X=              0.5755    Y=              5.0086    Z=              0.4172  Tot=              5.0588
 Quadrupole moment (field-independent basis, Debye-Ang):
   XX=            -96.7552   YY=            -94.0700   ZZ=            -92.9495
   XY=            -16.1862   XZ=              1.4131   YZ=             -0.2445

 Normal termination of Gaussian 16 at Thu May  6 19:22:55 2021.
