 Gaussian 16, Revision A.03,
 Gaussian 16:  EM64L-G16RevA.03 25-Dec-2016

 -------------
 #p 6-31g* mp2
 -------------

 ------------------------------------------------------
 Input file generated by CHIRIPA (05-May-2021 14:51:10)
 ------------------------------------------------------
 Symbolic Z-matrix:
 Charge =  0 Multiplicity = 1

                         Standard orientation:
 ---------------------------------------------------------------------
 Center     Atomic      Atomic             Coordinates (Angstroms)
 Number     Number       Type             X           Y           Z
 ---------------------------------------------------------------------
      1          6           0       -2.721404   -0.712029   -0.455342
      2          6           0       -3.841882    0.022630    0.281402
      3          6           0       -4.798459    0.745525   -0.667374
      4          1           0       -2.159708    0.007620   -1.066528
      5          1           0       -3.164156   -1.436231   -1.153122
      6          1           0       -3.397128    0.744256    0.978586
      7          1           0       -4.400857   -0.698819    0.891054
      8          1           0       -5.269154    0.035253   -1.354803
      9          1           0       -4.259722    1.486527   -1.266774
     10          1           0       -5.591605    1.263975   -0.119661
     11          6           0       -1.756936   -1.439577    0.479646
     12          6           0       -0.636459   -2.174235   -0.257098
     13          6           0        0.320118   -2.897131    0.691678
     14          1           0       -1.314184   -0.715374    1.177426
     15          1           0       -2.318633   -2.159225    1.090832
     16          1           0       -0.077484   -1.452787   -0.866749
     17          1           0       -1.081213   -2.895862   -0.954281
     18          1           0       -0.218619   -3.638132    1.291078
     19          1           0        0.790814   -2.186858    1.379107
     20          1           0        1.113264   -3.415580    0.143965
     21          6           0        1.734412    1.431945    0.437084
     22          6           0        0.976744    2.554304   -0.273013
     23          6           0       -0.029396    3.257294    0.638733
     24          1           0        1.013273    0.698889    0.823779
     25          1           0        2.256887    1.846938    1.310121
     26          1           0        0.456975    2.137571   -1.145245
     27          1           0        1.699782    3.284675   -0.658229
     28          1           0        0.477112    3.699576    1.502699
     29          1           0       -0.772757    2.545955    1.012916
     30          1           0       -0.559755    4.056009    0.110876
     31          6           0        2.743929    0.719660   -0.461388
     32          6           0        3.501596   -0.402699    0.248708
     33          6           0        4.507737   -1.105689   -0.663037
     34          1           0        2.221454    0.304668   -1.334426
     35          1           0        3.465068    1.452716   -0.848083
     36          1           0        2.778559   -1.133070    0.633925
     37          1           0        4.021366    0.014034    1.120941
     38          1           0        5.251097   -0.394349   -1.037220
     39          1           0        4.001229   -1.547970   -1.527004
     40          1           0        5.038096   -1.904404   -0.135181
 ---------------------------------------------------------------------

 SCF Done:  E(RHF) =  -470.732833354     A.U. after   11 cycles
 E2 =    -0.1585213253D+01 EUMP2 =    -0.47231804660662D+03

 The electronic state is 1-A.
 Alpha  occ. eigenvalues --  -11.21700 -11.21669 -11.21651 -11.21517 -11.21487
 Alpha  occ. eigenvalues --  -11.21440 -11.21423 -11.21370 -11.21154 -11.21145
 Alpha  occ. eigenvalues --  -11.21095 -11.21045  -1.08543  -1.08424  -1.03620
 Alpha  occ. eigenvalues --   -1.03531  -0.96054  -0.96003  -0.87094  -0.86997
 Alpha  occ. eigenvalues --   -0.79717  -0.79566  -0.78378  -0.78217  -0.65548
 Alpha  occ. eigenvalues --   -0.64733  -0.61187  -0.60775  -0.59423  -0.59362
 Alpha  occ. eigenvalues --   -0.57662  -0.57606  -0.55349  -0.55296  -0.52745
 Alpha  occ. eigenvalues --   -0.52691  -0.52483  -0.52422  -0.50158  -0.49816
 Alpha  occ. eigenvalues --   -0.48013  -0.47890  -0.46906  -0.46517  -0.46052
 Alpha  occ. eigenvalues --   -0.45935  -0.45671  -0.45343  -0.43855  -0.43801
 Alpha virt. eigenvalues --    0.18088   0.21453   0.23687   0.24665   0.25461
 Alpha virt. eigenvalues --    0.25811   0.27086   0.27899   0.28980   0.30070
 Alpha virt. eigenvalues --    0.30824   0.31255   0.31756   0.31837   0.32275

 Mulliken charges:
               1
     1  C   -0.299000
     2  C   -0.300945
     3  C   -0.475740
     4  H    0.150165
     5  H    0.149915
     6  H    0.152940
     7  H    0.152185
     8  H    0.155164
     9  H    0.155577
    10  H    0.160549
    11  C   -0.301675
    12  C   -0.303215
    13  C   -0.480181
    14  H    0.151548
    15  H    0.150429
    16  H    0.154309
    17  H    0.152949
    18  H    0.156439
    19  H    0.158038
    20  H    0.161031
    21  C   -0.304581
    22  C   -0.299859
    23  C   -0.477576
    24  H    0.154413
    25  H    0.149946
    26  H    0.151582
    27  H    0.152630
    28  H    0.155691
    29  H    0.155733
    30  H    0.160651
    31  C   -0.298735
    32  C   -0.308645
    33  C   -0.475363
    34  H    0.149834
    35  H    0.149824
    36  H    0.162882
    37  H    0.151226
    38  H    0.154942
    39  H    0.154740
    40  H    0.160182
 Sum of Mulliken charges =  -0.00000

 Dipole moment (field-independent basis, Debye):
    X=             -0.0251    Y=             -0.0270    Z=              0.0139  Tot=              0.0394
 Quadrupole moment (field-independent basis, Debye-Ang):
   XX=            -85.1197   YY=            -84.2166   ZZ=            -85.3029
   XY=              1.8886   XZ=              0.2516   YZ=              0.2056

 Normal termination of Gaussian 16 at Thu May  6 03:47:28 2021.
