 Gaussian 16, Revision A.03,
 Gaussian 16:  EM64L-G16RevA.03 25-Dec-2016

 -------------
 #p 6-31g* mp2
 -------------

 ------------------------------------------------------
 Input file generated by CHIRIPA (05-May-2021 14:51:08)
 ------------------------------------------------------
 Symbolic Z-matrix:
 Charge =  0 Multiplicity = 1

                         Standard orientation:
 ---------------------------------------------------------------------
 Center     Atomic      Atomic             Coordinates (Angstroms)
 Number     Number       Type             X           Y           Z
 ---------------------------------------------------------------------
      1          6           0        1.937949   -0.463910    0.839301
      2          6           0        1.913481   -1.904220    1.352032
      3          6           0        0.869436   -2.124195    2.447192
      4          1           0        2.137804    0.214499    1.679994
      5          1           0        0.942167   -0.201599    0.455887
      6          1           0        2.909382   -2.164194    1.733096
      7          1           0        1.713851   -2.579294    0.509987
      8          1           0       -0.133725   -1.891767    2.075376
      9          1           0        1.068599   -1.474308    3.305435
     10          1           0        0.869105   -3.160504    2.799219
     11          6           0        2.976590   -0.228290   -0.255887
     12          6           0        3.001058    1.212020   -0.768618
     13          6           0        4.045103    1.431994   -1.863778
     14          1           0        3.972372   -0.490601    0.127527
     15          1           0        2.776735   -0.906699   -1.096580
     16          1           0        3.200688    1.887094    0.073427
     17          1           0        2.005157    1.471993   -1.149682
     18          1           0        3.845940    0.782107   -2.722021
     19          1           0        5.048264    1.199567   -1.491962
     20          1           0        4.045434    2.468303   -2.215805
     21          6           0       -2.207219   -0.141215   -0.824089
     22          6           0       -3.054950   -1.409199   -0.931580
     23          6           0       -2.542139   -2.374258   -2.000916
     24          1           0       -2.190545    0.364807   -1.799081
     25          1           0       -1.168638   -0.420849   -0.599260
     26          1           0       -4.091901   -1.127185   -1.154773
     27          1           0       -3.069765   -1.912159    0.043830
     28          1           0       -1.515694   -2.684246   -1.779743
     29          1           0       -2.543637   -1.894811   -2.985157
     30          1           0       -3.162749   -3.273770   -2.060774
     31          6           0       -2.707320    0.833415    0.240676
     32          6           0       -1.859589    2.101399    0.348166
     33          6           0       -2.372400    3.066459    1.417503
     34          1           0       -3.745901    1.113049    0.015846
     35          1           0       -2.723994    0.327393    1.215667
     36          1           0       -1.844774    2.604360   -0.627245
     37          1           0       -0.822638    1.819385    0.571359
     38          1           0       -2.370902    2.587012    2.401743
     39          1           0       -3.398845    3.376447    1.196329
     40          1           0       -1.751789    3.965970    1.477359
 ---------------------------------------------------------------------

 SCF Done:  E(RHF) =  -470.733262627     A.U. after   11 cycles
 E2 =    -0.1584133222D+01 EUMP2 =    -0.47231739584856D+03

 The electronic state is 1-A.
 Alpha  occ. eigenvalues --  -11.21670 -11.21651 -11.21608 -11.21590 -11.21445
 Alpha  occ. eigenvalues --  -11.21443 -11.21382 -11.21381 -11.21152 -11.21121
 Alpha  occ. eigenvalues --  -11.21075 -11.21060  -1.08507  -1.08438  -1.03571
 Alpha  occ. eigenvalues --   -1.03551  -0.96025  -0.96003  -0.87038  -0.87020
 Alpha  occ. eigenvalues --   -0.79635  -0.79614  -0.78438  -0.78151  -0.65356
 Alpha  occ. eigenvalues --   -0.64876  -0.61004  -0.60910  -0.59389  -0.59371
 Alpha  occ. eigenvalues --   -0.57649  -0.57601  -0.55364  -0.55252  -0.52720
 Alpha  occ. eigenvalues --   -0.52691  -0.52455  -0.52424  -0.49995  -0.49932
 Alpha  occ. eigenvalues --   -0.47973  -0.47921  -0.46724  -0.46660  -0.46390
 Alpha  occ. eigenvalues --   -0.45795  -0.45787  -0.45048  -0.43826  -0.43806
 Alpha virt. eigenvalues --    0.19282   0.22995   0.23461   0.24747   0.25187
 Alpha virt. eigenvalues --    0.26267   0.26845   0.27628   0.28507   0.30256
 Alpha virt. eigenvalues --    0.31189   0.31575   0.31726   0.31868   0.32247

 Mulliken charges:
               1
     1  C   -0.311133
     2  C   -0.299113
     3  C   -0.476851
     4  H    0.149828
     5  H    0.161030
     6  H    0.152583
     7  H    0.151575
     8  H    0.154849
     9  H    0.155521
    10  H    0.160809
    11  C   -0.297523
    12  C   -0.301010
    13  C   -0.475737
    14  H    0.149734
    15  H    0.149613
    16  H    0.151805
    17  H    0.153537
    18  H    0.155327
    19  H    0.155156
    20  H    0.160374
    21  C   -0.306853
    22  C   -0.299490
    23  C   -0.475662
    24  H    0.149788
    25  H    0.156007
    26  H    0.152401
    27  H    0.152158
    28  H    0.154590
    29  H    0.155282
    30  H    0.160655
    31  C   -0.298085
    32  C   -0.304979
    33  C   -0.475568
    34  H    0.149850
    35  H    0.149885
    36  H    0.151543
    37  H    0.157263
    38  H    0.155435
    39  H    0.155048
    40  H    0.160358
 Sum of Mulliken charges =  -0.00000

 Dipole moment (field-independent basis, Debye):
    X=              0.0078    Y=              0.0037    Z=              0.0000  Tot=              0.0086
 Quadrupole moment (field-independent basis, Debye-Ang):
   XX=            -84.4711   YY=            -85.2548   ZZ=            -84.9350
   XY=             -0.1199   XZ=              1.6817   YZ=             -0.4854

 Normal termination of Gaussian 16 at Wed May  5 22:57:18 2021.
