 Gaussian 16, Revision A.03,
 Gaussian 16:  EM64L-G16RevA.03 25-Dec-2016

 -------------
 #p 6-31g* mp2
 -------------

 ------------------------------------------------------
 Input file generated by CHIRIPA (05-May-2021 14:51:09)
 ------------------------------------------------------
 Symbolic Z-matrix:
 Charge =  0 Multiplicity = 1

                         Standard orientation:
 ---------------------------------------------------------------------
 Center     Atomic      Atomic             Coordinates (Angstroms)
 Number     Number       Type             X           Y           Z
 ---------------------------------------------------------------------
      1          6           0       -2.688578    0.047968   -0.256840
      2          6           0       -4.079756    0.184828   -0.876420
      3          6           0       -4.267390    1.506412   -1.622077
      4          1           0       -2.516642    0.886668    0.431612
      5          1           0       -1.931957    0.133702   -1.049033
      6          1           0       -4.833576    0.097478   -0.083489
      7          1           0       -4.248474   -0.654399   -1.563332
      8          1           0       -3.537293    1.598401   -2.432692
      9          1           0       -4.125719    2.354551   -0.944440
     10          1           0       -5.268760    1.583287   -2.057058
     11          6           0       -2.485696   -1.268013    0.491999
     12          6           0       -1.094519   -1.404873    1.111579
     13          6           0       -0.906884   -2.726457    1.857235
     14          1           0       -3.242317   -1.353747    1.284192
     15          1           0       -2.657632   -2.106713   -0.196453
     16          1           0       -0.925800   -0.565646    1.798491
     17          1           0       -0.340698   -1.317523    0.318647
     18          1           0       -1.048555   -3.574596    1.179599
     19          1           0       -1.636981   -2.818446    2.667851
     20          1           0        0.094486   -2.803331    2.292216
     21          6           0        2.198238    0.916402    0.464074
     22          6           0        2.091137    2.439712    0.386356
     23          6           0        1.310335    3.037917    1.556952
     24          1           0        1.188202    0.485104    0.491556
     25          1           0        2.682978    0.637665    1.409975
     26          1           0        1.607991    2.715548   -0.559742
     27          1           0        3.101544    2.867424    0.358862
     28          1           0        1.793253    2.791598    2.508118
     29          1           0        0.291215    2.638859    1.584295
     30          1           0        1.245968    4.127875    1.481399
     31          6           0        2.976037    0.303643   -0.699233
     32          6           0        3.083137   -1.219668   -0.621515
     33          6           0        3.863939   -1.817871   -1.792111
     34          1           0        2.491296    0.582380   -1.645134
     35          1           0        3.986072    0.734941   -0.726715
     36          1           0        2.072730   -1.647379   -0.594022
     37          1           0        3.566283   -1.495504    0.324583
     38          1           0        4.883060   -1.418815   -1.819454
     39          1           0        3.381021   -1.571553   -2.743278
     40          1           0        3.928306   -2.907830   -1.716558
 ---------------------------------------------------------------------

 SCF Done:  E(RHF) =  -470.732743762     A.U. after   11 cycles
 E2 =    -0.1584156855D+01 EUMP2 =    -0.47231690061674D+03

 The electronic state is 1-A.
 Alpha  occ. eigenvalues --  -11.21661 -11.21644 -11.21597 -11.21533 -11.21482
 Alpha  occ. eigenvalues --  -11.21416 -11.21343 -11.21211 -11.21116 -11.21100
 Alpha  occ. eigenvalues --  -11.21073 -11.21039  -1.08511  -1.08369  -1.03587
 Alpha  occ. eigenvalues --   -1.03496  -0.96032  -0.95941  -0.87051  -0.86957
 Alpha  occ. eigenvalues --   -0.79697  -0.79557  -0.78460  -0.78039  -0.65194
 Alpha  occ. eigenvalues --   -0.64967  -0.61024  -0.60860  -0.59408  -0.59308
 Alpha  occ. eigenvalues --   -0.57671  -0.57528  -0.55319  -0.55235  -0.52729
 Alpha  occ. eigenvalues --   -0.52643  -0.52474  -0.52352  -0.49978  -0.49895
 Alpha  occ. eigenvalues --   -0.48097  -0.47878  -0.46809  -0.46581  -0.46243
 Alpha  occ. eigenvalues --   -0.45771  -0.45687  -0.45018  -0.43832  -0.43732
 Alpha virt. eigenvalues --    0.20736   0.22680   0.23552   0.24097   0.25511
 Alpha virt. eigenvalues --    0.26017   0.26968   0.27915   0.28428   0.29563
 Alpha virt. eigenvalues --    0.30842   0.31688   0.31779   0.31807   0.32008

 Mulliken charges:
               1
     1  C   -0.299374
     2  C   -0.299566
     3  C   -0.475803
     4  H    0.149709
     5  H    0.148868
     6  H    0.152312
     7  H    0.152176
     8  H    0.155095
     9  H    0.155416
    10  H    0.160527
    11  C   -0.297411
    12  C   -0.308842
    13  C   -0.475301
    14  H    0.149866
    15  H    0.149681
    16  H    0.153865
    17  H    0.158515
    18  H    0.154933
    19  H    0.155313
    20  H    0.161472
    21  C   -0.307931
    22  C   -0.298739
    23  C   -0.476406
    24  H    0.161870
    25  H    0.148218
    26  H    0.151599
    27  H    0.151385
    28  H    0.154907
    29  H    0.155203
    30  H    0.160071
    31  C   -0.297761
    32  C   -0.304224
    33  C   -0.475441
    34  H    0.148537
    35  H    0.149453
    36  H    0.155392
    37  H    0.151983
    38  H    0.155404
    39  H    0.154859
    40  H    0.160166
 Sum of Mulliken charges =  -0.00000

 Dipole moment (field-independent basis, Debye):
    X=             -0.0491    Y=             -0.0342    Z=              0.0150  Tot=              0.0617
 Quadrupole moment (field-independent basis, Debye-Ang):
   XX=            -84.3348   YY=            -85.8070   ZZ=            -84.6967
   XY=              0.4560   XZ=              0.4455   YZ=              0.4471

 Normal termination of Gaussian 16 at Thu May  6 02:09:48 2021.
