 Gaussian 16, Revision A.03,
 Gaussian 16:  EM64L-G16RevA.03 25-Dec-2016

 -------------
 #p 6-31g* mp2
 -------------

 ------------------------------------------------------
 Input file generated by CHIRIPA (05-May-2021 14:55:23)
 ------------------------------------------------------
 Symbolic Z-matrix:
 Charge =  0 Multiplicity = 1

                         Standard orientation:
 ---------------------------------------------------------------------
 Center     Atomic      Atomic             Coordinates (Angstroms)
 Number     Number       Type             X           Y           Z
 ---------------------------------------------------------------------
      1          6           0       -4.887142    0.458259   -0.263794
      2          6           0       -4.262651   -0.344529   -1.224036
      3          6           0       -2.947623   -0.781162   -1.038025
      4          6           0       -2.283695   -0.394436    0.125132
      5          6           0       -2.878680    0.404616    1.100221
      6          6           0       -4.194385    0.829614    0.893230
      7          1           0       -5.908951    0.792927   -0.416441
      8          1           0       -4.798225   -0.634476   -2.123556
      9          1           0       -2.440153   -1.403346   -1.765197
     10          1           0       -2.319179    0.677341    1.986786
     11          1           0       -4.676857    1.452997    1.640665
     12          7           0       -0.891175   -0.850521    0.333158
     13          8           0       -0.327880   -0.496045    1.366445
     14          8           0       -0.389381   -1.553840   -0.541016
     15          6           0        2.692537    0.963540   -0.140602
     16          6           0        3.295156    2.361386   -0.285045
     17          6           0        2.233606    3.460784   -0.332251
     18          1           0        2.007541    0.778037   -0.979241
     19          1           0        2.084317    0.926747    0.773789
     20          1           0        3.903178    2.395122   -1.198165
     21          1           0        3.978943    2.543508    0.553932
     22          1           0        1.633043    3.455966    0.583119
     23          1           0        1.556849    3.306737   -1.178932
     24          1           0        2.686348    4.451830   -0.435761
     25          6           0        3.741253   -0.146216   -0.091965
     26          6           0        3.138634   -1.544061    0.052479
     27          6           0        4.200184   -2.643460    0.099684
     28          1           0        4.349472   -0.109422   -1.006355
     29          1           0        4.426249    0.039287    0.746674
     30          1           0        2.454848   -1.726184   -0.786499
     31          1           0        2.530611   -1.577798    0.965598
     32          1           0        4.876941   -2.489412    0.946366
     33          1           0        4.800747   -2.638642   -0.815686
     34          1           0        3.747442   -3.634506    0.203194
 ---------------------------------------------------------------------

 SCF Done:  E(RHF) =  -669.536272303     A.U. after   15 cycles
 E2 =    -0.2093303453D+01 EUMP2 =    -0.67162957575601D+03

 The electronic state is 1-A.
 Alpha  occ. eigenvalues --  -20.61120 -20.61105 -15.86106 -11.31381 -11.27933
 Alpha  occ. eigenvalues --  -11.27930 -11.27659 -11.26926 -11.26917 -11.20519
 Alpha  occ. eigenvalues --  -11.20313 -11.19806 -11.19743 -11.19512 -11.19371
 Alpha  occ. eigenvalues --   -1.60138  -1.39703  -1.19539  -1.08954  -1.06897
 Alpha  occ. eigenvalues --   -1.04927  -1.02091  -0.95805  -0.94624  -0.86330
 Alpha  occ. eigenvalues --   -0.85657  -0.82647  -0.78157  -0.77703  -0.76592
 Alpha  occ. eigenvalues --   -0.72338  -0.71428  -0.70648  -0.65199  -0.64928
 Alpha  occ. eigenvalues --   -0.63542  -0.62275  -0.59503  -0.58027  -0.56184
 Alpha  occ. eigenvalues --   -0.55434  -0.53948  -0.53260  -0.53018  -0.51392
 Alpha  occ. eigenvalues --   -0.51042  -0.49186  -0.49108  -0.48611  -0.46453
 Alpha  occ. eigenvalues --   -0.45324  -0.45036  -0.44037  -0.43841  -0.42314
 Alpha  occ. eigenvalues --   -0.37510  -0.36524
 Alpha virt. eigenvalues --    0.04792   0.11133   0.16283   0.21258   0.24283
 Alpha virt. eigenvalues --    0.25626   0.27191   0.28053   0.28176   0.29013
 Alpha virt. eigenvalues --    0.29539   0.30938   0.32362   0.32670   0.33029

 Mulliken charges:
               1
     1  C   -0.170346
     2  C   -0.218555
     3  C   -0.170696
     4  C    0.158820
     5  C   -0.170227
     6  C   -0.218516
     7  H    0.226351
     8  H    0.224113
     9  H    0.275760
    10  H    0.275723
    11  H    0.224171
    12  N    0.490259
    13  O   -0.458617
    14  O   -0.457823
    15  C   -0.303535
    16  C   -0.298185
    17  C   -0.474259
    18  H    0.146772
    19  H    0.167018
    20  H    0.147760
    21  H    0.149016
    22  H    0.153515
    23  H    0.151229
    24  H    0.155829
    25  C   -0.297980
    26  C   -0.303658
    27  C   -0.475796
    28  H    0.141383
    29  H    0.142908
    30  H    0.166601
    31  H    0.167110
    32  H    0.148516
    33  H    0.147874
    34  H    0.157465
 Sum of Mulliken charges =  -0.00000

 Dipole moment (field-independent basis, Debye):
    X=             -5.4181    Y=              1.4523    Z=             -0.6378  Tot=              5.6455
 Quadrupole moment (field-independent basis, Debye-Ang):
   XX=            -75.1989   YY=            -97.2735   ZZ=            -90.2797
   XY=             -1.2113   XZ=              1.5435   YZ=              3.3075

 Normal termination of Gaussian 16 at Thu May  6 01:31:01 2021.
