 Gaussian 16, Revision A.03,
 Gaussian 16:  EM64L-G16RevA.03 25-Dec-2016

 -------------
 #p 6-31g* mp2
 -------------

 ------------------------------------------------------
 Input file generated by CHIRIPA (05-May-2021 14:55:19)
 ------------------------------------------------------
 Symbolic Z-matrix:
 Charge =  0 Multiplicity = 1

                         Standard orientation:
 ---------------------------------------------------------------------
 Center     Atomic      Atomic             Coordinates (Angstroms)
 Number     Number       Type             X           Y           Z
 ---------------------------------------------------------------------
      1          6           0       -2.328078   -2.292930   -1.146460
      2          6           0       -2.420223   -1.234490   -2.056259
      3          6           0       -2.533665    0.083277   -1.603304
      4          6           0       -2.551912    0.307412   -0.227542
      5          6           0       -2.461922   -0.725865    0.703871
      6          6           0       -2.349184   -2.035693    0.228278
      7          1           0       -2.240227   -3.313520   -1.507119
      8          1           0       -2.404089   -1.431290   -3.124461
      9          1           0       -2.606604    0.921457   -2.285618
     10          1           0       -2.480717   -0.498346    1.762786
     11          1           0       -2.277791   -2.855723    0.937149
     12          7           0       -2.671635    1.698271    0.263964
     13          8           0       -2.685421    1.869275    1.481011
     14          8           0       -2.749421    2.591085   -0.577148
     15          6           0        2.932033   -0.511315    0.959507
     16          6           0        1.452932   -0.203041    1.194480
     17          6           0        0.848621   -1.033657    2.327034
     18          1           0        3.045765   -1.580313    0.733121
     19          1           0        3.489765   -0.327429    1.888223
     20          1           0        0.898369   -0.386130    0.265204
     21          1           0        1.342685    0.865387    1.420145
     22          1           0        1.376127   -0.844251    3.267494
     23          1           0        0.929286   -2.102878    2.105989
     24          1           0       -0.209315   -0.797280    2.477889
     25          6           0        3.550347    0.311170   -0.169623
     26          6           0        5.029449    0.002896   -0.404596
     27          6           0        5.633760    0.833512   -1.537151
     28          1           0        2.992615    0.127284   -1.098340
     29          1           0        3.436615    1.380168    0.056764
     30          1           0        5.139695   -1.065531   -0.630261
     31          1           0        5.584012    0.185984    0.524681
     32          1           0        5.553094    1.902733   -1.316106
     33          1           0        5.106253    0.644106   -2.477610
     34          1           0        6.691695    0.597135   -1.688006
 ---------------------------------------------------------------------

 SCF Done:  E(RHF) =  -669.534765336     A.U. after   15 cycles
 E2 =    -0.2093049200D+01 EUMP2 =    -0.67162781453614D+03

 The electronic state is 1-A.
 Alpha  occ. eigenvalues --  -20.60794 -20.60788 -15.85847 -11.31221 -11.27793
 Alpha  occ. eigenvalues --  -11.27790 -11.27541 -11.26809 -11.26795 -11.21629
 Alpha  occ. eigenvalues --  -11.21597 -11.21438 -11.21367 -11.21262 -11.21084
 Alpha  occ. eigenvalues --   -1.59867  -1.39421  -1.19404  -1.08791  -1.08462
 Alpha  occ. eigenvalues --   -1.04816  -1.03578  -0.96062  -0.95621  -0.87081
 Alpha  occ. eigenvalues --   -0.86203  -0.82457  -0.79644  -0.78267  -0.77505
 Alpha  occ. eigenvalues --   -0.72066  -0.71188  -0.70527  -0.65097  -0.65049
 Alpha  occ. eigenvalues --   -0.64818  -0.62211  -0.60979  -0.59428  -0.57680
 Alpha  occ. eigenvalues --   -0.55357  -0.55305  -0.53218  -0.52961  -0.52633
 Alpha  occ. eigenvalues --   -0.52383  -0.49988  -0.48825  -0.48820  -0.47960
 Alpha  occ. eigenvalues --   -0.46654  -0.45811  -0.45726  -0.44822  -0.43846
 Alpha  occ. eigenvalues --   -0.37376  -0.36351
 Alpha virt. eigenvalues --    0.05015   0.11182   0.16487   0.20909   0.22890
 Alpha virt. eigenvalues --    0.24181   0.26382   0.26588   0.27288   0.27922
 Alpha virt. eigenvalues --    0.28673   0.30193   0.31325   0.31539   0.31943

 Mulliken charges:
               1
     1  C   -0.171615
     2  C   -0.218684
     3  C   -0.171641
     4  C    0.159230
     5  C   -0.169695
     6  C   -0.216589
     7  H    0.225722
     8  H    0.223511
     9  H    0.275784
    10  H    0.276159
    11  H    0.224439
    12  N    0.488266
    13  O   -0.460896
    14  O   -0.460253
    15  C   -0.298249
    16  C   -0.303106
    17  C   -0.474367
    18  H    0.146769
    19  H    0.150413
    20  H    0.152965
    21  H    0.158989
    22  H    0.157572
    23  H    0.148996
    24  H    0.155202
    25  C   -0.298456
    26  C   -0.299611
    27  C   -0.475674
    28  H    0.148120
    29  H    0.152815
    30  H    0.150324
    31  H    0.152533
    32  H    0.156765
    33  H    0.154252
    34  H    0.160007
 Sum of Mulliken charges =  -0.00000

 Dipole moment (field-independent basis, Debye):
    X=              0.4092    Y=             -4.8315    Z=             -1.7489  Tot=              5.1546
 Quadrupole moment (field-independent basis, Debye-Ang):
   XX=            -98.0513   YY=            -97.5936   ZZ=            -89.8325
   XY=             12.8259   XZ=              5.2304   YZ=             -0.1270

 Normal termination of Gaussian 16 at Thu May  6 04:28:27 2021.
