 Gaussian 16, Revision A.03,
 Gaussian 16:  EM64L-G16RevA.03 25-Dec-2016

 -------------
 #p 6-31g* mp2
 -------------

 ------------------------------------------------------
 Input file generated by CHIRIPA (05-May-2021 14:53:17)
 ------------------------------------------------------
 Symbolic Z-matrix:
 Charge =  0 Multiplicity = 1

                         Standard orientation:
 ---------------------------------------------------------------------
 Center     Atomic      Atomic             Coordinates (Angstroms)
 Number     Number       Type             X           Y           Z
 ---------------------------------------------------------------------
      1          6           0        4.311591    0.197212    0.345518
      2          6           0        4.745788   -0.934700   -0.586273
      3          6           0        5.934240   -1.726763   -0.040370
      4          1           0        5.160913    0.874375    0.509979
      5          1           0        4.053024   -0.223940    1.326930
      6          1           0        5.002135   -0.511699   -1.566055
      7          1           0        3.895279   -1.609141   -0.748689
      8          1           0        5.686380   -2.175635    0.926935
      9          1           0        6.799526   -1.071957    0.104925
     10          1           0        6.228014   -2.530896   -0.722225
     11          6           0        3.124538    0.998196   -0.186512
     12          6           0        2.690342    2.130108    0.745279
     13          6           0        1.501889    2.922171    0.199376
     14          1           0        3.383105    1.419348   -1.167924
     15          1           0        2.275216    0.321033   -0.350974
     16          1           0        3.540851    2.804550    0.907694
     17          1           0        2.433994    1.707107    1.725061
     18          1           0        0.636604    2.267365    0.054081
     19          1           0        1.749750    3.371043   -0.767930
     20          1           0        1.208116    3.726305    0.881231
     21          6           0       -1.108806   -2.236748    0.029478
     22          6           0       -2.397155   -2.522173    0.493387
     23          6           0       -3.400082   -1.549252    0.447487
     24          6           0       -3.078362   -0.295859   -0.070966
     25          6           0       -1.804251    0.019004   -0.540849
     26          6           0       -0.816980   -0.969305   -0.485252
     27          1           0       -0.335788   -2.998513    0.068900
     28          1           0       -2.626654   -3.505617    0.893652
     29          1           0       -4.405863   -1.743317    0.799854
     30          1           0       -1.605654    1.008504   -0.934381
     31          1           0        0.182690   -0.744820   -0.846240
     32          7           0       -4.131829    0.742274   -0.124691
     33          8           0       -3.822913    1.838786   -0.586069
     34          8           0       -5.246506    0.439793    0.295594
 ---------------------------------------------------------------------

 SCF Done:  E(RHF) =  -669.535370232     A.U. after   15 cycles
 E2 =    -0.2091978577D+01 EUMP2 =    -0.67162734880869D+03

 The electronic state is 1-A.
 Alpha  occ. eigenvalues --  -20.60754 -20.60748 -15.85807 -11.31191 -11.27767
 Alpha  occ. eigenvalues --  -11.27755 -11.27510 -11.26786 -11.26759 -11.22342
 Alpha  occ. eigenvalues --  -11.22249 -11.22174 -11.22079 -11.21685 -11.21601
 Alpha  occ. eigenvalues --   -1.59829  -1.39381  -1.19367  -1.09152  -1.08758
 Alpha  occ. eigenvalues --   -1.04775  -1.04174  -0.96623  -0.95590  -0.87636
 Alpha  occ. eigenvalues --   -0.86170  -0.82426  -0.80240  -0.78997  -0.77462
 Alpha  occ. eigenvalues --   -0.72025  -0.71152  -0.70477  -0.65829  -0.65020
 Alpha  occ. eigenvalues --   -0.64763  -0.62171  -0.61523  -0.59981  -0.58238
 Alpha  occ. eigenvalues --   -0.55929  -0.55277  -0.53277  -0.53157  -0.53091
 Alpha  occ. eigenvalues --   -0.52775  -0.50558  -0.48792  -0.48779  -0.48550
 Alpha  occ. eigenvalues --   -0.47279  -0.46518  -0.46426  -0.44783  -0.44447
 Alpha  occ. eigenvalues --   -0.37348  -0.36366
 Alpha virt. eigenvalues --    0.05038   0.11230   0.16423   0.19232   0.22671
 Alpha virt. eigenvalues --    0.23607   0.24769   0.25784   0.26501   0.28484
 Alpha virt. eigenvalues --    0.29194   0.30560   0.31171   0.31408   0.31500

 Mulliken charges:
               1
     1  C   -0.298419
     2  C   -0.298695
     3  C   -0.476066
     4  H    0.153438
     5  H    0.150250
     6  H    0.154052
     7  H    0.144663
     8  H    0.155302
     9  H    0.157741
    10  H    0.161358
    11  C   -0.303071
    12  C   -0.300142
    13  C   -0.477672
    14  H    0.152306
    15  H    0.141342
    16  H    0.155376
    17  H    0.154027
    18  H    0.149503
    19  H    0.157034
    20  H    0.167093
    21  C   -0.172537
    22  C   -0.218463
    23  C   -0.170834
    24  C    0.159052
    25  C   -0.175716
    26  C   -0.225114
    27  H    0.225682
    28  H    0.223485
    29  H    0.275693
    30  H    0.278414
    31  H    0.233374
    32  N    0.488076
    33  O   -0.459944
    34  O   -0.460588
 Sum of Mulliken charges =  -0.00000

 Dipole moment (field-independent basis, Debye):
    X=              3.8594    Y=             -3.5569    Z=              0.2481  Tot=              5.2543
 Quadrupole moment (field-independent basis, Debye-Ang):
   XX=           -115.3714   YY=            -90.5055   ZZ=            -94.5319
   XY=             13.8966   XZ=             -2.7944   YZ=             -1.3764

 Normal termination of Gaussian 16 at Thu May  6 04:23:43 2021.
