 Gaussian 16, Revision A.03,
 Gaussian 16:  EM64L-G16RevA.03 25-Dec-2016

 -------------
 #p 6-31g* mp2
 -------------

 ------------------------------------------------------
 Input file generated by CHIRIPA (05-May-2021 14:53:11)
 ------------------------------------------------------
 Symbolic Z-matrix:
 Charge =  0 Multiplicity = 1

                         Standard orientation:
 ---------------------------------------------------------------------
 Center     Atomic      Atomic             Coordinates (Angstroms)
 Number     Number       Type             X           Y           Z
 ---------------------------------------------------------------------
      1          6           0        3.031325    0.839497    0.259638
      2          6           0        2.288715    2.110962   -0.152539
      3          6           0        2.619834    3.305458    0.742633
      4          1           0        2.782051    0.598520    1.302105
      5          1           0        4.113153    1.030109    0.232984
      6          1           0        1.208647    1.917597   -0.126450
      7          1           0        2.539636    2.348833   -1.194207
      8          1           0        3.691547    3.526609    0.709112
      9          1           0        2.352996    3.092922    1.782935
     10          1           0        2.078141    4.203674    0.430162
     11          6           0        2.710696   -0.363359   -0.625835
     12          6           0        3.453306   -1.634825   -0.213658
     13          6           0        3.122187   -2.829321   -1.108831
     14          1           0        1.628868   -0.553972   -0.599181
     15          1           0        2.959970   -0.122383   -1.668302
     16          1           0        3.202384   -1.872695    0.828010
     17          1           0        4.533373   -1.441459   -0.239747
     18          1           0        3.389025   -2.616785   -2.149132
     19          1           0        2.050473   -3.050471   -1.075309
     20          1           0        3.663879   -3.727536   -0.796359
     21          6           0       -1.461236   -2.390088    1.090020
     22          6           0       -0.749129   -1.218020    1.365121
     23          6           0       -1.173074    0.008792    0.845746
     24          6           0       -2.318553    0.027092    0.051496
     25          6           0       -3.049471   -1.123449   -0.240570
     26          6           0       -2.607114   -2.339152    0.289464
     27          1           0       -1.124754   -3.338790    1.497624
     28          1           0        0.141128   -1.254577    1.986533
     29          1           0       -0.640692    0.931361    1.042859
     30          1           0       -3.933207   -1.055385   -0.863301
     31          1           0       -3.162127   -3.247803    0.074155
     32          7           0       -2.777110    1.319983   -0.503985
     33          8           0       -3.789414    1.309408   -1.200954
     34          8           0       -2.115541    2.319445   -0.231885
 ---------------------------------------------------------------------

 SCF Done:  E(RHF) =  -669.535428824     A.U. after   15 cycles
 E2 =    -0.2093573083D+01 EUMP2 =    -0.67162900190671D+03

 The electronic state is 1-A.
 Alpha  occ. eigenvalues --  -20.60870 -20.60865 -15.85915 -11.31298 -11.27863
 Alpha  occ. eigenvalues --  -11.27860 -11.27609 -11.26897 -11.26877 -11.22064
 Alpha  occ. eigenvalues --  -11.21735 -11.21656 -11.21625 -11.21507 -11.21051
 Alpha  occ. eigenvalues --   -1.59937  -1.39490  -1.19479  -1.08866  -1.08736
 Alpha  occ. eigenvalues --   -1.04884  -1.03787  -0.96228  -0.95696  -0.87248
 Alpha  occ. eigenvalues --   -0.86276  -0.82528  -0.79852  -0.78539  -0.77569
 Alpha  occ. eigenvalues --   -0.72133  -0.71255  -0.70587  -0.65444  -0.65116
 Alpha  occ. eigenvalues --   -0.64893  -0.62227  -0.61176  -0.59590  -0.57817
 Alpha  occ. eigenvalues --   -0.55548  -0.55374  -0.53218  -0.53002  -0.52875
 Alpha  occ. eigenvalues --   -0.52632  -0.50190  -0.48898  -0.48890  -0.48146
 Alpha  occ. eigenvalues --   -0.46902  -0.46072  -0.46002  -0.44869  -0.44037
 Alpha  occ. eigenvalues --   -0.37450  -0.36428
 Alpha virt. eigenvalues --    0.04903   0.11067   0.16331   0.19230   0.23205
 Alpha virt. eigenvalues --    0.23376   0.25445   0.26433   0.27670   0.28282
 Alpha virt. eigenvalues --    0.29440   0.30813   0.31356   0.31519   0.31911

 Mulliken charges:
               1
     1  C   -0.298568
     2  C   -0.307090
     3  C   -0.475547
     4  H    0.139718
     5  H    0.151923
     6  H    0.157355
     7  H    0.156456
     8  H    0.154621
     9  H    0.150689
    10  H    0.168308
    11  C   -0.304752
    12  C   -0.298199
    13  C   -0.476179
    14  H    0.153311
    15  H    0.153037
    16  H    0.143693
    17  H    0.154284
    18  H    0.158298
    19  H    0.153330
    20  H    0.159541
    21  C   -0.171660
    22  C   -0.220236
    23  C   -0.173502
    24  C    0.157617
    25  C   -0.170524
    26  C   -0.218307
    27  H    0.226592
    28  H    0.225874
    29  H    0.282143
    30  H    0.276101
    31  H    0.224134
    32  N    0.488436
    33  O   -0.459502
    34  O   -0.461396
 Sum of Mulliken charges =  -0.00000

 Dipole moment (field-independent basis, Debye):
    X=              1.5315    Y=             -4.4682    Z=              1.8405  Tot=              5.0693
 Quadrupole moment (field-independent basis, Debye-Ang):
   XX=            -98.9893   YY=            -94.9110   ZZ=            -94.1537
   XY=             13.0995   XZ=             -3.4317   YZ=              0.1678

 Normal termination of Gaussian 16 at Wed May  5 23:20:32 2021.
