 Gaussian 16, Revision A.03,
 Gaussian 16:  EM64L-G16RevA.03 25-Dec-2016

 -------------
 #p 6-31g* mp2
 -------------

 ------------------------------------------------------
 Input file generated by CHIRIPA (05-May-2021 14:57:20)
 ------------------------------------------------------
 Symbolic Z-matrix:
 Charge =  0 Multiplicity = 1

                         Standard orientation:
 ---------------------------------------------------------------------
 Center     Atomic      Atomic             Coordinates (Angstroms)
 Number     Number       Type             X           Y           Z
 ---------------------------------------------------------------------
      1          6           0       -1.237759    1.515894    1.826131
      2          6           0       -0.934626    0.150383    1.829261
      3          6           0       -1.627132   -0.732556    0.995353
      4          6           0       -2.621215   -0.213467    0.167322
      5          6           0       -2.946319    1.141865    0.141418
      6          6           0       -2.240870    2.006413    0.983705
      7          1           0       -0.694776    2.194639    2.477185
      8          1           0       -0.156091   -0.233370    2.482455
      9          1           0       -1.412826   -1.794243    0.977670
     10          1           0       -3.727607    1.494808   -0.520729
     11          1           0       -2.478422    3.066409    0.979167
     12          7           0       -3.361192   -1.138460   -0.719934
     13          8           0       -4.232586   -0.656151   -1.440134
     14          8           0       -3.055780   -2.328263   -0.678366
     15          6           0        3.246392   -1.947338    1.018447
     16          6           0        2.862925   -0.774133    1.676524
     17          6           0        2.447204    0.344770    0.948666
     18          6           0        2.427027    0.255177   -0.442325
     19          6           0        2.803061   -0.899455   -1.126950
     20          6           0        3.215291   -2.006151   -0.378726
     21          1           0        3.567978   -2.811788    1.591775
     22          1           0        2.886079   -0.725592    2.761491
     23          1           0        2.145020    1.265608    1.432568
     24          1           0        2.769444   -0.917636   -2.209520
     25          1           0        3.512540   -2.915958   -0.892477
     26          7           0        1.988770    1.433249   -1.223656
     27          8           0        1.979891    1.328814   -2.448259
     28          8           0        1.662441    2.438749   -0.596666
 ---------------------------------------------------------------------

 SCF Done:  E(RHF) =  -868.336829101     A.U. after   16 cycles
 E2 =    -0.2602730729D+01 EUMP2 =    -0.87093955983012D+03

 The electronic state is 1-A.
 Alpha  occ. eigenvalues --  -20.61208 -20.61191 -20.60598 -20.60575 -15.86256
 Alpha  occ. eigenvalues --  -15.85642 -11.31687 -11.30967 -11.28400 -11.28246
 Alpha  occ. eigenvalues --  -11.28063 -11.27572 -11.27464 -11.27391 -11.27286
 Alpha  occ. eigenvalues --  -11.27235 -11.26611 -11.26467  -1.60265  -1.59664
 Alpha  occ. eigenvalues --   -1.39821  -1.39219  -1.19905  -1.19135  -1.09267
 Alpha  occ. eigenvalues --   -1.08547  -1.05348  -1.04528  -0.96095  -0.95385
 Alpha  occ. eigenvalues --   -0.86719  -0.85949  -0.82942  -0.82217  -0.77979
 Alpha  occ. eigenvalues --   -0.77269  -0.72486  -0.71866  -0.71581  -0.71016
 Alpha  occ. eigenvalues --   -0.70982  -0.70259  -0.65567  -0.65340  -0.64795
 Alpha  occ. eigenvalues --   -0.64579  -0.62687  -0.61887  -0.55809  -0.55072
 Alpha  occ. eigenvalues --   -0.53770  -0.53433  -0.52771  -0.52578  -0.49249
 Alpha  occ. eigenvalues --   -0.49223  -0.48623  -0.48615  -0.45213  -0.44635
 Alpha  occ. eigenvalues --   -0.37936  -0.37387  -0.36794  -0.35846
 Alpha virt. eigenvalues --    0.04563   0.05267   0.10388   0.11817   0.15904
 Alpha virt. eigenvalues --    0.16747   0.19955   0.22097   0.25960   0.26928
 Alpha virt. eigenvalues --    0.27891   0.29249   0.29939   0.31471   0.32739

 Mulliken charges:
               1
     1  C   -0.166492
     2  C   -0.218643
     3  C   -0.173273
     4  C    0.158344
     5  C   -0.169771
     6  C   -0.212521
     7  H    0.223111
     8  H    0.215489
     9  H    0.272525
    10  H    0.276670
    11  H    0.226693
    12  N    0.488402
    13  O   -0.458911
    14  O   -0.463426
    15  C   -0.170904
    16  C   -0.226175
    17  C   -0.167370
    18  C    0.160670
    19  C   -0.168639
    20  C   -0.218480
    21  H    0.227719
    22  H    0.220086
    23  H    0.269628
    24  H    0.279409
    25  H    0.227352
    26  N    0.489214
    27  O   -0.456631
    28  O   -0.464076
 Sum of Mulliken charges =  -0.00000

 Dipole moment (field-independent basis, Debye):
    X=              4.1771    Y=             -0.8082    Z=              5.6002  Tot=              7.0330
 Quadrupole moment (field-independent basis, Debye-Ang):
   XX=           -110.4350   YY=           -104.5436   ZZ=           -103.0862
   XY=            -22.4797   XZ=             -1.6976   YZ=              3.5033

 Normal termination of Gaussian 16 at Wed May  5 20:53:01 2021.
