 Gaussian 16, Revision A.03,
 Gaussian 16:  EM64L-G16RevA.03 25-Dec-2016

 -------------
 #p 6-31g* mp2
 -------------

 ------------------------------------------------------
 Input file generated by CHIRIPA (05-May-2021 14:53:15)
 ------------------------------------------------------
 Symbolic Z-matrix:
 Charge =  0 Multiplicity = 1

                         Standard orientation:
 ---------------------------------------------------------------------
 Center     Atomic      Atomic             Coordinates (Angstroms)
 Number     Number       Type             X           Y           Z
 ---------------------------------------------------------------------
      1          6           0       -2.998261   -0.089799   -0.095971
      2          6           0       -4.119616   -0.660567   -0.964747
      3          6           0       -4.425150   -2.125000   -0.648712
      4          1           0       -2.091170   -0.693571   -0.235935
      5          1           0       -3.278150   -0.186845    0.962159
      6          1           0       -3.838300   -0.561213   -2.020970
      7          1           0       -5.024089   -0.055250   -0.822844
      8          1           0       -4.730803   -2.237886    0.396484
      9          1           0       -3.538277   -2.746724   -0.808449
     10          1           0       -5.229740   -2.512801   -1.281251
     11          6           0       -2.681278    1.373328   -0.400124
     12          6           0       -1.559923    1.944096    0.468653
     13          6           0       -1.254389    3.408529    0.152617
     14          1           0       -2.401389    1.470374   -1.458254
     15          1           0       -3.588369    1.977100   -0.260159
     16          1           0       -0.655450    1.338779    0.326750
     17          1           0       -1.841239    1.844742    1.524875
     18          1           0       -2.141262    4.030252    0.312355
     19          1           0       -0.948735    3.521414   -0.892578
     20          1           0       -0.449799    3.796330    0.785156
     21          6           0        0.537460   -1.453827    1.816326
     22          6           0        0.990351   -2.227711    0.742775
     23          6           0        1.921695   -1.710262   -0.162427
     24          6           0        2.381093   -0.409299    0.036926
     25          6           0        1.948991    0.386575    1.096719
     26          6           0        1.017380   -0.151449    1.989567
     27          1           0       -0.186134   -1.863786    2.514711
     28          1           0        0.619374   -3.239467    0.605761
     29          1           0        2.289183   -2.287464   -1.002194
     30          1           0        2.337080    1.391857    1.207233
     31          1           0        0.667427    0.451857    2.822394
     32          7           0        3.367208    0.149393   -0.914832
     33          8           0        3.756504    1.298316   -0.717192
     34          8           0        3.732154   -0.572206   -1.840437
 ---------------------------------------------------------------------

 SCF Done:  E(RHF) =  -669.534280437     A.U. after   15 cycles
 E2 =    -0.2094178203D+01 EUMP2 =    -0.67162845864070D+03

 The electronic state is 1-A.
 Alpha  occ. eigenvalues --  -20.60838 -20.60833 -15.85892 -11.31289 -11.27838
 Alpha  occ. eigenvalues --  -11.27807 -11.27555 -11.26882 -11.26816 -11.21955
 Alpha  occ. eigenvalues --  -11.21763 -11.21741 -11.21617 -11.21534 -11.21268
 Alpha  occ. eigenvalues --   -1.59914  -1.39466  -1.19463  -1.08856  -1.08725
 Alpha  occ. eigenvalues --   -1.04874  -1.03840  -0.96302  -0.95669  -0.87314
 Alpha  occ. eigenvalues --   -0.86246  -0.82505  -0.79921  -0.78585  -0.77540
 Alpha  occ. eigenvalues --   -0.72108  -0.71240  -0.70536  -0.65386  -0.65095
 Alpha  occ. eigenvalues --   -0.64846  -0.62201  -0.61256  -0.59688  -0.57929
 Alpha  occ. eigenvalues --   -0.55589  -0.55332  -0.53356  -0.52942  -0.52931
 Alpha  occ. eigenvalues --   -0.52721  -0.50236  -0.48870  -0.48862  -0.48238
 Alpha  occ. eigenvalues --   -0.46951  -0.46102  -0.45972  -0.44863  -0.44093
 Alpha  occ. eigenvalues --   -0.37400  -0.36326
 Alpha virt. eigenvalues --    0.04964   0.11108   0.16429   0.20861   0.22762
 Alpha virt. eigenvalues --    0.23774   0.25974   0.26900   0.26985   0.28129
 Alpha virt. eigenvalues --    0.28627   0.30106   0.31394   0.31502   0.31971

 Mulliken charges:
               1
     1  C   -0.300868
     2  C   -0.299673
     3  C   -0.475293
     4  H    0.151542
     5  H    0.143683
     6  H    0.154247
     7  H    0.153025
     8  H    0.153107
     9  H    0.151788
    10  H    0.162367
    11  C   -0.297387
    12  C   -0.308389
    13  C   -0.475067
    14  H    0.152312
    15  H    0.149416
    16  H    0.164484
    17  H    0.142127
    18  H    0.155297
    19  H    0.160055
    20  H    0.156259
    21  C   -0.168491
    22  C   -0.219310
    23  C   -0.172118
    24  C    0.160443
    25  C   -0.175348
    26  C   -0.214735
    27  H    0.226862
    28  H    0.224235
    29  H    0.275888
    30  H    0.276363
    31  H    0.225343
    32  N    0.488037
    33  O   -0.460013
    34  O   -0.460187
 Sum of Mulliken charges =  -0.00000

 Dipole moment (field-independent basis, Debye):
    X=             -3.3952    Y=             -1.9869    Z=              3.3120  Tot=              5.1424
 Quadrupole moment (field-independent basis, Debye-Ang):
   XX=           -111.9746   YY=            -90.7814   ZZ=            -93.1422
   XY=             -3.7544   XZ=              7.7542   YZ=              1.1987

 Normal termination of Gaussian 16 at Thu May  6 15:30:27 2021.
