 Gaussian 16, Revision A.03,
 Gaussian 16:  EM64L-G16RevA.03 25-Dec-2016

 -------------
 #p 6-31g* mp2
 -------------

 ------------------------------------------------------
 Input file generated by CHIRIPA (05-May-2021 14:51:09)
 ------------------------------------------------------
 Symbolic Z-matrix:
 Charge =  0 Multiplicity = 1

                         Standard orientation:
 ---------------------------------------------------------------------
 Center     Atomic      Atomic             Coordinates (Angstroms)
 Number     Number       Type             X           Y           Z
 ---------------------------------------------------------------------
      1          6           0        3.718292    0.930909   -0.176680
      2          6           0        2.444083    1.700451   -0.526225
      3          6           0        2.572837    3.202933   -0.273714
      4          1           0        3.967356    1.106765    0.878776
      5          1           0        4.554161    1.332426   -0.766174
      6          1           0        1.610590    1.296682    0.062738
      7          1           0        2.197917    1.522589   -1.580921
      8          1           0        3.385734    3.625978   -0.872740
      9          1           0        2.795070    3.398787    0.780257
     10          1           0        1.650669    3.733626   -0.530292
     11          6           0        3.605142   -0.572385   -0.423727
     12          6           0        4.879351   -1.341926   -0.074182
     13          6           0        4.750597   -2.844409   -0.326693
     14          1           0        2.769273   -0.973902    0.165767
     15          1           0        3.356078   -0.748241   -1.479183
     16          1           0        5.125517   -1.164064    0.980514
     17          1           0        5.712844   -0.938157   -0.663145
     18          1           0        4.528364   -3.040263   -1.380664
     19          1           0        3.937700   -3.267453    0.272333
     20          1           0        5.672765   -3.375101   -0.070115
     21          6           0       -2.962729    0.121963    0.364310
     22          6           0       -2.211930   -0.347927    1.610701
     23          6           0       -0.815120    0.263352    1.724960
     24          1           0       -2.375028   -0.133471   -0.528051
     25          1           0       -3.041488    1.217784    0.383578
     26          1           0       -2.135821   -1.442635    1.589779
     27          1           0       -2.801576   -0.091515    2.500188
     28          1           0       -0.875169    1.355538    1.771035
     29          1           0       -0.205630   -0.003259    0.855453
     30          1           0       -0.296207   -0.086078    2.623007
     31          6           0       -4.360705   -0.480488    0.236097
     32          6           0       -5.111504   -0.010598   -1.010294
     33          6           0       -6.508314   -0.621876   -1.124553
     34          1           0       -4.281946   -1.576307    0.216830
     35          1           0       -4.948405   -0.225053    1.128457
     36          1           0       -4.521858   -0.267010   -1.899781
     37          1           0       -5.187613    1.084110   -0.989372
     38          1           0       -7.117803   -0.355266   -0.255046
     39          1           0       -6.448265   -1.714063   -1.170628
     40          1           0       -7.027227   -0.272447   -2.022600
 ---------------------------------------------------------------------

 SCF Done:  E(RHF) =  -470.733183081     A.U. after   11 cycles
 E2 =    -0.1582692172D+01 EUMP2 =    -0.47231587525302D+03

 The electronic state is 1-A.
 Alpha  occ. eigenvalues --  -11.21644 -11.21613 -11.21579 -11.21470 -11.21425
 Alpha  occ. eigenvalues --  -11.21365 -11.21362 -11.21293 -11.21133 -11.21080
 Alpha  occ. eigenvalues --  -11.21058 -11.21000  -1.08456  -1.08378  -1.03568
 Alpha  occ. eigenvalues --   -1.03470  -0.96018  -0.95929  -0.87046  -0.86940
 Alpha  occ. eigenvalues --   -0.79679  -0.79499  -0.78286  -0.78171  -0.65103
 Alpha  occ. eigenvalues --   -0.64998  -0.60992  -0.60853  -0.59386  -0.59300
 Alpha  occ. eigenvalues --   -0.57648  -0.57518  -0.55308  -0.55220  -0.52718
 Alpha  occ. eigenvalues --   -0.52634  -0.52471  -0.52338  -0.50003  -0.49848
 Alpha  occ. eigenvalues --   -0.48098  -0.47758  -0.46728  -0.46503  -0.45903
 Alpha  occ. eigenvalues --   -0.45741  -0.45710  -0.45430  -0.43815  -0.43731
 Alpha virt. eigenvalues --    0.21849   0.22987   0.23897   0.24484   0.25459
 Alpha virt. eigenvalues --    0.26698   0.27103   0.27604   0.27921   0.29128
 Alpha virt. eigenvalues --    0.31077   0.31587   0.31712   0.31836   0.32033

 Mulliken charges:
               1
     1  C   -0.297415
     2  C   -0.309310
     3  C   -0.475070
     4  H    0.149534
     5  H    0.149127
     6  H    0.163415
     7  H    0.150694
     8  H    0.154701
     9  H    0.154973
    10  H    0.159793
    11  C   -0.299616
    12  C   -0.299552
    13  C   -0.475703
    14  H    0.150128
    15  H    0.149231
    16  H    0.152010
    17  H    0.151987
    18  H    0.155016
    19  H    0.155083
    20  H    0.160195
    21  C   -0.298447
    22  C   -0.299677
    23  C   -0.480826
    24  H    0.150068
    25  H    0.149592
    26  H    0.152030
    27  H    0.152094
    28  H    0.155925
    29  H    0.159669
    30  H    0.160122
    31  C   -0.298331
    32  C   -0.299682
    33  C   -0.475726
    34  H    0.149587
    35  H    0.149667
    36  H    0.152049
    37  H    0.151958
    38  H    0.155183
    39  H    0.155214
    40  H    0.160307
 Sum of Mulliken charges =  -0.00000

 Dipole moment (field-independent basis, Debye):
    X=             -0.0395    Y=             -0.0070    Z=              0.0180  Tot=              0.0440
 Quadrupole moment (field-independent basis, Debye-Ang):
   XX=            -85.6955   YY=            -85.5742   ZZ=            -83.6662
   XY=             -0.6066   XZ=             -0.7082   YZ=              0.1077

 Normal termination of Gaussian 16 at Wed May  5 16:38:57 2021.
