 Gaussian 16, Revision A.03,
 Gaussian 16:  EM64L-G16RevA.03 25-Dec-2016

 -------------
 #p 6-31g* mp2
 -------------

 ------------------------------------------------------
 Input file generated by CHIRIPA (05-May-2021 14:57:24)
 ------------------------------------------------------
 Symbolic Z-matrix:
 Charge =  0 Multiplicity = 1

                         Standard orientation:
 ---------------------------------------------------------------------
 Center     Atomic      Atomic             Coordinates (Angstroms)
 Number     Number       Type             X           Y           Z
 ---------------------------------------------------------------------
      1          6           0        2.050641   -1.224561    0.046464
      2          6           0        2.070070    0.157083   -0.170796
      3          6           0        3.282310    0.852262   -0.212632
      4          6           0        4.461554    0.131004   -0.032470
      5          6           0        4.474987   -1.245747    0.185860
      6          6           0        3.251045   -1.920340    0.223786
      7          1           0        1.104399   -1.756597    0.077444
      8          1           0        1.139370    0.700027   -0.308830
      9          1           0        3.326284    1.921723   -0.379178
     10          1           0        5.419077   -1.759656    0.320057
     11          1           0        3.238989   -2.993360    0.392686
     12          7           0        5.751092    0.856062   -0.074691
     13          8           0        6.776229    0.197564    0.086904
     14          8           0        5.712278    2.069132   -0.268578
     15          6           0       -6.353551    1.379421   -0.021506
     16          6           0       -5.129731    1.972406    0.305837
     17          6           0       -3.957302    1.211415    0.335004
     18          6           0       -4.045565   -0.145975    0.030057
     19          6           0       -5.249869   -0.765750   -0.299822
     20          6           0       -6.409615    0.014641   -0.322761
     21          1           0       -7.259396    1.978112   -0.041744
     22          1           0       -5.083194    3.032093    0.540239
     23          1           0       -2.996610    1.644924    0.585123
     24          1           0       -5.264678   -1.824412   -0.528809
     25          1           0       -7.358661   -0.448560   -0.577325
     26          7           0       -2.811080   -0.961871    0.057638
     27          8           0       -2.915502   -2.155781   -0.214969
     28          8           0       -1.762444   -0.392012    0.351340
 ---------------------------------------------------------------------

 SCF Done:  E(RHF) =  -868.341390931     A.U. after   16 cycles
 E2 =    -0.2598344495D+01 EUMP2 =    -0.87093973542679D+03

 The electronic state is 1-A.
 Alpha  occ. eigenvalues --  -20.62083 -20.62055 -20.59962 -20.59957 -15.87072
 Alpha  occ. eigenvalues --  -15.85008 -11.32062 -11.30109 -11.28596 -11.28568
 Alpha  occ. eigenvalues --  -11.28245 -11.27509 -11.27496 -11.26684 -11.26645
 Alpha  occ. eigenvalues --  -11.26072 -11.25561 -11.25424  -1.61116  -1.59045
 Alpha  occ. eigenvalues --   -1.40681  -1.38606  -1.20195  -1.18232  -1.09659
 Alpha  occ. eigenvalues --   -1.07616  -1.05541  -1.03607  -0.96559  -0.94506
 Alpha  occ. eigenvalues --   -0.86956  -0.84975  -0.83408  -0.81371  -0.78495
 Alpha  occ. eigenvalues --   -0.76501  -0.73322  -0.72398  -0.71296  -0.71229
 Alpha  occ. eigenvalues --   -0.70367  -0.69188  -0.65853  -0.65537  -0.63849
 Alpha  occ. eigenvalues --   -0.63553  -0.62894  -0.60966  -0.56051  -0.53907
 Alpha  occ. eigenvalues --   -0.53888  -0.53625  -0.51946  -0.51662  -0.50078
 Alpha  occ. eigenvalues --   -0.50029  -0.48002  -0.47957  -0.46161  -0.44073
 Alpha  occ. eigenvalues --   -0.38147  -0.37125  -0.36118  -0.35243
 Alpha virt. eigenvalues --    0.04007   0.06034   0.10536   0.12438   0.15574
 Alpha virt. eigenvalues --    0.17628   0.20667   0.22821   0.26622   0.27367
 Alpha virt. eigenvalues --    0.28562   0.29725   0.30457   0.31703   0.32674

 Mulliken charges:
               1
     1  C   -0.175042
     2  C   -0.222487
     3  C   -0.173497
     4  C    0.157019
     5  C   -0.172533
     6  C   -0.220378
     7  H    0.246959
     8  H    0.231905
     9  H    0.270325
    10  H    0.271577
    11  H    0.221066
    12  N    0.488364
    13  O   -0.463509
    14  O   -0.464132
    15  C   -0.169376
    16  C   -0.218357
    17  C   -0.170121
    18  C    0.157511
    19  C   -0.170037
    20  C   -0.218472
    21  H    0.228805
    22  H    0.226232
    23  H    0.273751
    24  H    0.276655
    25  H    0.226225
    26  N    0.492382
    27  O   -0.457152
    28  O   -0.473684
 Sum of Mulliken charges =  -0.00000

 Dipole moment (field-independent basis, Debye):
    X=             -9.7083    Y=              0.2426    Z=              0.0447  Tot=              9.7115
 Quadrupole moment (field-independent basis, Debye-Ang):
   XX=           -108.7614   YY=            -99.5865   ZZ=           -106.1027
   XY=            -23.5709   XZ=              2.4405   YZ=              0.6876

 Normal termination of Gaussian 16 at Fri May  7 00:20:56 2021.
