 Gaussian 16, Revision A.03,
 Gaussian 16:  EM64L-G16RevA.03 25-Dec-2016

 -------------
 #p 6-31g* mp2
 -------------

 ------------------------------------------------------
 Input file generated by CHIRIPA (05-May-2021 14:57:21)
 ------------------------------------------------------
 Symbolic Z-matrix:
 Charge =  0 Multiplicity = 1

                         Standard orientation:
 ---------------------------------------------------------------------
 Center     Atomic      Atomic             Coordinates (Angstroms)
 Number     Number       Type             X           Y           Z
 ---------------------------------------------------------------------
      1          6           0       -4.703099    0.951991   -1.233824
      2          6           0       -3.803479    1.624896   -0.400514
      3          6           0       -2.845879    0.915429    0.330379
      4          6           0       -2.816042   -0.472492    0.203589
      5          6           0       -3.698704   -1.171595   -0.618271
      6          6           0       -4.647937   -0.441650   -1.339856
      7          1           0       -5.443736    1.511077   -1.797984
      8          1           0       -3.843995    2.707161   -0.316213
      9          1           0       -2.137378    1.411071    0.982900
     10          1           0       -3.633832   -2.251033   -0.681698
     11          1           0       -5.345330   -0.966888   -1.986240
     12          7           0       -1.806703   -1.234413    0.972425
     13          8           0       -1.801088   -2.456681    0.843323
     14          8           0       -1.040309   -0.594912    1.689584
     15          6           0        1.559075    1.994596    1.197977
     16          6           0        1.853988    2.220795   -0.150497
     17          6           0        2.641637    1.314613   -0.866730
     18          6           0        3.119995    0.187627   -0.200123
     19          6           0        2.843560   -0.065589    1.142544
     20          6           0        2.053930    0.854136    1.839064
     21          1           0        0.946441    2.703800    1.746706
     22          1           0        1.471034    3.105633   -0.650952
     23          1           0        2.885297    1.465158   -1.911423
     24          1           0        3.239613   -0.956684    1.614254
     25          1           0        1.826505    0.675891    2.886227
     26          7           0        3.954892   -0.778876   -0.947932
     27          8           0        4.364249   -1.764116   -0.337713
     28          8           0        4.184120   -0.532881   -2.130124
 ---------------------------------------------------------------------

 SCF Done:  E(RHF) =  -868.337889960     A.U. after   16 cycles
 E2 =    -0.2600561024D+01 EUMP2 =    -0.87093845098413D+03

 The electronic state is 1-A.
 Alpha  occ. eigenvalues --  -20.61223 -20.61213 -20.60127 -20.60102 -15.86259
 Alpha  occ. eigenvalues --  -15.85164 -11.31608 -11.30435 -11.28231 -11.28134
 Alpha  occ. eigenvalues --  -11.27900 -11.27218 -11.27142 -11.27037 -11.26859
 Alpha  occ. eigenvalues --  -11.26758 -11.26134 -11.25885  -1.60282  -1.59192
 Alpha  occ. eigenvalues --   -1.39840  -1.38748  -1.19775  -1.18584  -1.09170
 Alpha  occ. eigenvalues --   -1.08022  -1.05183  -1.03963  -0.96015  -0.94875
 Alpha  occ. eigenvalues --   -0.86579  -0.85389  -0.82856  -0.81703  -0.77909
 Alpha  occ. eigenvalues --   -0.76749  -0.72505  -0.71594  -0.71391  -0.70887
 Alpha  occ. eigenvalues --   -0.70508  -0.69758  -0.65436  -0.65189  -0.64255
 Alpha  occ. eigenvalues --   -0.63991  -0.62540  -0.61322  -0.55674  -0.54555
 Alpha  occ. eigenvalues --   -0.53502  -0.53280  -0.52294  -0.52079  -0.49270
 Alpha  occ. eigenvalues --   -0.49224  -0.48149  -0.48138  -0.45247  -0.44174
 Alpha  occ. eigenvalues --   -0.37746  -0.36791  -0.36560  -0.35479
 Alpha virt. eigenvalues --    0.04636   0.05752   0.10869   0.12127   0.16143
 Alpha virt. eigenvalues --    0.17211   0.20742   0.22066   0.26522   0.27485
 Alpha virt. eigenvalues --    0.28076   0.29058   0.30660   0.31407   0.32825

 Mulliken charges:
               1
     1  C   -0.170383
     2  C   -0.218675
     3  C   -0.169501
     4  C    0.159208
     5  C   -0.169931
     6  C   -0.218254
     7  H    0.226738
     8  H    0.221614
     9  H    0.268695
    10  H    0.277745
    11  H    0.225463
    12  N    0.490467
    13  O   -0.456604
    14  O   -0.466908
    15  C   -0.172173
    16  C   -0.220566
    17  C   -0.173533
    18  C    0.157864
    19  C   -0.168614
    20  C   -0.197543
    21  H    0.217744
    22  H    0.216111
    23  H    0.271670
    24  H    0.276906
    25  H    0.227806
    26  N    0.488159
    27  O   -0.459189
    28  O   -0.464317
 Sum of Mulliken charges =  -0.00000

 Dipole moment (field-independent basis, Debye):
    X=             -6.6590    Y=              5.8081    Z=              0.0887  Tot=              8.8365
 Quadrupole moment (field-independent basis, Debye-Ang):
   XX=           -103.8388   YY=           -101.9044   ZZ=           -103.5870
   XY=              5.4404   XZ=             17.9426   YZ=              0.9016

 Normal termination of Gaussian 16 at Thu May  6 17:50:03 2021.
