 Gaussian 16, Revision A.03,
 Gaussian 16:  EM64L-G16RevA.03 25-Dec-2016

 -------------
 #p 6-31g* mp2
 -------------

 ------------------------------------------------------
 Input file generated by CHIRIPA (05-May-2021 14:53:17)
 ------------------------------------------------------
 Symbolic Z-matrix:
 Charge =  0 Multiplicity = 1

                         Standard orientation:
 ---------------------------------------------------------------------
 Center     Atomic      Atomic             Coordinates (Angstroms)
 Number     Number       Type             X           Y           Z
 ---------------------------------------------------------------------
      1          6           0       -4.601026    0.079406    0.526795
      2          6           0       -3.206773   -0.047722   -0.087927
      3          6           0       -2.092378    0.314271    0.894355
      4          1           0       -4.744951    1.108362    0.883839
      5          1           0       -4.664966   -0.570027    1.410844
      6          1           0       -3.145933    0.600709   -0.971359
      7          1           0       -3.066222   -1.076445   -0.443722
      8          1           0       -2.124509   -0.340000    1.771565
      9          1           0       -2.204673    1.346684    1.240931
     10          1           0       -1.104175    0.216469    0.434191
     11          6           0       -5.725654   -0.279127   -0.442944
     12          6           0       -7.119906   -0.151999    0.171779
     13          6           0       -8.234302   -0.513991   -0.810503
     14          1           0       -5.661713    0.370307   -1.326993
     15          1           0       -5.581729   -1.308083   -0.799988
     16          1           0       -7.260457    0.876724    0.527574
     17          1           0       -7.180746   -0.800430    1.055210
     18          1           0       -8.122007   -1.546404   -1.157079
     19          1           0       -8.202171    0.140279   -1.687714
     20          1           0       -9.222504   -0.416189   -0.350339
     21          6           0        5.903401   -1.603617   -0.239750
     22          6           0        6.107234   -0.277903   -0.636556
     23          6           0        5.078508    0.662378   -0.526364
     24          6           0        3.853118    0.240590   -0.012743
     25          6           0        3.619157   -1.072977    0.391107
     26          6           0        4.662201   -1.996231    0.271913
     27          1           0        6.708102   -2.327436   -0.328847
     28          1           0        7.070125    0.029838   -1.034275
     29          1           0        5.209061    1.695123   -0.826054
     30          1           0        2.648336   -1.349909    0.783832
     31          1           0        4.501047   -3.025125    0.580864
     32          7           0        2.756473    1.227011    0.108678
     33          8           0        1.686160    0.830222    0.564336
     34          8           0        2.988002    2.378278   -0.254110
 ---------------------------------------------------------------------

 SCF Done:  E(RHF) =  -669.535936944     A.U. after   15 cycles
 E2 =    -0.2090550309D+01 EUMP2 =    -0.67162648725310D+03

 The electronic state is 1-A.
 Alpha  occ. eigenvalues --  -20.60894 -20.60883 -15.85935 -11.31267 -11.27833
 Alpha  occ. eigenvalues --  -11.27830 -11.27574 -11.26844 -11.26835 -11.21143
 Alpha  occ. eigenvalues --  -11.20819 -11.20697 -11.20684 -11.20623 -11.19683
 Alpha  occ. eigenvalues --   -1.59958  -1.39514  -1.19438  -1.08840  -1.07757
 Alpha  occ. eigenvalues --   -1.04837  -1.02779  -0.95682  -0.95198  -0.86240
 Alpha  occ. eigenvalues --   -0.86205  -0.82513  -0.78864  -0.77577  -0.77543
 Alpha  occ. eigenvalues --   -0.72160  -0.71275  -0.70547  -0.65094  -0.64840
 Alpha  occ. eigenvalues --   -0.64399  -0.62184  -0.60189  -0.58595  -0.56797
 Alpha  occ. eigenvalues --   -0.55341  -0.54505  -0.53168  -0.52929  -0.51830
 Alpha  occ. eigenvalues --   -0.51628  -0.49171  -0.48910  -0.48897  -0.47164
 Alpha  occ. eigenvalues --   -0.45931  -0.45094  -0.45025  -0.44919  -0.42991
 Alpha  occ. eigenvalues --   -0.37418  -0.36439
 Alpha virt. eigenvalues --    0.04953   0.11216   0.16435   0.21322   0.23490
 Alpha virt. eigenvalues --    0.25101   0.27247   0.27276   0.28008   0.28142
 Alpha virt. eigenvalues --    0.28947   0.30828   0.32115   0.32158   0.32421

 Mulliken charges:
               1
     1  C   -0.297325
     2  C   -0.299930
     3  C   -0.481517
     4  H    0.149686
     5  H    0.147149
     6  H    0.151691
     7  H    0.146378
     8  H    0.146909
     9  H    0.156111
    10  H    0.182570
    11  C   -0.297517
    12  C   -0.299099
    13  C   -0.475303
    14  H    0.149149
    15  H    0.147619
    16  H    0.151885
    17  H    0.150819
    18  H    0.154072
    19  H    0.154890
    20  H    0.158895
    21  C   -0.170663
    22  C   -0.218575
    23  C   -0.170687
    24  C    0.157591
    25  C   -0.170749
    26  C   -0.218532
    27  H    0.225890
    28  H    0.223715
    29  H    0.275810
    30  H    0.275827
    31  H    0.223765
    32  N    0.493551
    33  O   -0.464894
    34  O   -0.459183
 Sum of Mulliken charges =  -0.00000

 Dipole moment (field-independent basis, Debye):
    X=              4.1712    Y=             -3.4099    Z=             -0.4369  Tot=              5.4053
 Quadrupole moment (field-independent basis, Debye-Ang):
   XX=            -65.5135   YY=            -93.3027   ZZ=            -95.2332
   XY=            -10.7399   XZ=             -3.5875   YZ=             -2.0535

 Normal termination of Gaussian 16 at Wed May  5 20:23:23 2021.
