 Gaussian 16, Revision A.03,
 Gaussian 16:  EM64L-G16RevA.03 25-Dec-2016

 -------------
 #p 6-31g* mp2
 -------------

 ------------------------------------------------------
 Input file generated by CHIRIPA (05-May-2021 14:57:23)
 ------------------------------------------------------
 Symbolic Z-matrix:
 Charge =  0 Multiplicity = 1

                         Standard orientation:
 ---------------------------------------------------------------------
 Center     Atomic      Atomic             Coordinates (Angstroms)
 Number     Number       Type             X           Y           Z
 ---------------------------------------------------------------------
      1          6           0        1.152108    0.083093    1.350000
      2          6           0        1.562943   -1.119707    0.766041
      3          6           0        2.830074   -1.230926    0.185905
      4          6           0        3.664492   -0.114428    0.207545
      5          6           0        3.284032    1.097583    0.781627
      6          6           0        2.012447    1.185955    1.355918
      7          1           0        0.166041    0.160617    1.798393
      8          1           0        0.896898   -1.977840    0.759989
      9          1           0        3.173598   -2.150066   -0.272997
     10          1           0        3.970158    1.935772    0.772317
     11          1           0        1.696056    2.121326    1.808712
     12          7           0        5.008304   -0.220078   -0.403525
     13          8           0        5.724702    0.778113   -0.371506
     14          8           0        5.319741   -1.299077   -0.902930
     15          6           0       -1.246636    1.041176   -1.114733
     16          6           0       -2.300296    1.901035   -0.787677
     17          6           0       -3.521680    1.389005   -0.339798
     18          6           0       -3.655353    0.005738   -0.230290
     19          6           0       -2.624277   -0.876837   -0.548460
     20          6           0       -1.411698   -0.342576   -0.994292
     21          1           0       -0.301256    1.447567   -1.461860
     22          1           0       -2.174953    2.976100   -0.880243
     23          1           0       -4.353898    2.031847   -0.079824
     24          1           0       -2.779224   -1.944031   -0.445962
     25          1           0       -0.595143   -1.012747   -1.247575
     26          7           0       -4.943717   -0.548092    0.242776
     27          8           0       -5.036157   -1.770538    0.330622
     28          8           0       -5.836702    0.250749    0.516761
 ---------------------------------------------------------------------

 SCF Done:  E(RHF) =  -868.336280232     A.U. after   16 cycles
 E2 =    -0.2602842373D+01 EUMP2 =    -0.87093912260531D+03

 The electronic state is 1-A.
 Alpha  occ. eigenvalues --  -20.61424 -20.61418 -20.61408 -20.61403 -15.86488
 Alpha  occ. eigenvalues --  -15.86467 -11.31964 -11.31935 -11.28611 -11.28598
 Alpha  occ. eigenvalues --  -11.28517 -11.28498 -11.28265 -11.28181 -11.27577
 Alpha  occ. eigenvalues --  -11.27548 -11.27505 -11.27469  -1.60501  -1.60484
 Alpha  occ. eigenvalues --   -1.40050  -1.40034  -1.20210  -1.20104  -1.09606
 Alpha  occ. eigenvalues --   -1.09406  -1.05647  -1.05509  -0.96375  -0.96250
 Alpha  occ. eigenvalues --   -0.87080  -0.86818  -0.83196  -0.83098  -0.78260
 Alpha  occ. eigenvalues --   -0.78126  -0.72698  -0.72674  -0.71835  -0.71817
 Alpha  occ. eigenvalues --   -0.71230  -0.71147  -0.65851  -0.65775  -0.65724
 Alpha  occ. eigenvalues --   -0.65350  -0.63039  -0.62765  -0.56055  -0.55949
 Alpha  occ. eigenvalues --   -0.54286  -0.53754  -0.53626  -0.53396  -0.49469
 Alpha  occ. eigenvalues --   -0.49448  -0.49440  -0.49429  -0.45432  -0.45418
 Alpha  occ. eigenvalues --   -0.38858  -0.37600  -0.37337  -0.36801
 Alpha virt. eigenvalues --    0.04078   0.04571   0.09813   0.11018   0.15500
 Alpha virt. eigenvalues --    0.16043   0.20049   0.21338   0.25431   0.27426
 Alpha virt. eigenvalues --    0.27602   0.27878   0.29853   0.31137   0.31818

 Mulliken charges:
               1
     1  C   -0.165893
     2  C   -0.228275
     3  C   -0.172769
     4  C    0.157191
     5  C   -0.170761
     6  C   -0.225482
     7  H    0.233953
     8  H    0.223067
     9  H    0.277495
    10  H    0.277634
    11  H    0.225237
    12  N    0.488154
    13  O   -0.458962
    14  O   -0.458943
    15  C   -0.172486
    16  C   -0.222169
    17  C   -0.171230
    18  C    0.158399
    19  C   -0.176987
    20  C   -0.222433
    21  H    0.231741
    22  H    0.225204
    23  H    0.277530
    24  H    0.275199
    25  H    0.225749
    26  N    0.488000
    27  O   -0.459680
    28  O   -0.458484
 Sum of Mulliken charges =  -0.00000

 Dipole moment (field-independent basis, Debye):
    X=             -0.1638    Y=              2.4184    Z=              0.5135  Tot=              2.4777
 Quadrupole moment (field-independent basis, Debye-Ang):
   XX=           -172.7723   YY=            -96.1061   ZZ=           -104.1755
   XY=             -6.2514   XZ=             12.1772   YZ=              1.1326

 Normal termination of Gaussian 16 at Thu May  6 11:19:18 2021.
