 Gaussian 16, Revision A.03,
 Gaussian 16:  EM64L-G16RevA.03 25-Dec-2016

 -------------
 #p 6-31g* mp2
 -------------

 ------------------------------------------------------
 Input file generated by CHIRIPA (05-May-2021 14:51:10)
 ------------------------------------------------------
 Symbolic Z-matrix:
 Charge =  0 Multiplicity = 1

                         Standard orientation:
 ---------------------------------------------------------------------
 Center     Atomic      Atomic             Coordinates (Angstroms)
 Number     Number       Type             X           Y           Z
 ---------------------------------------------------------------------
      1          6           0        3.391706   -0.752223   -0.310174
      2          6           0        4.253704    0.510670   -0.303444
      3          6           0        5.444174    0.418931   -1.258515
      4          1           0        4.015074   -1.615419   -0.039528
      5          1           0        3.030301   -0.935635   -1.331518
      6          1           0        4.612240    0.692417    0.717847
      7          1           0        3.628169    1.370988   -0.573952
      8          1           0        5.102097    0.261296   -2.286492
      9          1           0        6.091761   -0.421131   -0.987353
     10          1           0        6.046804    1.332313   -1.237798
     11          6           0        2.197643   -0.675754    0.639612
     12          6           0        1.335644   -1.938646    0.632882
     13          6           0        0.145175   -1.846907    1.587953
     14          1           0        2.559047   -0.492342    1.660955
     15          1           0        1.574275    0.187442    0.368965
     16          1           0        1.961180   -2.798964    0.903390
     17          1           0        0.977108   -2.120394   -0.388409
     18          1           0       -0.502412   -1.006846    1.316791
     19          1           0        0.487251   -1.689272    2.615929
     20          1           0       -0.457456   -2.760290    1.567235
     21          6           0       -2.563660    1.257612    0.319572
     22          6           0       -1.275130    1.953634   -0.120007
     23          6           0       -0.825723    3.038655    0.859051
     24          1           0       -3.359132    2.007479    0.428526
     25          1           0       -2.412462    0.815564    1.314121
     26          1           0       -1.428278    2.393051   -1.114027
     27          1           0       -0.482683    1.201997   -0.228113
     28          1           0       -0.645472    2.611808    1.850975
     29          1           0       -1.596440    3.809629    0.960028
     30          1           0        0.097185    3.523194    0.525401
     31          6           0       -3.025688    0.170364   -0.649009
     32          6           0       -4.314219   -0.525656   -0.209430
     33          6           0       -4.763626   -1.610678   -1.188489
     34          1           0       -3.176887    0.612412   -1.643558
     35          1           0       -2.230217   -0.579502   -0.757964
     36          1           0       -5.106665    0.225979   -0.101325
     37          1           0       -4.161070   -0.965074    0.784589
     38          1           0       -3.992910   -2.381652   -1.289465
     39          1           0       -4.943877   -1.183832   -2.180413
     40          1           0       -5.686533   -2.095217   -0.854839
 ---------------------------------------------------------------------

 SCF Done:  E(RHF) =  -470.732850201     A.U. after   11 cycles
 E2 =    -0.1584445222D+01 EUMP2 =    -0.47231729542210D+03

 The electronic state is 1-A.
 Alpha  occ. eigenvalues --  -11.21662 -11.21638 -11.21614 -11.21598 -11.21428
 Alpha  occ. eigenvalues --  -11.21426 -11.21368 -11.21365 -11.21130 -11.21098
 Alpha  occ. eigenvalues --  -11.21079 -11.21068  -1.08502  -1.08426  -1.03588
 Alpha  occ. eigenvalues --   -1.03534  -0.96047  -0.95970  -0.87038  -0.87012
 Alpha  occ. eigenvalues --   -0.79650  -0.79605  -0.78337  -0.78217  -0.65410
 Alpha  occ. eigenvalues --   -0.64855  -0.61107  -0.60805  -0.59396  -0.59346
 Alpha  occ. eigenvalues --   -0.57649  -0.57595  -0.55528  -0.55078  -0.52715
 Alpha  occ. eigenvalues --   -0.52686  -0.52465  -0.52394  -0.49963  -0.49952
 Alpha  occ. eigenvalues --   -0.48041  -0.47873  -0.46821  -0.46603  -0.46038
 Alpha  occ. eigenvalues --   -0.45783  -0.45740  -0.45327  -0.43819  -0.43802
 Alpha virt. eigenvalues --    0.19478   0.22872   0.23796   0.24483   0.26109
 Alpha virt. eigenvalues --    0.26253   0.26997   0.27900   0.28581   0.29687
 Alpha virt. eigenvalues --    0.30765   0.31615   0.31705   0.31795   0.31898

 Mulliken charges:
               1
     1  C   -0.297757
     2  C   -0.299702
     3  C   -0.475750
     4  H    0.149747
     5  H    0.149570
     6  H    0.152036
     7  H    0.151987
     8  H    0.155264
     9  H    0.155190
    10  H    0.160323
    11  C   -0.306852
    12  C   -0.299530
    13  C   -0.483798
    14  H    0.149835
    15  H    0.157421
    16  H    0.152553
    17  H    0.151652
    18  H    0.162804
    19  H    0.155470
    20  H    0.160251
    21  C   -0.300662
    22  C   -0.308574
    23  C   -0.475462
    24  H    0.150732
    25  H    0.151111
    26  H    0.152408
    27  H    0.157919
    28  H    0.155997
    29  H    0.155523
    30  H    0.160076
    31  C   -0.300527
    32  C   -0.299663
    33  C   -0.475792
    34  H    0.149587
    35  H    0.151389
    36  H    0.151904
    37  H    0.152678
    38  H    0.155314
    39  H    0.155020
    40  H    0.160307
 Sum of Mulliken charges =  -0.00000

 Dipole moment (field-independent basis, Debye):
    X=              0.0004    Y=              0.0094    Z=              0.0099  Tot=              0.0136
 Quadrupole moment (field-independent basis, Debye-Ang):
   XX=            -85.1258   YY=            -84.8197   ZZ=            -84.7380
   XY=             -1.0606   XZ=              1.0051   YZ=             -1.0823

 Normal termination of Gaussian 16 at Wed May  5 23:02:51 2021.
