 Gaussian 16, Revision A.03,
 Gaussian 16:  EM64L-G16RevA.03 25-Dec-2016

 -------------
 #p 6-31g* mp2
 -------------

 ------------------------------------------------------
 Input file generated by CHIRIPA (05-May-2021 14:51:09)
 ------------------------------------------------------
 Symbolic Z-matrix:
 Charge =  0 Multiplicity = 1

                         Standard orientation:
 ---------------------------------------------------------------------
 Center     Atomic      Atomic             Coordinates (Angstroms)
 Number     Number       Type             X           Y           Z
 ---------------------------------------------------------------------
      1          6           0        2.912027   -0.205511    0.657401
      2          6           0        2.251550    1.118757    1.042198
      3          6           0        0.892108    0.927687    1.715402
      4          1           0        2.243003   -0.759872   -0.014934
      5          1           0        3.031556   -0.823045    1.558379
      6          1           0        2.134563    1.734173    0.140981
      7          1           0        2.922308    1.670115    1.713543
      8          1           0        0.995112    0.335040    2.630148
      9          1           0        0.202890    0.399462    1.048650
     10          1           0        0.437790    1.887035    1.982062
     11          6           0        4.271785   -0.030971   -0.016633
     12          6           0        4.932262   -1.355239   -0.401430
     13          6           0        6.291704   -1.164170   -1.074633
     14          1           0        4.152256    0.586562   -0.917611
     15          1           0        4.940809    0.523390    0.655702
     16          1           0        4.261504   -1.906598   -1.072775
     17          1           0        5.049249   -1.970655    0.499788
     18          1           0        6.980922   -0.635944   -0.407882
     19          1           0        6.188700   -0.571522   -1.989380
     20          1           0        6.746022   -2.123517   -1.341294
     21          6           0       -4.263591   -0.221636   -0.449822
     22          6           0       -4.480992   -1.476807    0.395914
     23          6           0       -5.829167   -2.145526    0.125675
     24          1           0       -5.074873    0.491921   -0.250819
     25          1           0       -4.335279   -0.487726   -1.513519
     26          1           0       -4.407541   -1.208683    1.457672
     27          1           0       -3.668993   -2.187381    0.195017
     28          1           0       -5.908816   -2.440973   -0.925499
     29          1           0       -6.651560   -1.456715    0.344329
     30          1           0       -5.963753   -3.040705    0.740817
     31          6           0       -2.920220    0.458118   -0.190946
     32          6           0       -2.702821    1.713289   -1.036682
     33          6           0       -1.354644    2.382008   -0.766444
     34          1           0       -2.848533    0.724208    0.872750
     35          1           0       -2.108939   -0.255439   -0.389949
     36          1           0       -3.514819    2.423863   -0.835785
     37          1           0       -2.776270    1.445165   -2.098441
     38          1           0       -0.532252    1.693197   -0.985098
     39          1           0       -1.274996    2.677455    0.284732
     40          1           0       -1.220058    3.277187   -1.381585
 ---------------------------------------------------------------------

 SCF Done:  E(RHF) =  -470.732095134     A.U. after   11 cycles
 E2 =    -0.1583713140D+01 EUMP2 =    -0.47231580827405D+03

 The electronic state is 1-A.
 Alpha  occ. eigenvalues --  -11.21597 -11.21592 -11.21589 -11.21528 -11.21410
 Alpha  occ. eigenvalues --  -11.21379 -11.21350 -11.21320 -11.21068 -11.21061
 Alpha  occ. eigenvalues --  -11.20993 -11.20899  -1.08442  -1.08385  -1.03571
 Alpha  occ. eigenvalues --   -1.03435  -0.96041  -0.95862  -0.87062  -0.86879
 Alpha  occ. eigenvalues --   -0.79664  -0.79478  -0.78269  -0.78182  -0.65094
 Alpha  occ. eigenvalues --   -0.65007  -0.61019  -0.60841  -0.59385  -0.59274
 Alpha  occ. eigenvalues --   -0.57676  -0.57456  -0.55307  -0.55183  -0.52725
 Alpha  occ. eigenvalues --   -0.52668  -0.52399  -0.52216  -0.49916  -0.49904
 Alpha  occ. eigenvalues --   -0.47913  -0.47797  -0.46614  -0.46598  -0.45858
 Alpha  occ. eigenvalues --   -0.45715  -0.45684  -0.45545  -0.43781  -0.43714
 Alpha virt. eigenvalues --    0.21287   0.23033   0.23553   0.24990   0.25531
 Alpha virt. eigenvalues --    0.26598   0.26779   0.27518   0.28044   0.29155
 Alpha virt. eigenvalues --    0.29844   0.30919   0.31338   0.31893   0.32586

 Mulliken charges:
               1
     1  C   -0.298168
     2  C   -0.302329
     3  C   -0.477812
     4  H    0.148487
     5  H    0.149656
     6  H    0.153581
     7  H    0.151726
     8  H    0.153327
     9  H    0.160680
    10  H    0.160076
    11  C   -0.298224
    12  C   -0.299589
    13  C   -0.475683
    14  H    0.149434
    15  H    0.149725
    16  H    0.151691
    17  H    0.151926
    18  H    0.155204
    19  H    0.155147
    20  H    0.160168
    21  C   -0.298175
    22  C   -0.299657
    23  C   -0.475714
    24  H    0.149775
    25  H    0.149382
    26  H    0.152232
    27  H    0.151849
    28  H    0.155110
    29  H    0.155182
    30  H    0.160301
    31  C   -0.299983
    32  C   -0.299815
    33  C   -0.477812
    34  H    0.151368
    35  H    0.149265
    36  H    0.151798
    37  H    0.151381
    38  H    0.156634
    39  H    0.158759
    40  H    0.159097
 Sum of Mulliken charges =  -0.00000

 Dipole moment (field-independent basis, Debye):
    X=             -0.0275    Y=              0.0152    Z=              0.0085  Tot=              0.0325
 Quadrupole moment (field-independent basis, Debye-Ang):
   XX=            -86.3199   YY=            -84.8455   ZZ=            -83.7475
   XY=             -0.7960   XZ=              0.4456   YZ=              0.3790

 Normal termination of Gaussian 16 at Wed May  5 21:23:01 2021.
