 Gaussian 16, Revision A.03,
 Gaussian 16:  EM64L-G16RevA.03 25-Dec-2016

 -------------
 #p 6-31g* mp2
 -------------

 ------------------------------------------------------
 Input file generated by CHIRIPA (05-May-2021 14:51:14)
 ------------------------------------------------------
 Symbolic Z-matrix:
 Charge =  0 Multiplicity = 1

                         Standard orientation:
 ---------------------------------------------------------------------
 Center     Atomic      Atomic             Coordinates (Angstroms)
 Number     Number       Type             X           Y           Z
 ---------------------------------------------------------------------
      1          6           0        3.234826   -0.373873   -0.393521
      2          6           0        4.410193    0.125716    0.447257
      3          6           0        5.399496    0.966528   -0.360275
      4          1           0        3.619742   -0.965779   -1.235204
      5          1           0        2.713002    0.488645   -0.830737
      6          1           0        4.928814   -0.737423    0.883880
      7          1           0        4.022424    0.716342    1.287145
      8          1           0        4.902475    1.845453   -0.783434
      9          1           0        5.814015    0.383427   -1.188990
     10          1           0        6.231732    1.313290    0.260208
     11          6           0        2.237169   -1.215945    0.399777
     12          6           0        1.061801   -1.715534   -0.441001
     13          6           0        0.072498   -2.556346    0.366532
     14          1           0        2.758992   -2.078463    0.836994
     15          1           0        1.852252   -0.624038    1.241460
     16          1           0        1.449570   -2.306160   -1.280888
     17          1           0        0.543180   -0.852394   -0.877623
     18          1           0       -0.342020   -1.973245    1.195247
     19          1           0        0.569519   -3.435270    0.789690
     20          1           0       -0.759737   -2.903108   -0.253952
     21          6           0       -2.935081    0.130128    0.316032
     22          6           0       -3.762658   -0.762851   -0.609004
     23          6           0       -4.153276   -2.089199    0.043693
     24          1           0       -2.028981   -0.410190    0.622598
     25          1           0       -3.507410    0.326312    1.233282
     26          1           0       -3.189498   -0.956158   -1.524830
     27          1           0       -4.666800   -0.220274   -0.913557
     28          1           0       -4.746649   -1.914054    0.946928
     29          1           0       -3.260955   -2.654121    0.332182
     30          1           0       -4.744333   -2.711942   -0.635058
     31          6           0       -2.536913    1.459690   -0.322289
     32          6           0       -1.709337    2.352669    0.602747
     33          6           0       -1.318718    3.679016   -0.049949
     34          1           0       -1.964585    1.263506   -1.239539
     35          1           0       -3.443014    2.000008   -0.628855
     36          1           0       -0.805195    1.810091    0.907300
     37          1           0       -2.282496    2.545975    1.518574
     38          1           0       -2.211041    4.243938   -0.338439
     39          1           0       -0.725345    3.503872   -0.953185
     40          1           0       -0.727661    4.301760    0.628801
 ---------------------------------------------------------------------

 SCF Done:  E(RHF) =  -470.732748585     A.U. after   11 cycles
 E2 =    -0.1584151089D+01 EUMP2 =    -0.47231689967377D+03

 The electronic state is 1-A.
 Alpha  occ. eigenvalues --  -11.21716 -11.21643 -11.21641 -11.21561 -11.21481
 Alpha  occ. eigenvalues --  -11.21417 -11.21386 -11.21280 -11.21174 -11.21108
 Alpha  occ. eigenvalues --  -11.21100 -11.20996  -1.08518  -1.08406  -1.03622
 Alpha  occ. eigenvalues --   -1.03510  -0.96063  -0.95965  -0.87083  -0.86982
 Alpha  occ. eigenvalues --   -0.79697  -0.79566  -0.78326  -0.78220  -0.65336
 Alpha  occ. eigenvalues --   -0.64897  -0.61097  -0.60871  -0.59439  -0.59302
 Alpha  occ. eigenvalues --   -0.57691  -0.57553  -0.55467  -0.55162  -0.52772
 Alpha  occ. eigenvalues --   -0.52660  -0.52509  -0.52341  -0.50110  -0.49834
 Alpha  occ. eigenvalues --   -0.47988  -0.47891  -0.46783  -0.46579  -0.45929
 Alpha  occ. eigenvalues --   -0.45812  -0.45716  -0.45501  -0.43844  -0.43767
 Alpha virt. eigenvalues --    0.19296   0.22720   0.23769   0.24552   0.26095
 Alpha virt. eigenvalues --    0.26391   0.26968   0.27746   0.28136   0.29730
 Alpha virt. eigenvalues --    0.30324   0.31259   0.31761   0.32001   0.32340

 Mulliken charges:
               1
     1  C   -0.298343
     2  C   -0.299717
     3  C   -0.475787
     4  H    0.149841
     5  H    0.149465
     6  H    0.152048
     7  H    0.152132
     8  H    0.155371
     9  H    0.155214
    10  H    0.160448
    11  C   -0.298768
    12  C   -0.302255
    13  C   -0.482262
    14  H    0.150080
    15  H    0.149787
    16  H    0.152771
    17  H    0.152938
    18  H    0.157217
    19  H    0.156771
    20  H    0.163870
    21  C   -0.307293
    22  C   -0.298947
    23  C   -0.480451
    24  H    0.160557
    25  H    0.148899
    26  H    0.151253
    27  H    0.151771
    28  H    0.154924
    29  H    0.160034
    30  H    0.159695
    31  C   -0.298189
    32  C   -0.300063
    33  C   -0.475629
    34  H    0.149254
    35  H    0.149718
    36  H    0.150782
    37  H    0.152250
    38  H    0.155568
    39  H    0.154870
    40  H    0.160177
 Sum of Mulliken charges =  -0.00000

 Dipole moment (field-independent basis, Debye):
    X=              0.0451    Y=             -0.0311    Z=              0.0126  Tot=              0.0562
 Quadrupole moment (field-independent basis, Debye-Ang):
   XX=            -84.6230   YY=            -85.2176   ZZ=            -84.9315
   XY=             -1.7214   XZ=              0.0115   YZ=              0.9559

 Normal termination of Gaussian 16 at Wed May  5 18:25:22 2021.
