 Gaussian 16, Revision A.03,
 Gaussian 16:  EM64L-G16RevA.03 25-Dec-2016

 -------------
 #p 6-31g* mp2
 -------------

 ------------------------------------------------------
 Input file generated by CHIRIPA (05-May-2021 14:51:09)
 ------------------------------------------------------
 Symbolic Z-matrix:
 Charge =  0 Multiplicity = 1

                         Standard orientation:
 ---------------------------------------------------------------------
 Center     Atomic      Atomic             Coordinates (Angstroms)
 Number     Number       Type             X           Y           Z
 ---------------------------------------------------------------------
      1          6           0        3.291423    1.066341    0.163269
      2          6           0        1.855651    0.870891   -0.324937
      3          6           0        0.931075    2.018157    0.083394
      4          1           0        3.289574    1.166010    1.257347
      5          1           0        3.681496    2.012756   -0.236153
      6          1           0        1.468879   -0.075547    0.074159
      7          1           0        1.860939    0.771484   -1.417963
      8          1           0        1.290363    2.967288   -0.327292
      9          1           0        0.896075    2.115444    1.173308
     10          1           0       -0.090258    1.857985   -0.275889
     11          6           0        4.227752   -0.072386   -0.237127
     12          6           0        5.663524    0.123064    0.251078
     13          6           0        6.588101   -1.024201   -0.157253
     14          1           0        3.837679   -1.018800    0.162294
     15          1           0        4.229602   -0.172055   -1.331206
     16          1           0        5.658236    0.222471    1.344104
     17          1           0        6.050297    1.069503   -0.148017
     18          1           0        6.623101   -1.121489   -1.247166
     19          1           0        6.228813   -1.973332    0.253433
     20          1           0        7.609433   -0.864029    0.202031
     21          6           0       -4.343793   -0.126215    0.360459
     22          6           0       -5.521423    0.096055   -0.589155
     23          6           0       -6.682388    0.839029    0.072618
     24          1           0       -4.689620   -0.690278    1.237490
     25          1           0       -3.993293    0.846411    0.732674
     26          1           0       -5.868710   -0.876610   -0.960545
     27          1           0       -5.172711    0.659488   -1.464118
     28          1           0       -6.357902    1.822455    0.427841
     29          1           0       -7.057855    0.277628    0.934276
     30          1           0       -7.513407    0.987181   -0.624030
     31          6           0       -3.175383   -0.867740   -0.286601
     32          6           0       -1.997752   -1.090010    0.663014
     33          6           0       -0.836787   -1.832985    0.001241
     34          1           0       -3.525882   -1.840366   -0.658815
     35          1           0       -2.829556   -0.303678   -1.163631
     36          1           0       -2.346464   -1.653443    1.537976
     37          1           0       -1.650466   -0.117345    1.034403
     38          1           0       -0.461320   -1.271584   -0.860417
     39          1           0       -1.161274   -2.816411   -0.353982
     40          1           0       -0.005768   -1.981136    0.697888
 ---------------------------------------------------------------------

 SCF Done:  E(RHF) =  -470.732459825     A.U. after   11 cycles
 E2 =    -0.1583561662D+01 EUMP2 =    -0.47231602148721D+03

 The electronic state is 1-A.
 Alpha  occ. eigenvalues --  -11.21604 -11.21597 -11.21582 -11.21485 -11.21414
 Alpha  occ. eigenvalues --  -11.21371 -11.21354 -11.21309 -11.21085 -11.21070
 Alpha  occ. eigenvalues --  -11.21056 -11.21055  -1.08450  -1.08387  -1.03591
 Alpha  occ. eigenvalues --   -1.03454  -0.96033  -0.95925  -0.87048  -0.86946
 Alpha  occ. eigenvalues --   -0.79708  -0.79471  -0.78265  -0.78191  -0.65153
 Alpha  occ. eigenvalues --   -0.64975  -0.61173  -0.60762  -0.59414  -0.59237
 Alpha  occ. eigenvalues --   -0.57609  -0.57562  -0.55362  -0.55133  -0.52731
 Alpha  occ. eigenvalues --   -0.52645  -0.52414  -0.52375  -0.50074  -0.49816
 Alpha  occ. eigenvalues --   -0.47915  -0.47877  -0.46758  -0.46449  -0.45817
 Alpha  occ. eigenvalues --   -0.45745  -0.45707  -0.45569  -0.43792  -0.43721
 Alpha virt. eigenvalues --    0.20541   0.22970   0.23664   0.25375   0.25869
 Alpha virt. eigenvalues --    0.26553   0.26764   0.27517   0.28194   0.29252
 Alpha virt. eigenvalues --    0.30194   0.31356   0.31600   0.31844   0.32584

 Mulliken charges:
               1
     1  C   -0.297808
     2  C   -0.307566
     3  C   -0.477079
     4  H    0.149139
     5  H    0.148967
     6  H    0.163544
     7  H    0.150326
     8  H    0.155146
     9  H    0.154866
    10  H    0.160270
    11  C   -0.298175
    12  C   -0.299597
    13  C   -0.475682
    14  H    0.149312
    15  H    0.149630
    16  H    0.151815
    17  H    0.151899
    18  H    0.155172
    19  H    0.155173
    20  H    0.160161
    21  C   -0.298339
    22  C   -0.299659
    23  C   -0.475731
    24  H    0.149708
    25  H    0.149663
    26  H    0.151929
    27  H    0.151927
    28  H    0.155293
    29  H    0.155170
    30  H    0.160264
    31  C   -0.298801
    32  C   -0.303373
    33  C   -0.479260
    34  H    0.149744
    35  H    0.149497
    36  H    0.151918
    37  H    0.155758
    38  H    0.159981
    39  H    0.155642
    40  H    0.159158
 Sum of Mulliken charges =  -0.00000

 Dipole moment (field-independent basis, Debye):
    X=             -0.0170    Y=             -0.0251    Z=              0.0004  Tot=              0.0303
 Quadrupole moment (field-independent basis, Debye-Ang):
   XX=            -86.1743   YY=            -84.6636   ZZ=            -84.1102
   XY=              1.4973   XZ=              0.1575   YZ=             -1.0298

 Normal termination of Gaussian 16 at Thu May  6 02:07:33 2021.
