 Gaussian 16, Revision A.03,
 Gaussian 16:  EM64L-G16RevA.03 25-Dec-2016

 -------------
 #p 6-31g* mp2
 -------------

 ------------------------------------------------------
 Input file generated by CHIRIPA (05-May-2021 14:53:14)
 ------------------------------------------------------
 Symbolic Z-matrix:
 Charge =  0 Multiplicity = 1

                         Standard orientation:
 ---------------------------------------------------------------------
 Center     Atomic      Atomic             Coordinates (Angstroms)
 Number     Number       Type             X           Y           Z
 ---------------------------------------------------------------------
      1          6           0       -3.584177   -0.329391    0.144853
      2          6           0       -3.291822   -1.652613    0.853089
      3          6           0       -1.804867   -2.008636    0.850382
      4          1           0       -3.221367   -0.387022   -0.890518
      5          1           0       -3.013155    0.473154    0.631937
      6          1           0       -3.864294   -2.452193    0.365684
      7          1           0       -3.655542   -1.591894    1.886838
      8          1           0       -1.221715   -1.231340    1.354709
      9          1           0       -1.431653   -2.096527   -0.175088
     10          1           0       -1.618465   -2.958143    1.361802
     11          6           0       -5.066446    0.040167    0.139262
     12          6           0       -5.358801    1.363388   -0.568974
     13          6           0       -6.845756    1.719412   -0.566267
     14          1           0       -5.637468   -0.762378   -0.347822
     15          1           0       -5.429257    0.097797    1.174633
     16          1           0       -4.995081    1.302669   -1.602723
     17          1           0       -4.786329    2.162968   -0.081569
     18          1           0       -7.218970    1.807303    0.459202
     19          1           0       -7.428908    0.942116   -1.070594
     20          1           0       -7.032158    2.668919   -1.077687
     21          6           0        4.606950    2.250208    0.428165
     22          6           0        5.322451    1.104103    0.066188
     23          6           0        4.652609   -0.085585   -0.234650
     24          6           0        3.260450   -0.093641   -0.163105
     25          6           0        2.519401    1.031686    0.194352
     26          6           0        3.210172    2.210410    0.490980
     27          1           0        5.135429    3.170128    0.660227
     28          1           0        6.407255    1.132088    0.016575
     29          1           0        5.181659   -0.987477   -0.517694
     30          1           0        1.438514    0.972998    0.235076
     31          1           0        2.651899    3.098958    0.771801
     32          7           0        2.540241   -1.347308   -0.479361
     33          8           0        1.313324   -1.328410   -0.408957
     34          8           0        3.216294   -2.325091   -0.791656
 ---------------------------------------------------------------------

 SCF Done:  E(RHF) =  -669.535488106     A.U. after   15 cycles
 E2 =    -0.2091077643D+01 EUMP2 =    -0.67162656574943D+03

 The electronic state is 1-A.
 Alpha  occ. eigenvalues --  -20.60832 -20.60825 -15.85869 -11.31233 -11.27802
 Alpha  occ. eigenvalues --  -11.27798 -11.27547 -11.26819 -11.26809 -11.21295
 Alpha  occ. eigenvalues --  -11.20930 -11.20829 -11.20767 -11.20676 -11.19642
 Alpha  occ. eigenvalues --   -1.59900  -1.39455  -1.19406  -1.08804  -1.07857
 Alpha  occ. eigenvalues --   -1.04808  -1.02855  -0.95649  -0.95261  -0.86281
 Alpha  occ. eigenvalues --   -0.86202  -0.82473  -0.78947  -0.77670  -0.77481
 Alpha  occ. eigenvalues --   -0.72094  -0.71217  -0.70515  -0.65061  -0.64812
 Alpha  occ. eigenvalues --   -0.64499  -0.62156  -0.60258  -0.58718  -0.56874
 Alpha  occ. eigenvalues --   -0.55312  -0.54554  -0.53139  -0.52901  -0.51953
 Alpha  occ. eigenvalues --   -0.51669  -0.49259  -0.48855  -0.48807  -0.47208
 Alpha  occ. eigenvalues --   -0.46000  -0.45188  -0.45087  -0.44816  -0.43124
 Alpha  occ. eigenvalues --   -0.37388  -0.36412
 Alpha virt. eigenvalues --    0.05003   0.11241   0.16488   0.21257   0.23347
 Alpha virt. eigenvalues --    0.24790   0.26786   0.27390   0.27710   0.28165
 Alpha virt. eigenvalues --    0.29120   0.30851   0.31760   0.32265   0.32709

 Mulliken charges:
               1
     1  C   -0.296266
     2  C   -0.301748
     3  C   -0.470909
     4  H    0.151394
     5  H    0.143594
     6  H    0.149690
     7  H    0.146456
     8  H    0.149815
     9  H    0.173125
    10  H    0.156836
    11  C   -0.297532
    12  C   -0.298883
    13  C   -0.475290
    14  H    0.149612
    15  H    0.148070
    16  H    0.151841
    17  H    0.148996
    18  H    0.154421
    19  H    0.155451
    20  H    0.158525
    21  C   -0.170723
    22  C   -0.218596
    23  C   -0.170673
    24  C    0.157729
    25  C   -0.171207
    26  C   -0.218579
    27  H    0.225749
    28  H    0.223585
    29  H    0.275731
    30  H    0.276118
    31  H    0.223628
    32  N    0.493343
    33  O   -0.463286
    34  O   -0.460016
 Sum of Mulliken charges =  -0.00000

 Dipole moment (field-independent basis, Debye):
    X=              2.7819    Y=              4.3308    Z=              1.0258  Tot=              5.2485
 Quadrupole moment (field-independent basis, Debye-Ang):
   XX=            -76.5502   YY=            -94.9227   ZZ=            -95.2399
   XY=             12.7099   XZ=              2.6709   YZ=              0.3516

 Normal termination of Gaussian 16 at Thu May  6 20:22:21 2021.
