 Gaussian 16, Revision A.03,
 Gaussian 16:  EM64L-G16RevA.03 25-Dec-2016

 -------------
 #p 6-31g* mp2
 -------------

 ------------------------------------------------------
 Input file generated by CHIRIPA (05-May-2021 14:55:19)
 ------------------------------------------------------
 Symbolic Z-matrix:
 Charge =  0 Multiplicity = 1

                         Standard orientation:
 ---------------------------------------------------------------------
 Center     Atomic      Atomic             Coordinates (Angstroms)
 Number     Number       Type             X           Y           Z
 ---------------------------------------------------------------------
      1          6           0       -2.058921    1.953890    1.207442
      2          6           0       -3.381659    1.612173    1.507635
      3          6           0       -3.980267    0.498646    0.910749
      4          6           0       -3.223556   -0.254321    0.014245
      5          6           0       -1.903679    0.060507   -0.305282
      6          6           0       -1.325446    1.178333    0.303535
      7          1           0       -1.601822    2.820575    1.675751
      8          1           0       -3.953684    2.212655    2.209243
      9          1           0       -5.002521    0.211482    1.125115
     10          1           0       -1.358728   -0.557321   -1.008656
     11          1           0       -0.298006    1.441344    0.068511
     12          7           0       -3.846491   -1.435438   -0.623967
     13          8           0       -3.158492   -2.082561   -1.410432
     14          8           0       -5.010951   -1.691711   -0.325649
     15          6           0        4.052036   -0.681629   -0.078053
     16          6           0        5.174349   -1.114661    0.865813
     17          6           0        5.276375   -2.633859    1.005168
     18          1           0        3.097444   -1.082493    0.289378
     19          1           0        4.219954   -1.130991   -1.066624
     20          1           0        5.005113   -0.663498    1.851930
     21          1           0        6.126355   -0.712559    0.496198
     22          1           0        5.469114   -3.097859    0.032462
     23          1           0        4.341501   -3.048520    1.395897
     24          1           0        6.085035   -2.921301    1.684362
     25          6           0        3.937440    0.834355   -0.227687
     26          6           0        2.815127    1.267386   -1.171552
     27          6           0        2.713102    2.786585   -1.310907
     28          1           0        3.769523    1.283717    0.760883
     29          1           0        4.892034    1.235219   -0.595118
     30          1           0        1.863122    0.865283   -0.801937
     31          1           0        2.984364    0.816223   -2.157669
     32          1           0        3.647975    3.201245   -1.701637
     33          1           0        2.520363    3.250584   -0.338201
     34          1           0        1.904441    3.074026   -1.990102
 ---------------------------------------------------------------------

 SCF Done:  E(RHF) =  -669.535506525     A.U. after   15 cycles
 E2 =    -0.2091103045D+01 EUMP2 =    -0.67162660957002D+03

 The electronic state is 1-A.
 Alpha  occ. eigenvalues --  -20.60741 -20.60736 -15.85795 -11.31160 -11.27730
 Alpha  occ. eigenvalues --  -11.27719 -11.27470 -11.26747 -11.26710 -11.22565
 Alpha  occ. eigenvalues --  -11.22088 -11.22004 -11.21996 -11.21888 -11.21345
 Alpha  occ. eigenvalues --   -1.59817  -1.39370  -1.19331  -1.09079  -1.08727
 Alpha  occ. eigenvalues --   -1.04736  -1.04173  -0.96598  -0.95562  -0.87613
 Alpha  occ. eigenvalues --   -0.86134  -0.82398  -0.80261  -0.78853  -0.77441
 Alpha  occ. eigenvalues --   -0.72013  -0.71140  -0.70441  -0.65762  -0.64983
 Alpha  occ. eigenvalues --   -0.64731  -0.62160  -0.61502  -0.59985  -0.58199
 Alpha  occ. eigenvalues --   -0.55887  -0.55233  -0.53303  -0.53067  -0.53009
 Alpha  occ. eigenvalues --   -0.52828  -0.50544  -0.48779  -0.48768  -0.48547
 Alpha  occ. eigenvalues --   -0.47303  -0.46393  -0.46297  -0.44776  -0.44408
 Alpha  occ. eigenvalues --   -0.37314  -0.36338
 Alpha virt. eigenvalues --    0.05091   0.11310   0.16575   0.19155   0.22738
 Alpha virt. eigenvalues --    0.23640   0.25362   0.26463   0.27136   0.28450
 Alpha virt. eigenvalues --    0.28705   0.30510   0.31075   0.31133   0.32127

 Mulliken charges:
               1
     1  C   -0.171927
     2  C   -0.218437
     3  C   -0.171180
     4  C    0.158654
     5  C   -0.173351
     6  C   -0.226647
     7  H    0.225994
     8  H    0.223246
     9  H    0.275511
    10  H    0.275509
    11  H    0.234683
    12  N    0.488102
    13  O   -0.460350
    14  O   -0.460634
    15  C   -0.299054
    16  C   -0.300112
    17  C   -0.476262
    18  H    0.149267
    19  H    0.152069
    20  H    0.151664
    21  H    0.152790
    22  H    0.156622
    23  H    0.156511
    24  H    0.161470
    25  C   -0.297957
    26  C   -0.304643
    27  C   -0.477842
    28  H    0.148336
    29  H    0.152940
    30  H    0.142727
    31  H    0.158329
    32  H    0.161086
    33  H    0.151499
    34  H    0.161386
 Sum of Mulliken charges =  -0.00000

 Dipole moment (field-independent basis, Debye):
    X=              2.4005    Y=              4.1428    Z=              2.2102  Tot=              5.2735
 Quadrupole moment (field-independent basis, Debye-Ang):
   XX=           -104.2600   YY=            -98.4334   ZZ=            -93.3629
   XY=            -14.7937   XZ=            -10.5166   YZ=              0.2116

 Normal termination of Gaussian 16 at Thu May  6 04:29:44 2021.
