 Gaussian 16, Revision A.03,
 Gaussian 16:  EM64L-G16RevA.03 25-Dec-2016

 -------------
 #p 6-31g* mp2
 -------------

 ------------------------------------------------------
 Input file generated by CHIRIPA (05-May-2021 14:51:12)
 ------------------------------------------------------
 Symbolic Z-matrix:
 Charge =  0 Multiplicity = 1

                         Standard orientation:
 ---------------------------------------------------------------------
 Center     Atomic      Atomic             Coordinates (Angstroms)
 Number     Number       Type             X           Y           Z
 ---------------------------------------------------------------------
      1          6           0        3.876327   -0.105353   -0.031768
      2          6           0        4.223012    1.301088   -0.521376
      3          6           0        5.607723    1.378347   -1.165117
      4          1           0        4.636712   -0.433185    0.690233
      5          1           0        3.927558   -0.803818   -0.878478
      6          1           0        4.169792    1.996929    0.325730
      7          1           0        3.461609    1.625686   -1.242152
      8          1           0        5.669649    0.706746   -2.027509
      9          1           0        6.381856    1.080098   -0.450718
     10          1           0        5.835051    2.392571   -1.507945
     11          6           0        2.495109   -0.198639    0.614190
     12          6           0        2.148423   -1.605081    1.103798
     13          6           0        0.763713   -1.682339    1.747539
     14          1           0        2.443877    0.499826    1.460900
     15          1           0        1.734724    0.129193   -0.107811
     16          1           0        2.909827   -1.929679    1.824574
     17          1           0        2.201643   -2.300921    0.256692
     18          1           0       -0.010420   -1.384091    1.033140
     19          1           0        0.701787   -1.010739    2.609931
     20          1           0        0.536384   -2.696564    2.090367
     21          6           0       -2.700190   -0.430296   -0.384109
     22          6           0       -3.367651   -1.696416   -0.922086
     23          6           0       -2.383423   -2.852494   -1.102575
     24          1           0       -1.897611   -0.126733   -1.070157
     25          1           0       -2.219905   -0.657720    0.577659
     26          1           0       -3.847713   -1.466332   -1.881887
     27          1           0       -4.168860   -1.996892   -0.234776
     28          1           0       -1.912927   -3.110423   -0.148266
     29          1           0       -1.589956   -2.576850   -1.804735
     30          1           0       -2.881700   -3.747488   -1.488018
     31          6           0       -3.671246    0.734289   -0.198312
     32          6           0       -3.003785    2.000409    0.339664
     33          6           0       -3.988012    3.156486    0.520154
     34          1           0       -4.151531    0.961713   -1.160082
     35          1           0       -4.473825    0.430726    0.487736
     36          1           0       -2.202575    2.300884   -0.347645
     37          1           0       -2.523722    1.770324    1.299464
     38          1           0       -4.781481    2.880842    1.222313
     39          1           0       -4.458509    3.414416   -0.434155
     40          1           0       -3.489735    4.051481    0.905597
 ---------------------------------------------------------------------

 SCF Done:  E(RHF) =  -470.733098642     A.U. after   11 cycles
 E2 =    -0.1583140425D+01 EUMP2 =    -0.47231623906700D+03

 The electronic state is 1-A.
 Alpha  occ. eigenvalues --  -11.21614 -11.21597 -11.21589 -11.21559 -11.21414
 Alpha  occ. eigenvalues --  -11.21378 -11.21355 -11.21317 -11.21070 -11.21068
 Alpha  occ. eigenvalues --  -11.21062 -11.20985  -1.08449  -1.08397  -1.03546
 Alpha  occ. eigenvalues --   -1.03490  -0.95986  -0.95953  -0.87006  -0.86971
 Alpha  occ. eigenvalues --   -0.79649  -0.79527  -0.78311  -0.78166  -0.65102
 Alpha  occ. eigenvalues --   -0.65011  -0.60992  -0.60848  -0.59360  -0.59320
 Alpha  occ. eigenvalues --   -0.57638  -0.57526  -0.55280  -0.55241  -0.52683
 Alpha  occ. eigenvalues --   -0.52651  -0.52486  -0.52313  -0.49953  -0.49914
 Alpha  occ. eigenvalues --   -0.48017  -0.47810  -0.46742  -0.46549  -0.45923
 Alpha  occ. eigenvalues --   -0.45752  -0.45692  -0.45374  -0.43792  -0.43757
 Alpha virt. eigenvalues --    0.21607   0.23136   0.23542   0.24945   0.25837
 Alpha virt. eigenvalues --    0.26101   0.27090   0.27665   0.28261   0.29296
 Alpha virt. eigenvalues --    0.30870   0.31030   0.31590   0.31929   0.32238

 Mulliken charges:
               1
     1  C   -0.298317
     2  C   -0.299571
     3  C   -0.475686
     4  H    0.149624
     5  H    0.149445
     6  H    0.151937
     7  H    0.151728
     8  H    0.155134
     9  H    0.155189
    10  H    0.160170
    11  C   -0.298465
    12  C   -0.299101
    13  C   -0.485026
    14  H    0.149408
    15  H    0.149914
    16  H    0.151569
    17  H    0.152108
    18  H    0.165874
    19  H    0.154068
    20  H    0.159270
    21  C   -0.304495
    22  C   -0.299218
    23  C   -0.478370
    24  H    0.148452
    25  H    0.156242
    26  H    0.151839
    27  H    0.152046
    28  H    0.158576
    29  H    0.154322
    30  H    0.160315
    31  C   -0.297556
    32  C   -0.299793
    33  C   -0.475728
    34  H    0.149459
    35  H    0.149768
    36  H    0.151770
    37  H    0.152470
    38  H    0.155199
    39  H    0.155110
    40  H    0.160320
 Sum of Mulliken charges =  -0.00000

 Dipole moment (field-independent basis, Debye):
    X=             -0.0298    Y=              0.0013    Z=              0.0038  Tot=              0.0301
 Quadrupole moment (field-independent basis, Debye-Ang):
   XX=            -85.9025   YY=            -85.5862   ZZ=            -83.3622
   XY=              0.5259   XZ=              0.7172   YZ=             -0.1395

 Normal termination of Gaussian 16 at Wed May  5 18:20:43 2021.
