 Gaussian 16, Revision A.03,
 Gaussian 16:  EM64L-G16RevA.03 25-Dec-2016

 -------------
 #p 6-31g* mp2
 -------------

 ------------------------------------------------------
 Input file generated by CHIRIPA (05-May-2021 14:57:23)
 ------------------------------------------------------
 Symbolic Z-matrix:
 Charge =  0 Multiplicity = 1

                         Standard orientation:
 ---------------------------------------------------------------------
 Center     Atomic      Atomic             Coordinates (Angstroms)
 Number     Number       Type             X           Y           Z
 ---------------------------------------------------------------------
      1          6           0       -4.196879    0.544851    1.179171
      2          6           0       -3.457994   -0.505014    1.734469
      3          6           0       -2.425889   -1.108063    1.009460
      4          6           0       -2.158455   -0.633997   -0.273906
      5          6           0       -2.876713    0.410108   -0.854629
      6          6           0       -3.904396    0.998262   -0.111330
      7          1           0       -4.996925    1.007528    1.749479
      8          1           0       -3.682923   -0.859203    2.736468
      9          1           0       -1.838066   -1.922510    1.415118
     10          1           0       -2.629129    0.741428   -1.855801
     11          1           0       -4.476566    1.813424   -0.545122
     12          7           0       -1.068152   -1.264534   -1.051122
     13          8           0       -0.852268   -0.828515   -2.179802
     14          8           0       -0.450102   -2.182828   -0.516906
     15          6           0        3.559998   -1.590037    0.760732
     16          6           0        3.178748   -1.361370   -0.565496
     17          6           0        2.501320   -0.190209   -0.917665
     18          6           0        2.220026    0.735042    0.086363
     19          6           0        2.586683    0.535987    1.416488
     20          6           0        3.263273   -0.642299    1.745754
     21          1           0        4.085914   -2.502590    1.025411
     22          1           0        3.407862   -2.095638   -1.332569
     23          1           0        2.194529    0.012204   -1.936648
     24          1           0        2.344315    1.286461    2.159093
     25          1           0        3.558137   -0.817224    2.776532
     26          7           0        1.503308    1.978669   -0.274340
     27          8           0        1.267286    2.778180    0.628828
     28          8           0        1.191137    2.130364   -1.453395
 ---------------------------------------------------------------------

 SCF Done:  E(RHF) =  -868.339328938     A.U. after   16 cycles
 E2 =    -0.2601345679D+01 EUMP2 =    -0.87094067461696D+03

 The electronic state is 1-A.
 Alpha  occ. eigenvalues --  -20.60783 -20.60748 -20.60134 -20.60090 -15.85765
 Alpha  occ. eigenvalues --  -15.85153 -11.30920 -11.30238 -11.27532 -11.27410
 Alpha  occ. eigenvalues --  -11.27206 -11.26897 -11.26641 -11.26536 -11.26492
 Alpha  occ. eigenvalues --  -11.26395 -11.25866 -11.25649  -1.59832  -1.59205
 Alpha  occ. eigenvalues --   -1.39383  -1.38756  -1.19083  -1.18403  -1.08529
 Alpha  occ. eigenvalues --   -1.07870  -1.04451  -1.03750  -0.95398  -0.94739
 Alpha  occ. eigenvalues --   -0.85865  -0.85186  -0.82234  -0.81571  -0.77299
 Alpha  occ. eigenvalues --   -0.76639  -0.72017  -0.71392  -0.71220  -0.70464
 Alpha  occ. eigenvalues --   -0.70200  -0.69528  -0.64743  -0.64466  -0.64064
 Alpha  occ. eigenvalues --   -0.63778  -0.61800  -0.61103  -0.54986  -0.54320
 Alpha  occ. eigenvalues --   -0.52801  -0.52548  -0.52104  -0.51860  -0.48783
 Alpha  occ. eigenvalues --   -0.48760  -0.48145  -0.48120  -0.44850  -0.44168
 Alpha  occ. eigenvalues --   -0.37073  -0.36406  -0.36029  -0.35258
 Alpha virt. eigenvalues --    0.05065   0.05989   0.11622   0.12319   0.16721
 Alpha virt. eigenvalues --    0.17411   0.21729   0.22380   0.27654   0.28306
 Alpha virt. eigenvalues --    0.28622   0.29287   0.31260   0.31855   0.32863

 Mulliken charges:
               1
     1  C   -0.169198
     2  C   -0.218619
     3  C   -0.171052
     4  C    0.155437
     5  C   -0.165404
     6  C   -0.217240
     7  H    0.225462
     8  H    0.221429
     9  H    0.272250
    10  H    0.280912
    11  H    0.225408
    12  N    0.486678
    13  O   -0.459003
    14  O   -0.465128
    15  C   -0.169278
    16  C   -0.207202
    17  C   -0.162581
    18  C    0.148275
    19  C   -0.173327
    20  C   -0.219737
    21  H    0.222562
    22  H    0.225567
    23  H    0.285075
    24  H    0.269941
    25  H    0.217910
    26  N    0.486291
    27  O   -0.467440
    28  O   -0.457990
 Sum of Mulliken charges =  -0.00000

 Dipole moment (field-independent basis, Debye):
    X=             -1.4535    Y=             -2.2460    Z=              3.6671  Tot=              4.5393
 Quadrupole moment (field-independent basis, Debye-Ang):
   XX=            -78.0473   YY=           -113.1830   ZZ=            -99.0208
   XY=            -11.9431   XZ=             -1.4319   YZ=             -2.9628

 Normal termination of Gaussian 16 at Thu May  6 08:10:35 2021.
