 Gaussian 16, Revision A.03,
 Gaussian 16:  EM64L-G16RevA.03 25-Dec-2016

 -------------
 #p 6-31g* mp2
 -------------

 ------------------------------------------------------
 Input file generated by CHIRIPA (05-May-2021 14:55:24)
 ------------------------------------------------------
 Symbolic Z-matrix:
 Charge =  0 Multiplicity = 1

                         Standard orientation:
 ---------------------------------------------------------------------
 Center     Atomic      Atomic             Coordinates (Angstroms)
 Number     Number       Type             X           Y           Z
 ---------------------------------------------------------------------
      1          6           0       -1.187947   -1.756818    1.079633
      2          6           0       -0.771616   -0.580620    0.447377
      3          6           0       -1.708123    0.298713   -0.104235
      4          6           0       -3.058984   -0.030899   -0.005130
      5          6           0       -3.505093   -1.195089    0.618519
      6          6           0       -2.550954   -2.059765    1.163039
      7          1           0       -0.453597   -2.434212    1.505384
      8          1           0        0.286253   -0.342779    0.381122
      9          1           0       -1.413439    1.216067   -0.599251
     10          1           0       -4.566585   -1.405109    0.668966
     11          1           0       -2.877177   -2.972505    1.653476
     12          7           0       -4.059756    0.892253   -0.585343
     13          8           0       -5.243994    0.579009   -0.484862
     14          8           0       -3.640973    1.911583   -1.129608
     15          6           0        3.540966   -0.334941   -0.598220
     16          6           0        4.190308   -1.663778   -0.210235
     17          6           0        3.854058   -2.792869   -1.184855
     18          1           0        2.451399   -0.466943   -0.646849
     19          1           0        3.867579   -0.056782   -1.609826
     20          1           0        3.863653   -1.938658    0.800880
     21          1           0        5.278441   -1.528550   -0.162337
     22          1           0        4.195188   -2.544191   -2.194998
     23          1           0        2.772362   -2.956628   -1.226308
     24          1           0        4.328491   -3.733595   -0.888531
     25          6           0        3.867789    0.803537    0.366550
     26          6           0        3.218447    2.132374   -0.021436
     27          6           0        3.554697    3.261465    0.953185
     28          1           0        3.541176    0.525378    1.378156
     29          1           0        4.957356    0.935539    0.415179
     30          1           0        2.130314    1.997147   -0.069333
     31          1           0        3.545101    2.407253   -1.032551
     32          1           0        4.636393    3.425224    0.994638
     33          1           0        3.213566    3.012787    1.963328
     34          1           0        3.080264    4.202191    0.656860
 ---------------------------------------------------------------------

 SCF Done:  E(RHF) =  -669.535435391     A.U. after   15 cycles
 E2 =    -0.2091502620D+01 EUMP2 =    -0.67162693801119D+03

 The electronic state is 1-A.
 Alpha  occ. eigenvalues --  -20.60757 -20.60752 -15.85811 -11.31184 -11.27758
 Alpha  occ. eigenvalues --  -11.27753 -11.27506 -11.26774 -11.26752 -11.22470
 Alpha  occ. eigenvalues --  -11.22391 -11.22358 -11.22214 -11.21838 -11.21634
 Alpha  occ. eigenvalues --   -1.59833  -1.39386  -1.19360  -1.09301  -1.08754
 Alpha  occ. eigenvalues --   -1.04765  -1.04306  -0.96744  -0.95587  -0.87753
 Alpha  occ. eigenvalues --   -0.86166  -0.82421  -0.80372  -0.79120  -0.77464
 Alpha  occ. eigenvalues --   -0.72030  -0.71156  -0.70470  -0.66032  -0.65013
 Alpha  occ. eigenvalues --   -0.64724  -0.62110  -0.61711  -0.60106  -0.58350
 Alpha  occ. eigenvalues --   -0.56052  -0.55263  -0.53403  -0.53173  -0.53090
 Alpha  occ. eigenvalues --   -0.52849  -0.50686  -0.48794  -0.48784  -0.48676
 Alpha  occ. eigenvalues --   -0.47430  -0.46632  -0.46573  -0.44790  -0.44584
 Alpha  occ. eigenvalues --   -0.37343  -0.36366
 Alpha virt. eigenvalues --    0.05071   0.11246   0.16540   0.18277   0.23021
 Alpha virt. eigenvalues --    0.23285   0.24793   0.26265   0.27099   0.27937
 Alpha virt. eigenvalues --    0.29500   0.30684   0.31112   0.31295   0.32170

 Mulliken charges:
               1
     1  C   -0.172905
     2  C   -0.227305
     3  C   -0.172967
     4  C    0.158863
     5  C   -0.170978
     6  C   -0.218422
     7  H    0.225823
     8  H    0.235232
     9  H    0.275891
    10  H    0.275659
    11  H    0.223440
    12  N    0.488064
    13  O   -0.460521
    14  O   -0.460288
    15  C   -0.303398
    16  C   -0.299891
    17  C   -0.475982
    18  H    0.142337
    19  H    0.155422
    20  H    0.148371
    21  H    0.156175
    22  H    0.158824
    23  H    0.152453
    24  H    0.162427
    25  C   -0.299531
    26  C   -0.299420
    27  C   -0.476302
    28  H    0.147400
    29  H    0.154182
    30  H    0.144069
    31  H    0.156137
    32  H    0.157353
    33  H    0.155560
    34  H    0.164230
 Sum of Mulliken charges =  -0.00000

 Dipole moment (field-independent basis, Debye):
    X=              3.7398    Y=             -3.2007    Z=              2.0071  Tot=              5.3159
 Quadrupole moment (field-independent basis, Debye-Ang):
   XX=           -112.1772   YY=            -93.5132   ZZ=            -95.1098
   XY=             12.7658   XZ=             -8.3411   YZ=             -1.7843

 Normal termination of Gaussian 16 at Thu May  6 06:22:42 2021.
