 Gaussian 16, Revision A.03,
 Gaussian 16:  EM64L-G16RevA.03 25-Dec-2016

 -------------
 #p 6-31g* mp2
 -------------

 ------------------------------------------------------
 Input file generated by CHIRIPA (05-May-2021 14:57:22)
 ------------------------------------------------------
 Symbolic Z-matrix:
 Charge =  0 Multiplicity = 1

                         Standard orientation:
 ---------------------------------------------------------------------
 Center     Atomic      Atomic             Coordinates (Angstroms)
 Number     Number       Type             X           Y           Z
 ---------------------------------------------------------------------
      1          6           0        1.104982    2.077031   -1.243694
      2          6           0        0.875952    0.744697   -1.602794
      3          6           0        1.628592   -0.284600   -1.029533
      4          6           0        2.606593    0.055892   -0.096328
      5          6           0        2.858481    1.373717    0.282060
      6          6           0        2.093772    2.386743   -0.304070
      7          1           0        0.515626    2.870294   -1.694015
      8          1           0        0.108706    0.501219   -2.332244
      9          1           0        1.472196   -1.324529   -1.289351
     10          1           0        3.630283    1.585322    1.012103
     11          1           0        2.273832    3.420562   -0.023282
     12          7           0        3.409768   -1.025166    0.517369
     13          8           0        4.265500   -0.698931    1.337082
     14          8           0        3.168355   -2.178264    0.167051
     15          6           0       -2.673462    2.135249    1.041622
     16          6           0       -2.596746    1.073140    1.948571
     17          6           0       -2.486137   -0.243673    1.492149
     18          6           0       -2.454958   -0.463119    0.115864
     19          6           0       -2.529438    0.573891   -0.812765
     20          6           0       -2.639622    1.882680   -0.333727
     21          1           0       -2.759220    3.155064    1.404966
     22          1           0       -2.622791    1.266310    3.017239
     23          1           0       -2.425022   -1.084625    2.172209
     24          1           0       -2.501004    0.349954   -1.872228
     25          1           0       -2.699020    2.705569   -1.040390
     26          7           0       -2.338086   -1.852922   -0.379301
     27          8           0       -2.312705   -2.019767   -1.596739
     28          8           0       -2.274076   -2.749090    0.459403
 ---------------------------------------------------------------------

 SCF Done:  E(RHF) =  -868.335955549     A.U. after   16 cycles
 E2 =    -0.2603291857D+01 EUMP2 =    -0.87093924740605D+03

 The electronic state is 1-A.
 Alpha  occ. eigenvalues --  -20.61346 -20.61289 -20.60650 -20.60617 -15.86366
 Alpha  occ. eigenvalues --  -15.85692 -11.31757 -11.31157 -11.28449 -11.28288
 Alpha  occ. eigenvalues --  -11.28107 -11.27772 -11.27655 -11.27587 -11.27447
 Alpha  occ. eigenvalues --  -11.27298 -11.26854 -11.26769  -1.60390  -1.59712
 Alpha  occ. eigenvalues --   -1.39945  -1.39260  -1.19955  -1.19352  -1.09337
 Alpha  occ. eigenvalues --   -1.08754  -1.05391  -1.04763  -0.96171  -0.95561
 Alpha  occ. eigenvalues --   -0.86793  -0.86174  -0.83010  -0.82384  -0.78066
 Alpha  occ. eigenvalues --   -0.77393  -0.72580  -0.71909  -0.71721  -0.71092
 Alpha  occ. eigenvalues --   -0.71040  -0.70501  -0.65619  -0.65428  -0.65011
 Alpha  occ. eigenvalues --   -0.64798  -0.62764  -0.62069  -0.55876  -0.55344
 Alpha  occ. eigenvalues --   -0.53961  -0.53501  -0.52903  -0.52766  -0.49356
 Alpha  occ. eigenvalues --   -0.49325  -0.48683  -0.48652  -0.45340  -0.44643
 Alpha  occ. eigenvalues --   -0.38003  -0.37782  -0.36761  -0.36015
 Alpha virt. eigenvalues --    0.04426   0.05116   0.10369   0.11531   0.15914
 Alpha virt. eigenvalues --    0.16688   0.19521   0.22026   0.25476   0.26246
 Alpha virt. eigenvalues --    0.28162   0.29146   0.29729   0.31225   0.32358

 Mulliken charges:
               1
     1  C   -0.167614
     2  C   -0.216576
     3  C   -0.175949
     4  C    0.159023
     5  C   -0.171663
     6  C   -0.219575
     7  H    0.217294
     8  H    0.223472
     9  H    0.284585
    10  H    0.274805
    11  H    0.220388
    12  N    0.487522
    13  O   -0.462447
    14  O   -0.455498
    15  C   -0.169607
    16  C   -0.217406
    17  C   -0.168693
    18  C    0.162144
    19  C   -0.173924
    20  C   -0.218498
    21  H    0.225810
    22  H    0.226378
    23  H    0.279573
    24  H    0.270117
    25  H    0.218381
    26  N    0.487234
    27  O   -0.466413
    28  O   -0.452865
 Sum of Mulliken charges =  -0.00000

 Dipole moment (field-independent basis, Debye):
    X=             -3.3072    Y=              8.4607    Z=             -0.1947  Tot=              9.0862
 Quadrupole moment (field-independent basis, Debye-Ang):
   XX=           -117.7979   YY=           -107.0525   ZZ=            -98.7031
   XY=             -0.3026   XZ=             -8.6934   YZ=             -0.2942

 Normal termination of Gaussian 16 at Thu May  6 09:42:05 2021.
