 Gaussian 16, Revision A.03,
 Gaussian 16:  EM64L-G16RevA.03 25-Dec-2016

 -------------
 #p 6-31g* mp2
 -------------

 ------------------------------------------------------
 Input file generated by CHIRIPA (05-May-2021 14:53:12)
 ------------------------------------------------------
 Symbolic Z-matrix:
 Charge =  0 Multiplicity = 1

                         Standard orientation:
 ---------------------------------------------------------------------
 Center     Atomic      Atomic             Coordinates (Angstroms)
 Number     Number       Type             X           Y           Z
 ---------------------------------------------------------------------
      1          6           0        3.400765   -0.039287    0.271164
      2          6           0        3.216106   -1.503750   -0.127880
      3          6           0        4.235937   -2.430196    0.535019
      4          1           0        4.417172    0.281390    0.004653
      5          1           0        3.321633    0.048607    1.363596
      6          1           0        3.294186   -1.588648   -1.219352
      7          1           0        2.199957   -1.820923    0.139438
      8          1           0        4.154808   -2.375073    1.625422
      9          1           0        5.255255   -2.141479    0.258912
     10          1           0        4.085672   -3.472214    0.235886
     11          6           0        2.388652    0.899237   -0.383454
     12          6           0        2.573311    2.363700    0.015590
     13          6           0        1.553480    3.290146   -0.647308
     14          1           0        2.467784    0.811344   -1.475886
     15          1           0        1.372245    0.578560   -0.116943
     16          1           0        3.589460    2.680873   -0.251728
     17          1           0        2.495231    2.448598    1.107062
     18          1           0        0.534162    3.001429   -0.371201
     19          1           0        1.634609    3.235023   -1.737712
     20          1           0        1.703745    4.332164   -0.348175
     21          6           0       -2.399701    0.109781    2.523414
     22          6           0       -3.479128    0.429887    1.693420
     23          6           0       -3.413624    0.187329    0.318131
     24          6           0       -2.248130   -0.379006   -0.195851
     25          6           0       -1.155928   -0.708986    0.605086
     26          6           0       -1.243583   -0.457633    1.977560
     27          1           0       -2.459189    0.301622    3.590679
     28          1           0       -4.378244    0.870641    2.114575
     29          1           0       -4.234509    0.425394   -0.347371
     30          1           0       -0.272926   -1.147370    0.156150
     31          1           0       -0.403738   -0.707254    2.619740
     32          7           0       -2.167058   -0.640447   -1.650318
     33          8           0       -1.129043   -1.140217   -2.078562
     34          8           0       -3.143064   -0.340644   -2.334546
 ---------------------------------------------------------------------

 SCF Done:  E(RHF) =  -669.534889270     A.U. after   15 cycles
 E2 =    -0.2093163366D+01 EUMP2 =    -0.67162805263513D+03

 The electronic state is 1-A.
 Alpha  occ. eigenvalues --  -20.60778 -20.60770 -15.85830 -11.31231 -11.27803
 Alpha  occ. eigenvalues --  -11.27780 -11.27550 -11.26832 -11.26819 -11.21854
 Alpha  occ. eigenvalues --  -11.21661 -11.21589 -11.21392 -11.21276 -11.21025
 Alpha  occ. eigenvalues --   -1.59851  -1.39402  -1.19413  -1.08795  -1.08576
 Alpha  occ. eigenvalues --   -1.04823  -1.03650  -0.96089  -0.95626  -0.87102
 Alpha  occ. eigenvalues --   -0.86216  -0.82457  -0.79717  -0.78406  -0.77477
 Alpha  occ. eigenvalues --   -0.72048  -0.71174  -0.70529  -0.65312  -0.65051
 Alpha  occ. eigenvalues --   -0.64772  -0.62158  -0.61062  -0.59452  -0.57691
 Alpha  occ. eigenvalues --   -0.55418  -0.55286  -0.53159  -0.52944  -0.52759
 Alpha  occ. eigenvalues --   -0.52488  -0.50037  -0.48812  -0.48801  -0.48026
 Alpha  occ. eigenvalues --   -0.46779  -0.45897  -0.45819  -0.44785  -0.43903
 Alpha  occ. eigenvalues --   -0.37387  -0.36386
 Alpha virt. eigenvalues --    0.04994   0.11157   0.16481   0.19795   0.23063
 Alpha virt. eigenvalues --    0.23946   0.25129   0.26801   0.27650   0.28021
 Alpha virt. eigenvalues --    0.29901   0.30608   0.31366   0.31670   0.31842

 Mulliken charges:
               1
     1  C   -0.299378
     2  C   -0.301180
     3  C   -0.475598
     4  H    0.152136
     5  H    0.143463
     6  H    0.161299
     7  H    0.143885
     8  H    0.151630
     9  H    0.157284
    10  H    0.162653
    11  C   -0.302551
    12  C   -0.298898
    13  C   -0.475992
    14  H    0.158309
    15  H    0.147166
    16  H    0.152587
    17  H    0.147621
    18  H    0.154971
    19  H    0.159483
    20  H    0.159074
    21  C   -0.170532
    22  C   -0.218605
    23  C   -0.170285
    24  C    0.157646
    25  C   -0.177595
    26  C   -0.222141
    27  H    0.225883
    28  H    0.223794
    29  H    0.275936
    30  H    0.287023
    31  H    0.223671
    32  N    0.487392
    33  O   -0.459777
    34  O   -0.460373
 Sum of Mulliken charges =  -0.00000

 Dipole moment (field-independent basis, Debye):
    X=             -0.2584    Y=              0.9204    Z=              4.9700  Tot=              5.0611
 Quadrupole moment (field-independent basis, Debye-Ang):
   XX=            -88.9410   YY=            -96.1765   ZZ=            -96.7630
   XY=             -3.4770   XZ=            -12.2788   YZ=             -2.1625

 Normal termination of Gaussian 16 at Wed May  5 16:58:42 2021.
