 Gaussian 16, Revision A.03,
 Gaussian 16:  EM64L-G16RevA.03 25-Dec-2016

 -------------
 #p 6-31g* mp2
 -------------

 ------------------------------------------------------
 Input file generated by CHIRIPA (05-May-2021 14:53:13)
 ------------------------------------------------------
 Symbolic Z-matrix:
 Charge =  0 Multiplicity = 1

                         Standard orientation:
 ---------------------------------------------------------------------
 Center     Atomic      Atomic             Coordinates (Angstroms)
 Number     Number       Type             X           Y           Z
 ---------------------------------------------------------------------
      1          6           0        3.441276    0.857235   -0.175852
      2          6           0        4.340854    2.093029   -0.215334
      3          6           0        3.551257    3.394727   -0.356446
      4          1           0        2.835696    0.822958   -1.091845
      5          1           0        2.736240    0.952125    0.661593
      6          1           0        5.044898    1.995195   -1.051616
      7          1           0        4.944501    2.124264    0.700772
      8          1           0        2.860352    3.519203    0.483648
      9          1           0        2.961319    3.389401   -1.278696
     10          1           0        4.213899    4.265406   -0.382610
     11          6           0        4.216049   -0.451822   -0.035049
     12          6           0        3.316471   -1.687616    0.004434
     13          6           0        4.106068   -2.989315    0.145545
     14          1           0        4.921084   -0.546713   -0.872494
     15          1           0        4.821629   -0.417546    0.880944
     16          1           0        2.712824   -1.718851   -0.911672
     17          1           0        2.612427   -1.589782    0.840715
     18          1           0        4.696005   -2.983989    1.067795
     19          1           0        4.796972   -3.113791   -0.694549
     20          1           0        3.443426   -3.859993    0.171709
     21          6           0       -0.734612   -1.244215    0.390480
     22          6           0       -1.717526   -1.878014   -0.376788
     23          6           0       -2.971372   -1.285626   -0.554256
     24          6           0       -3.209296   -0.053388    0.052597
     25          6           0       -2.250570    0.603018    0.822836
     26          6           0       -1.003798   -0.007901    0.986791
     27          1           0        0.236659   -1.711594    0.523092
     28          1           0       -1.511274   -2.838196   -0.841070
     29          1           0       -3.750466   -1.754290   -1.143139
     30          1           0       -2.485675    1.559719    1.273245
     31          1           0       -0.242357    0.486623    1.583197
     32          7           0       -4.532943    0.583555   -0.128127
     33          8           0       -4.717646    1.669544    0.416988
     34          8           0       -5.360650   -0.015257   -0.811472
 ---------------------------------------------------------------------

 SCF Done:  E(RHF) =  -669.535512813     A.U. after   15 cycles
 E2 =    -0.2091594999D+01 EUMP2 =    -0.67162710781149D+03

 The electronic state is 1-A.
 Alpha  occ. eigenvalues --  -20.60696 -20.60691 -15.85750 -11.31092 -11.27669
 Alpha  occ. eigenvalues --  -11.27665 -11.27328 -11.26665 -11.26654 -11.22882
 Alpha  occ. eigenvalues --  -11.22374 -11.22322 -11.22268 -11.22101 -11.21656
 Alpha  occ. eigenvalues --   -1.59772  -1.39326  -1.19262  -1.09391  -1.08652
 Alpha  occ. eigenvalues --   -1.04667  -1.04447  -0.96853  -0.95494  -0.87872
 Alpha  occ. eigenvalues --   -0.86062  -0.82339  -0.80559  -0.79203  -0.77387
 Alpha  occ. eigenvalues --   -0.71967  -0.71096  -0.70360  -0.66018  -0.64911
 Alpha  occ. eigenvalues --   -0.64671  -0.62020  -0.61838  -0.60264  -0.58485
 Alpha  occ. eigenvalues --   -0.56123  -0.55169  -0.53546  -0.53266  -0.52993
 Alpha  occ. eigenvalues --   -0.52757  -0.50792  -0.48847  -0.48724  -0.48698
 Alpha  occ. eigenvalues --   -0.47588  -0.46717  -0.46634  -0.44737  -0.44697
 Alpha  occ. eigenvalues --   -0.37223  -0.36277
 Alpha virt. eigenvalues --    0.05147   0.11355   0.16622   0.19434   0.22468
 Alpha virt. eigenvalues --    0.23162   0.24811   0.25992   0.26632   0.27849
 Alpha virt. eigenvalues --    0.29238   0.30380   0.30641   0.31136   0.32038

 Mulliken charges:
               1
     1  C   -0.298917
     2  C   -0.300502
     3  C   -0.475970
     4  H    0.152880
     5  H    0.142170
     6  H    0.154492
     7  H    0.153119
     8  H    0.153411
     9  H    0.157480
    10  H    0.163277
    11  C   -0.297853
    12  C   -0.306260
    13  C   -0.475538
    14  H    0.153998
    15  H    0.152342
    16  H    0.152957
    17  H    0.143648
    18  H    0.158728
    19  H    0.159882
    20  H    0.158986
    21  C   -0.176032
    22  C   -0.221080
    23  C   -0.170729
    24  C    0.158043
    25  C   -0.170967
    26  C   -0.221660
    27  H    0.236775
    28  H    0.223210
    29  H    0.275115
    30  H    0.275243
    31  H    0.223220
    32  N    0.488059
    33  O   -0.460742
    34  O   -0.460782
 Sum of Mulliken charges =  -0.00000

 Dipole moment (field-independent basis, Debye):
    X=              4.9608    Y=             -2.2093    Z=              0.5535  Tot=              5.4586
 Quadrupole moment (field-independent basis, Debye-Ang):
   XX=           -124.0905   YY=            -92.5645   ZZ=            -92.6690
   XY=              8.7262   XZ=             -1.1762   YZ=              2.5368

 Normal termination of Gaussian 16 at Thu May  6 15:23:18 2021.
