 Gaussian 16, Revision A.03,
 Gaussian 16:  EM64L-G16RevA.03 25-Dec-2016

 -------------
 #p 6-31g* mp2
 -------------

 ------------------------------------------------------
 Input file generated by CHIRIPA (05-May-2021 14:55:24)
 ------------------------------------------------------
 Symbolic Z-matrix:
 Charge =  0 Multiplicity = 1

                         Standard orientation:
 ---------------------------------------------------------------------
 Center     Atomic      Atomic             Coordinates (Angstroms)
 Number     Number       Type             X           Y           Z
 ---------------------------------------------------------------------
      1          6           0       -0.338543   -1.212908    0.524526
      2          6           0       -0.960582   -0.374296    1.455288
      3          6           0       -2.275321    0.056917    1.255122
      4          6           0       -2.941462   -0.371702    0.108024
      5          6           0       -2.348945   -1.207091   -0.837671
      6          6           0       -1.033484   -1.625901   -0.616970
      7          1           0        0.683058   -1.543067    0.687996
      8          1           0       -0.423309   -0.051974    2.342695
      9          1           0       -2.780916    0.706267    1.959491
     10          1           0       -2.910105   -1.511690   -1.712735
     11          1           0       -0.552920   -2.277166   -1.341509
     12          7           0       -4.333699    0.078238   -0.114752
     13          8           0       -4.898975   -0.313481   -1.133406
     14          8           0       -4.833296    0.814101    0.733508
     15          6           0        3.930316    0.011198   -0.429720
     16          6           0        5.102113   -0.266997    0.512344
     17          6           0        6.011265   -1.388856    0.009683
     18          1           0        3.343714   -0.908982   -0.556645
     19          1           0        4.321339    0.272102   -1.422910
     20          1           0        4.709022   -0.525948    1.503828
     21          1           0        5.685884    0.654002    0.637192
     22          1           0        6.430979   -1.135188   -0.969139
     23          1           0        5.448567   -2.321845   -0.097581
     24          1           0        6.842254   -1.571097    0.698237
     25          6           0        3.012414    1.130197    0.059184
     26          6           0        1.840618    1.408393   -0.882881
     27          6           0        0.931466    2.530252   -0.380220
     28          1           0        2.621393    0.869294    1.052374
     29          1           0        3.599017    2.050378    0.186109
     30          1           0        1.256847    0.487393   -1.007729
     31          1           0        2.233709    1.667344   -1.874364
     32          1           0        1.494165    3.463239   -0.272955
     33          1           0        0.511753    2.276584    0.598604
     34          1           0        0.100478    2.712493   -1.068773
 ---------------------------------------------------------------------

 SCF Done:  E(RHF) =  -669.534493545     A.U. after   15 cycles
 E2 =    -0.2094212407D+01 EUMP2 =    -0.67162870595253D+03

 The electronic state is 1-A.
 Alpha  occ. eigenvalues --  -20.60812 -20.60807 -15.85869 -11.31260 -11.27858
 Alpha  occ. eigenvalues --  -11.27851 -11.27604 -11.26868 -11.26855 -11.22357
 Alpha  occ. eigenvalues --  -11.22240 -11.22137 -11.22024 -11.21743 -11.21410
 Alpha  occ. eigenvalues --   -1.59888  -1.39441  -1.19460  -1.09173  -1.08838
 Alpha  occ. eigenvalues --   -1.04866  -1.04132  -0.96593  -0.95679  -0.87604
 Alpha  occ. eigenvalues --   -0.86264  -0.82508  -0.80208  -0.78977  -0.77539
 Alpha  occ. eigenvalues --   -0.72088  -0.71212  -0.70599  -0.65832  -0.65113
 Alpha  occ. eigenvalues --   -0.64852  -0.62211  -0.61577  -0.59959  -0.58200
 Alpha  occ. eigenvalues --   -0.55977  -0.55346  -0.53269  -0.53132  -0.52979
 Alpha  occ. eigenvalues --   -0.52937  -0.50554  -0.48849  -0.48839  -0.48512
 Alpha  occ. eigenvalues --   -0.47279  -0.46499  -0.46474  -0.44840  -0.44425
 Alpha  occ. eigenvalues --   -0.37335  -0.36435
 Alpha virt. eigenvalues --    0.04975   0.11050   0.16353   0.19020   0.22900
 Alpha virt. eigenvalues --    0.23826   0.25393   0.25565   0.27056   0.27976
 Alpha virt. eigenvalues --    0.29756   0.31003   0.31352   0.31530   0.31725

 Mulliken charges:
               1
     1  C   -0.172038
     2  C   -0.217773
     3  C   -0.170009
     4  C    0.158354
     5  C   -0.170137
     6  C   -0.219148
     7  H    0.229818
     8  H    0.223941
     9  H    0.276284
    10  H    0.276156
    11  H    0.224259
    12  N    0.488084
    13  O   -0.460274
    14  O   -0.460107
    15  C   -0.298094
    16  C   -0.299584
    17  C   -0.475713
    18  H    0.140052
    19  H    0.153811
    20  H    0.149085
    21  H    0.155255
    22  H    0.157288
    23  H    0.153044
    24  H    0.162580
    25  C   -0.298763
    26  C   -0.304542
    27  C   -0.474451
    28  H    0.140443
    29  H    0.153889
    30  H    0.153953
    31  H    0.153207
    32  H    0.155230
    33  H    0.151683
    34  H    0.164217
 Sum of Mulliken charges =  -0.00000

 Dipole moment (field-independent basis, Debye):
    X=              4.8980    Y=             -1.5560    Z=              0.7447  Tot=              5.1929
 Quadrupole moment (field-independent basis, Debye-Ang):
   XX=           -124.0743   YY=            -92.9303   ZZ=            -90.9379
   XY=              4.0460   XZ=             -1.8833   YZ=              1.5150

 Normal termination of Gaussian 16 at Thu May  6 04:43:17 2021.
