 Gaussian 16, Revision A.03,
 Gaussian 16:  EM64L-G16RevA.03 25-Dec-2016

 -------------
 #p 6-31g* mp2
 -------------

 ------------------------------------------------------
 Input file generated by CHIRIPA (05-May-2021 14:51:07)
 ------------------------------------------------------
 Symbolic Z-matrix:
 Charge =  0 Multiplicity = 1

                         Standard orientation:
 ---------------------------------------------------------------------
 Center     Atomic      Atomic             Coordinates (Angstroms)
 Number     Number       Type             X           Y           Z
 ---------------------------------------------------------------------
      1          6           0        4.425839   -0.466754    0.096508
      2          6           0        5.862495   -0.690030   -0.376938
      3          6           0        6.562491   -1.823952    0.372741
      4          1           0        4.431121   -0.248041    1.173114
      5          1           0        3.856418   -1.397896   -0.030494
      6          1           0        6.428674    0.241656   -0.250370
      7          1           0        5.853809   -0.908048   -1.452581
      8          1           0        6.022557   -2.766602    0.236789
      9          1           0        6.600688   -1.610366    1.445831
     10          1           0        7.588192   -1.966339    0.018446
     11          6           0        3.712856    0.663600   -0.643548
     12          6           0        2.276199    0.886876   -0.170102
     13          6           0        1.576203    2.020798   -0.919781
     14          1           0        4.282277    1.594742   -0.516547
     15          1           0        3.707574    0.444887   -1.720155
     16          1           0        2.284885    1.104894    0.905541
     17          1           0        1.710021   -0.044810   -0.296670
     18          1           0        1.538007    1.807212   -1.992872
     19          1           0        2.116138    2.963448   -0.783830
     20          1           0        0.550502    2.163184   -0.565487
     21          6           0       -4.578832   -0.122320   -0.295063
     22          6           0       -5.778411   -1.022379    0.003077
     23          6           0       -6.788856   -1.059852   -1.143827
     24          1           0       -4.935328    0.895424   -0.504949
     25          1           0       -4.083245   -0.474858   -1.210216
     26          1           0       -6.270769   -0.669083    0.918162
     27          1           0       -5.419003   -2.038056    0.212466
     28          1           0       -6.318754   -1.433186   -2.059373
     29          1           0       -7.175359   -0.056435   -1.349668
     30          1           0       -7.638223   -1.709108   -0.909515
     31          6           0       -3.559862   -0.074526    0.842103
     32          6           0       -2.360284    0.825534    0.543963
     33          6           0       -1.349838    0.863006    1.690867
     34          1           0       -4.055449    0.278012    1.757257
     35          1           0       -3.203367   -1.092270    1.051990
     36          1           0       -2.719692    1.841210    0.334575
     37          1           0       -1.867925    0.472237   -0.371121
     38          1           0       -0.963335   -0.140412    1.896709
     39          1           0       -1.819941    1.236340    2.606414
     40          1           0       -0.500471    1.512262    1.456555
 ---------------------------------------------------------------------

 SCF Done:  E(RHF) =  -470.733020749     A.U. after   11 cycles
 E2 =    -0.1582938281D+01 EUMP2 =    -0.47231595902966D+03

 The electronic state is 1-A.
 Alpha  occ. eigenvalues --  -11.21604 -11.21602 -11.21597 -11.21583 -11.21407
 Alpha  occ. eigenvalues --  -11.21397 -11.21347 -11.21338 -11.21071 -11.21068
 Alpha  occ. eigenvalues --  -11.21038 -11.21020  -1.08442  -1.08411  -1.03577
 Alpha  occ. eigenvalues --   -1.03476  -0.96048  -0.95902  -0.87024  -0.86955
 Alpha  occ. eigenvalues --   -0.79629  -0.79544  -0.78248  -0.78228  -0.65072
 Alpha  occ. eigenvalues --   -0.65041  -0.60960  -0.60894  -0.59800  -0.59055
 Alpha  occ. eigenvalues --   -0.57868  -0.57225  -0.55273  -0.55234  -0.52877
 Alpha  occ. eigenvalues --   -0.52568  -0.52482  -0.52123  -0.49921  -0.49902
 Alpha  occ. eigenvalues --   -0.47933  -0.47872  -0.46621  -0.46615  -0.45789
 Alpha  occ. eigenvalues --   -0.45772  -0.45710  -0.45695  -0.43788  -0.43758
 Alpha virt. eigenvalues --    0.21177   0.23082   0.23339   0.25328   0.26377
 Alpha virt. eigenvalues --    0.26681   0.26896   0.27281   0.27797   0.29100
 Alpha virt. eigenvalues --    0.30294   0.31093   0.31314   0.31551   0.32066

 Mulliken charges:
               1
     1  C   -0.298243
     2  C   -0.299645
     3  C   -0.475697
     4  H    0.149807
     5  H    0.149350
     6  H    0.151944
     7  H    0.151884
     8  H    0.155115
     9  H    0.155224
    10  H    0.160233
    11  C   -0.298415
    12  C   -0.299711
    13  C   -0.482489
    14  H    0.149528
    15  H    0.149538
    16  H    0.152489
    17  H    0.152424
    18  H    0.155209
    19  H    0.154947
    20  H    0.166454
    21  C   -0.298301
    22  C   -0.299660
    23  C   -0.475702
    24  H    0.149707
    25  H    0.149503
    26  H    0.151950
    27  H    0.151906
    28  H    0.155162
    29  H    0.155211
    30  H    0.160250
    31  C   -0.298351
    32  C   -0.301160
    33  C   -0.481080
    34  H    0.149667
    35  H    0.149674
    36  H    0.151685
    37  H    0.152945
    38  H    0.155579
    39  H    0.154739
    40  H    0.166331
 Sum of Mulliken charges =  -0.00000

 Dipole moment (field-independent basis, Debye):
    X=             -0.0015    Y=              0.0000    Z=              0.0053  Tot=              0.0055
 Quadrupole moment (field-independent basis, Debye-Ang):
   XX=            -85.5837   YY=            -84.3458   ZZ=            -84.9057
   XY=              0.2173   XZ=             -0.8239   YZ=              1.0933

 Normal termination of Gaussian 16 at Wed May  5 15:02:33 2021.
