 Gaussian 16, Revision A.03,
 Gaussian 16:  EM64L-G16RevA.03 25-Dec-2016

 -------------
 #p 6-31g* mp2
 -------------

 ------------------------------------------------------
 Input file generated by CHIRIPA (05-May-2021 14:51:10)
 ------------------------------------------------------
 Symbolic Z-matrix:
 Charge =  0 Multiplicity = 1

                         Standard orientation:
 ---------------------------------------------------------------------
 Center     Atomic      Atomic             Coordinates (Angstroms)
 Number     Number       Type             X           Y           Z
 ---------------------------------------------------------------------
      1          6           0        3.038282    1.272098   -0.184705
      2          6           0        2.140977    2.283763    0.528992
      3          6           0        2.483367    3.731106    0.174361
      4          1           0        4.086722    1.475952    0.072515
      5          1           0        2.949268    1.415441   -1.270488
      6          1           0        2.230601    2.137640    1.613073
      7          1           0        1.094538    2.077357    0.270193
      8          1           0        2.375663    3.899821   -0.901992
      9          1           0        3.518182    3.960446    0.448517
     10          1           0        1.829792    4.437536    0.695567
     11          6           0        2.708253   -0.179188    0.159645
     12          6           0        3.605557   -1.190853   -0.554052
     13          6           0        3.263168   -2.638195   -0.199421
     14          1           0        2.797267   -0.322530    1.245428
     15          1           0        1.659813   -0.383042   -0.097575
     16          1           0        4.651997   -0.984447   -0.295253
     17          1           0        3.515933   -1.044730   -1.638133
     18          1           0        2.228353   -2.867536   -0.473577
     19          1           0        3.370871   -2.806910    0.876932
     20          1           0        3.916742   -3.344626   -0.720627
     21          6           0       -2.403885   -1.075412   -0.276116
     22          6           0       -1.971031   -2.125520    0.747553
     23          6           0       -1.032212   -3.176883    0.155060
     24          1           0       -2.898086   -1.576684   -1.119584
     25          1           0       -1.511141   -0.582330   -0.685107
     26          1           0       -2.864394   -2.615514    1.155504
     27          1           0       -1.477974   -1.621672    1.588772
     28          1           0       -0.124122   -2.706214   -0.235380
     29          1           0       -1.518419   -3.705701   -0.671109
     30          1           0       -0.735262   -3.917646    0.904027
     31          6           0       -3.342650   -0.017498    0.301176
     32          6           0       -3.775504    1.032609   -0.722492
     33          6           0       -4.714322    2.083972   -0.130000
     34          1           0       -4.235393   -0.510580    0.710167
     35          1           0       -2.848449    0.483773    1.144644
     36          1           0       -4.268561    0.528761   -1.563711
     37          1           0       -2.882141    1.522604   -1.130445
     38          1           0       -4.228116    2.612791    0.696169
     39          1           0       -5.622413    1.613303    0.260440
     40          1           0       -5.011272    2.824735   -0.878967
 ---------------------------------------------------------------------

 SCF Done:  E(RHF) =  -470.733252153     A.U. after   11 cycles
 E2 =    -0.1583138781D+01 EUMP2 =    -0.47231639093436D+03

 The electronic state is 1-A.
 Alpha  occ. eigenvalues --  -11.21657 -11.21623 -11.21618 -11.21607 -11.21457
 Alpha  occ. eigenvalues --  -11.21433 -11.21396 -11.21371 -11.21111 -11.21084
 Alpha  occ. eigenvalues --  -11.21065 -11.21032  -1.08477  -1.08446  -1.03572
 Alpha  occ. eigenvalues --   -1.03530  -0.96028  -0.95973  -0.87059  -0.86976
 Alpha  occ. eigenvalues --   -0.79669  -0.79563  -0.78313  -0.78239  -0.65187
 Alpha  occ. eigenvalues --   -0.65005  -0.61083  -0.60833  -0.59378  -0.59356
 Alpha  occ. eigenvalues --   -0.57667  -0.57566  -0.55441  -0.55156  -0.52704
 Alpha  occ. eigenvalues --   -0.52690  -0.52508  -0.52334  -0.50114  -0.49783
 Alpha  occ. eigenvalues --   -0.48048  -0.47827  -0.46796  -0.46504  -0.45981
 Alpha  occ. eigenvalues --   -0.45783  -0.45768  -0.45487  -0.43816  -0.43800
 Alpha virt. eigenvalues --    0.19873   0.22982   0.23534   0.24702   0.25547
 Alpha virt. eigenvalues --    0.26618   0.27005   0.27356   0.28662   0.29485
 Alpha virt. eigenvalues --    0.30409   0.31578   0.31613   0.31868   0.31972

 Mulliken charges:
               1
     1  C   -0.298271
     2  C   -0.299595
     3  C   -0.475741
     4  H    0.150110
     5  H    0.149680
     6  H    0.152040
     7  H    0.151066
     8  H    0.155325
     9  H    0.155412
    10  H    0.160328
    11  C   -0.301226
    12  C   -0.299599
    13  C   -0.481738
    14  H    0.149822
    15  H    0.150916
    16  H    0.152097
    17  H    0.151819
    18  H    0.161931
    19  H    0.155109
    20  H    0.160371
    21  C   -0.299570
    22  C   -0.299220
    23  C   -0.482692
    24  H    0.149801
    25  H    0.149281
    26  H    0.152008
    27  H    0.152769
    28  H    0.161188
    29  H    0.155089
    30  H    0.161056
    31  C   -0.298399
    32  C   -0.299588
    33  C   -0.475734
    34  H    0.149731
    35  H    0.150044
    36  H    0.151976
    37  H    0.151525
    38  H    0.155317
    39  H    0.155255
    40  H    0.160304
 Sum of Mulliken charges =  -0.00000

 Dipole moment (field-independent basis, Debye):
    X=              0.0024    Y=             -0.0084    Z=              0.0110  Tot=              0.0140
 Quadrupole moment (field-independent basis, Debye-Ang):
   XX=            -84.1200   YY=            -86.2908   ZZ=            -84.2036
   XY=              0.9486   XZ=              0.9365   YZ=              0.1086

 Normal termination of Gaussian 16 at Wed May  5 15:09:36 2021.
