 Gaussian 16, Revision A.03,
 Gaussian 16:  EM64L-G16RevA.03 25-Dec-2016

 -------------
 #p 6-31g* mp2
 -------------

 ------------------------------------------------------
 Input file generated by CHIRIPA (05-May-2021 14:51:09)
 ------------------------------------------------------
 Symbolic Z-matrix:
 Charge =  0 Multiplicity = 1

                         Standard orientation:
 ---------------------------------------------------------------------
 Center     Atomic      Atomic             Coordinates (Angstroms)
 Number     Number       Type             X           Y           Z
 ---------------------------------------------------------------------
      1          6           0       -2.445524   -1.450983    0.275874
      2          6           0       -0.975559   -1.359272    0.686698
      3          6           0       -0.371298   -2.721461    1.028901
      4          1           0       -3.019120   -1.913944    1.090490
      5          1           0       -2.535849   -2.121214   -0.590167
      6          1           0       -0.887863   -0.688324    1.550848
      7          1           0       -0.405428   -0.896300   -0.128915
      8          1           0       -0.429468   -3.395839    0.168417
      9          1           0       -0.914644   -3.186681    1.857724
     10          1           0        0.680042   -2.632624    1.319850
     11          6           0       -3.063683   -0.097291   -0.069268
     12          6           0       -4.533648   -0.189002   -0.480093
     13          6           0       -5.137909    1.173188   -0.822295
     14          1           0       -2.973358    0.572940    0.796773
     15          1           0       -2.490087    0.365671   -0.883885
     16          1           0       -5.103779   -0.651973    0.335520
     17          1           0       -4.621344   -0.859949   -1.344243
     18          1           0       -4.594563    1.638407   -1.651118
     19          1           0       -5.079739    1.847565    0.038189
     20          1           0       -6.189249    1.084350   -1.113245
     21          6           0        3.428564    0.415666   -0.129895
     22          6           0        3.344960   -0.989213   -0.727650
     23          6           0        4.701252   -1.693563   -0.774096
     24          1           0        4.135289    1.016318   -0.718711
     25          1           0        3.843888    0.350509    0.885317
     26          1           0        2.928628   -0.921568   -1.740915
     27          1           0        2.638209   -1.586532   -0.137457
     28          1           0        5.119724   -1.790422    0.232929
     29          1           0        5.411793   -1.121680   -1.379640
     30          1           0        4.618367   -2.696246   -1.204927
     31          6           0        2.080642    1.132607   -0.076710
     32          6           0        2.164246    2.537487    0.521044
     33          6           0        0.807954    3.241837    0.567491
     34          1           0        1.665319    1.197764   -1.091923
     35          1           0        1.373919    0.531956    0.512105
     36          1           0        2.870998    3.134806   -0.069149
     37          1           0        2.580579    2.469842    1.534309
     38          1           0        0.097414    2.669954    1.173034
     39          1           0        0.389483    3.338697   -0.439535
     40          1           0        0.890840    4.244521    0.998322
 ---------------------------------------------------------------------

 SCF Done:  E(RHF) =  -470.732676954     A.U. after   11 cycles
 E2 =    -0.1584158610D+01 EUMP2 =    -0.47231683556497D+03

 The electronic state is 1-A.
 Alpha  occ. eigenvalues --  -11.21594 -11.21584 -11.21584 -11.21557 -11.21401
 Alpha  occ. eigenvalues --  -11.21353 -11.21341 -11.21259 -11.21117 -11.21062
 Alpha  occ. eigenvalues --  -11.21058 -11.21033  -1.08457  -1.08373  -1.03542
 Alpha  occ. eigenvalues --   -1.03500  -0.95996  -0.95943  -0.87025  -0.86946
 Alpha  occ. eigenvalues --   -0.79687  -0.79519  -0.78416  -0.78033  -0.65097
 Alpha  occ. eigenvalues --   -0.65009  -0.60959  -0.60885  -0.59381  -0.59307
 Alpha  occ. eigenvalues --   -0.57663  -0.57513  -0.55273  -0.55237  -0.52714
 Alpha  occ. eigenvalues --   -0.52629  -0.52479  -0.52322  -0.49954  -0.49879
 Alpha  occ. eigenvalues --   -0.48113  -0.47765  -0.46693  -0.46591  -0.46122
 Alpha  occ. eigenvalues --   -0.45768  -0.45639  -0.45152  -0.43782  -0.43745
 Alpha virt. eigenvalues --    0.20915   0.22855   0.23510   0.24229   0.25595
 Alpha virt. eigenvalues --    0.26157   0.26717   0.27675   0.28387   0.29701
 Alpha virt. eigenvalues --    0.30506   0.31175   0.31714   0.31896   0.32180

 Mulliken charges:
               1
     1  C   -0.297585
     2  C   -0.305769
     3  C   -0.478449
     4  H    0.149352
     5  H    0.149547
     6  H    0.150416
     7  H    0.159447
     8  H    0.155861
     9  H    0.155400
    10  H    0.161417
    11  C   -0.298416
    12  C   -0.299681
    13  C   -0.475650
    14  H    0.149391
    15  H    0.150186
    16  H    0.151869
    17  H    0.151865
    18  H    0.155220
    19  H    0.155352
    20  H    0.160159
    21  C   -0.297364
    22  C   -0.305603
    23  C   -0.475394
    24  H    0.149354
    25  H    0.148936
    26  H    0.151344
    27  H    0.157462
    28  H    0.155021
    29  H    0.155219
    30  H    0.160254
    31  C   -0.306863
    32  C   -0.299098
    33  C   -0.475904
    34  H    0.147642
    35  H    0.161603
    36  H    0.151525
    37  H    0.151432
    38  H    0.155587
    39  H    0.154964
    40  H    0.159951
 Sum of Mulliken charges =  -0.00000

 Dipole moment (field-independent basis, Debye):
    X=             -0.0255    Y=             -0.0160    Z=             -0.0029  Tot=              0.0303
 Quadrupole moment (field-independent basis, Debye-Ang):
   XX=            -85.9987   YY=            -85.9399   ZZ=            -83.0502
   XY=              1.0826   XZ=             -0.4679   YZ=             -0.0391

 Normal termination of Gaussian 16 at Thu May  6 03:43:09 2021.
