 Gaussian 16, Revision A.03,
 Gaussian 16:  EM64L-G16RevA.03 25-Dec-2016

 -------------
 #p 6-31g* mp2
 -------------

 ------------------------------------------------------
 Input file generated by CHIRIPA (05-May-2021 14:57:24)
 ------------------------------------------------------
 Symbolic Z-matrix:
 Charge =  0 Multiplicity = 1

                         Standard orientation:
 ---------------------------------------------------------------------
 Center     Atomic      Atomic             Coordinates (Angstroms)
 Number     Number       Type             X           Y           Z
 ---------------------------------------------------------------------
      1          6           0        4.742132    2.306209   -0.381406
      2          6           0        3.430180    2.061112   -0.800010
      3          6           0        2.839124    0.811903   -0.588635
      4          6           0        3.592308   -0.173793    0.047296
      5          6           0        4.901496    0.039732    0.475925
      6          6           0        5.472316    1.296517    0.254105
      7          1           0        5.193418    3.279567   -0.549664
      8          1           0        2.860734    2.843375   -1.293811
      9          1           0        1.825270    0.595092   -0.902501
     10          1           0        5.444118   -0.759837    0.965485
     11          1           0        6.491386    1.484026    0.580268
     12          7           0        2.977296   -1.500284    0.276598
     13          8           0        3.661984   -2.351993    0.839121
     14          8           0        1.822206   -1.663163   -0.110540
     15          6           0       -5.804474    1.189340    0.612795
     16          6           0       -4.749413    1.101818    1.526967
     17          6           0       -3.575196    0.420509    1.192929
     18          6           0       -3.489605   -0.164144   -0.069666
     19          6           0       -4.523382   -0.094312   -1.002252
     20          6           0       -5.688296    0.592048   -0.646675
     21          1           0       -6.713020    1.720558    0.880649
     22          1           0       -4.836849    1.564717    2.505805
     23          1           0       -2.743046    0.337429    1.881436
     24          1           0       -4.406831   -0.565930   -1.970451
     25          1           0       -6.506060    0.658412   -1.358646
     26          7           0       -2.251439   -0.888089   -0.434697
     27          8           0       -2.200847   -1.394577   -1.553423
     28          8           0       -1.355000   -0.935321    0.404829
 ---------------------------------------------------------------------

 SCF Done:  E(RHF) =  -868.335255381     A.U. after   16 cycles
 E2 =    -0.2600371206D+01 EUMP2 =    -0.87093562658689D+03

 The electronic state is 1-A.
 Alpha  occ. eigenvalues --  -20.60215 -20.60168 -20.59559 -20.59400 -15.85257
 Alpha  occ. eigenvalues --  -15.84523 -11.30895 -11.30280 -11.27495 -11.27490
 Alpha  occ. eigenvalues --  -11.27284 -11.26939 -11.26844 -11.26760 -11.26569
 Alpha  occ. eigenvalues --  -11.26559 -11.26037 -11.26005  -1.59268  -1.58566
 Alpha  occ. eigenvalues --   -1.38815  -1.38096  -1.19093  -1.18505  -1.08435
 Alpha  occ. eigenvalues --   -1.07839  -1.04534  -1.03962  -0.95220  -0.94597
 Alpha  occ. eigenvalues --   -0.85918  -0.85342  -0.82050  -0.81415  -0.77058
 Alpha  occ. eigenvalues --   -0.76390  -0.71469  -0.70704  -0.70615  -0.70195
 Alpha  occ. eigenvalues --   -0.69908  -0.69610  -0.64735  -0.64534  -0.64140
 Alpha  occ. eigenvalues --   -0.63977  -0.61876  -0.61293  -0.55021  -0.54474
 Alpha  occ. eigenvalues --   -0.52854  -0.52626  -0.52281  -0.52059  -0.48227
 Alpha  occ. eigenvalues --   -0.48190  -0.47544  -0.47451  -0.44167  -0.43397
 Alpha  occ. eigenvalues --   -0.37093  -0.36524  -0.36153  -0.35587
 Alpha virt. eigenvalues --    0.05468   0.06138   0.11497   0.12063   0.16913
 Alpha virt. eigenvalues --    0.17545   0.21617   0.22133   0.27511   0.28010
 Alpha virt. eigenvalues --    0.28529   0.29090   0.31146   0.31649   0.32772

 Mulliken charges:
               1
     1  C   -0.172169
     2  C   -0.219426
     3  C   -0.171646
     4  C    0.157979
     5  C   -0.171959
     6  C   -0.219033
     7  H    0.221778
     8  H    0.220077
     9  H    0.283530
    10  H    0.273910
    11  H    0.220100
    12  N    0.485671
    13  O   -0.469262
    14  O   -0.440435
    15  C   -0.171757
    16  C   -0.218612
    17  C   -0.172266
    18  C    0.158082
    19  C   -0.171795
    20  C   -0.218564
    21  H    0.224282
    22  H    0.222316
    23  H    0.276011
    24  H    0.275424
    25  H    0.222360
    26  N    0.485377
    27  O   -0.460179
    28  O   -0.449794
 Sum of Mulliken charges =  -0.00000

 Dipole moment (field-independent basis, Debye):
    X=             -2.4121    Y=              7.0167    Z=              0.4544  Tot=              7.4336
 Quadrupole moment (field-independent basis, Debye-Ang):
   XX=            -57.7487   YY=           -108.3077   ZZ=           -101.0763
   XY=              7.0834   XZ=             -3.0654   YZ=              0.3890

 Normal termination of Gaussian 16 at Fri May  7 08:03:20 2021.
