 Gaussian 16, Revision A.03,
 Gaussian 16:  EM64L-G16RevA.03 25-Dec-2016

 -------------
 #p 6-31g* mp2
 -------------

 ------------------------------------------------------
 Input file generated by CHIRIPA (05-May-2021 14:53:15)
 ------------------------------------------------------
 Symbolic Z-matrix:
 Charge =  0 Multiplicity = 1

                         Standard orientation:
 ---------------------------------------------------------------------
 Center     Atomic      Atomic             Coordinates (Angstroms)
 Number     Number       Type             X           Y           Z
 ---------------------------------------------------------------------
      1          6           0       -4.431950    0.079524    0.156542
      2          6           0       -4.428781   -1.372501    0.635706
      3          6           0       -5.836625   -1.953379    0.771172
      4          1           0       -5.015809    0.689599    0.859295
      5          1           0       -4.948336    0.137708   -0.811629
      6          1           0       -3.911340   -1.428142    1.602027
      7          1           0       -3.844701   -1.979156   -0.068166
      8          1           0       -6.358442   -1.927062   -0.190917
      9          1           0       -6.425460   -1.372918    1.488765
     10          1           0       -5.810962   -2.992154    1.114899
     11          6           0       -3.031816    0.674218    0.016210
     12          6           0       -3.034984    2.126243   -0.462954
     13          6           0       -1.627140    2.707120   -0.598420
     14          1           0       -2.515429    0.616034    0.984381
     15          1           0       -2.447956    0.064143   -0.686542
     16          1           0       -3.619064    2.732898    0.240918
     17          1           0       -3.552425    2.181884   -1.429274
     18          1           0       -1.038306    2.126660   -1.316013
     19          1           0       -1.105323    2.680804    0.363669
     20          1           0       -1.652804    3.745895   -0.942146
     21          6           0        5.057457    0.137141    1.194196
     22          6           0        3.837468    0.583395    1.712854
     23          6           0        2.644460    0.349876    1.022385
     24          6           0        2.708460   -0.336153   -0.189455
     25          6           0        3.908333   -0.793318   -0.732223
     26          6           0        5.088940   -0.548582   -0.024537
     27          1           0        5.979398    0.322902    1.737257
     28          1           0        3.809999    1.116199    2.659116
     29          1           0        1.686190    0.684276    1.400956
     30          1           0        3.903911   -1.321688   -1.677856
     31          1           0        6.034954   -0.896309   -0.429740
     32          7           0        1.452039   -0.589307   -0.929537
     33          8           0        1.535275   -1.196024   -1.995184
     34          8           0        0.407813   -0.176217   -0.429953
 ---------------------------------------------------------------------

 SCF Done:  E(RHF) =  -669.535758938     A.U. after   15 cycles
 E2 =    -0.2092074806D+01 EUMP2 =    -0.67162783374383D+03

 The electronic state is 1-A.
 Alpha  occ. eigenvalues --  -20.60999 -20.60974 -15.86002 -11.31304 -11.27867
 Alpha  occ. eigenvalues --  -11.27861 -11.27601 -11.26869 -11.26859 -11.20639
 Alpha  occ. eigenvalues --  -11.20418 -11.20316 -11.20281 -11.19841 -11.19804
 Alpha  occ. eigenvalues --   -1.60050  -1.39606  -1.19472  -1.08883  -1.07244
 Alpha  occ. eigenvalues --   -1.04864  -1.02442  -0.95730  -0.94881  -0.86266
 Alpha  occ. eigenvalues --   -0.85903  -0.82571  -0.78533  -0.77638  -0.76972
 Alpha  occ. eigenvalues --   -0.72221  -0.71358  -0.70581  -0.65129  -0.64870
 Alpha  occ. eigenvalues --   -0.63885  -0.62212  -0.59855  -0.58256  -0.56486
 Alpha  occ. eigenvalues --   -0.55372  -0.54170  -0.53197  -0.52957  -0.51644
 Alpha  occ. eigenvalues --   -0.51304  -0.49038  -0.48996  -0.48821  -0.46842
 Alpha  occ. eigenvalues --   -0.45583  -0.44972  -0.44554  -0.44326  -0.42664
 Alpha  occ. eigenvalues --   -0.37449  -0.36464
 Alpha virt. eigenvalues --    0.04888   0.11190   0.16373   0.21169   0.23919
 Alpha virt. eigenvalues --    0.25029   0.26904   0.27652   0.28117   0.28917
 Alpha virt. eigenvalues --    0.29181   0.30956   0.31786   0.32687   0.32914

 Mulliken charges:
               1
     1  C   -0.298064
     2  C   -0.298561
     3  C   -0.474953
     4  H    0.143742
     5  H    0.146913
     6  H    0.149136
     7  H    0.156174
     8  H    0.154154
     9  H    0.152406
    10  H    0.157463
    11  C   -0.300023
    12  C   -0.299471
    13  C   -0.472985
    14  H    0.144388
    15  H    0.174076
    16  H    0.144332
    17  H    0.148704
    18  H    0.170503
    19  H    0.146180
    20  H    0.150064
    21  C   -0.170465
    22  C   -0.218602
    23  C   -0.170582
    24  C    0.157528
    25  C   -0.170423
    26  C   -0.218644
    27  H    0.226051
    28  H    0.223933
    29  H    0.276270
    30  H    0.275775
    31  H    0.223818
    32  N    0.491792
    33  O   -0.459657
    34  O   -0.460972
 Sum of Mulliken charges =  -0.00000

 Dipole moment (field-independent basis, Debye):
    X=              4.7923    Y=              0.7148    Z=              2.4823  Tot=              5.4442
 Quadrupole moment (field-independent basis, Debye-Ang):
   XX=            -72.1832   YY=            -96.1057   ZZ=            -92.6241
   XY=             -0.6301   XZ=              4.7780   YZ=              1.4366

 Normal termination of Gaussian 16 at Thu May  6 01:05:50 2021.
