 Gaussian 16, Revision A.03,
 Gaussian 16:  EM64L-G16RevA.03 25-Dec-2016

 -------------
 #p 6-31g* mp2
 -------------

 ------------------------------------------------------
 Input file generated by CHIRIPA (05-May-2021 14:51:11)
 ------------------------------------------------------
 Symbolic Z-matrix:
 Charge =  0 Multiplicity = 1

                         Standard orientation:
 ---------------------------------------------------------------------
 Center     Atomic      Atomic             Coordinates (Angstroms)
 Number     Number       Type             X           Y           Z
 ---------------------------------------------------------------------
      1          6           0       -4.205598    0.729984   -0.182476
      2          6           0       -5.599119    0.843319    0.436587
      3          6           0       -6.113635    2.282622    0.475011
      4          1           0       -3.505859    1.355918    0.388065
      5          1           0       -4.230616    1.138757   -1.202120
      6          1           0       -5.571803    0.433190    1.454263
      7          1           0       -6.295583    0.216893   -0.135378
      8          1           0       -6.169508    2.698880   -0.536032
      9          1           0       -5.441616    2.916405    1.062641
     10          1           0       -7.111270    2.340555    0.921362
     11          6           0       -3.677589   -0.702799   -0.227931
     12          6           0       -2.284068   -0.816134   -0.846994
     13          6           0       -1.769552   -2.255436   -0.885418
     14          1           0       -3.652571   -1.111571    0.791714
     15          1           0       -4.377328   -1.328732   -0.798472
     16          1           0       -1.587604   -0.189708   -0.275028
     17          1           0       -2.311384   -0.406004   -1.864669
     18          1           0       -2.441572   -2.889219   -1.473048
     19          1           0       -1.713680   -2.671694    0.125625
     20          1           0       -0.771917   -2.313370   -1.331768
     21          6           0        3.352684   -0.450798   -0.008031
     22          6           0        2.761518   -1.272718    1.137811
     23          6           0        1.584196   -2.142256    0.695532
     24          1           0        2.566775    0.184917   -0.438330
     25          1           0        3.677762   -1.130476   -0.807878
     26          1           0        2.438916   -0.591778    1.935849
     27          1           0        3.548973   -1.906411    1.565558
     28          1           0        1.895561   -2.844419   -0.084608
     29          1           0        0.779198   -1.522317    0.287787
     30          1           0        1.176900   -2.721276    1.530220
     31          6           0        4.530503    0.423613    0.418438
     32          6           0        5.121669    1.245533   -0.727405
     33          6           0        6.298991    2.115070   -0.285125
     34          1           0        4.205425    1.103291    1.218285
     35          1           0        5.316413   -0.212103    0.848737
     36          1           0        4.334215    1.879225   -1.155151
     37          1           0        5.444272    0.564592   -1.525442
     38          1           0        7.103989    1.495131    0.122620
     39          1           0        5.987626    2.817233    0.495015
     40          1           0        6.706288    2.694091   -1.119813
 ---------------------------------------------------------------------

 SCF Done:  E(RHF) =  -470.732407742     A.U. after   11 cycles
 E2 =    -0.1582972524D+01 EUMP2 =    -0.47231538026630D+03

 The electronic state is 1-A.
 Alpha  occ. eigenvalues --  -11.21607 -11.21604 -11.21595 -11.21558 -11.21405
 Alpha  occ. eigenvalues --  -11.21394 -11.21345 -11.21335 -11.21075 -11.21066
 Alpha  occ. eigenvalues --  -11.20971 -11.20944  -1.08436  -1.08406  -1.03565
 Alpha  occ. eigenvalues --   -1.03464  -0.96059  -0.95863  -0.87107  -0.86847
 Alpha  occ. eigenvalues --   -0.79653  -0.79503  -0.78242  -0.78230  -0.65109
 Alpha  occ. eigenvalues --   -0.65005  -0.61089  -0.60772  -0.59404  -0.59298
 Alpha  occ. eigenvalues --   -0.57756  -0.57399  -0.55449  -0.55044  -0.52860
 Alpha  occ. eigenvalues --   -0.52632  -0.52428  -0.52119  -0.50005  -0.49750
 Alpha  occ. eigenvalues --   -0.47970  -0.47779  -0.46621  -0.46591  -0.45794
 Alpha  occ. eigenvalues --   -0.45752  -0.45720  -0.45676  -0.43787  -0.43720
 Alpha virt. eigenvalues --    0.21719   0.23068   0.23525   0.24986   0.26326
 Alpha virt. eigenvalues --    0.26725   0.27082   0.27309   0.27769   0.29336
 Alpha virt. eigenvalues --    0.30234   0.30953   0.31466   0.32190   0.32258

 Mulliken charges:
               1
     1  C   -0.298285
     2  C   -0.299659
     3  C   -0.475698
     4  H    0.149369
     5  H    0.149502
     6  H    0.151948
     7  H    0.152005
     8  H    0.155177
     9  H    0.155098
    10  H    0.160277
    11  C   -0.298033
    12  C   -0.302982
    13  C   -0.479015
    14  H    0.149694
    15  H    0.149953
    16  H    0.151919
    17  H    0.152055
    18  H    0.155072
    19  H    0.156970
    20  H    0.163808
    21  C   -0.298361
    22  C   -0.300034
    23  C   -0.480193
    24  H    0.149332
    25  H    0.149364
    26  H    0.151234
    27  H    0.151484
    28  H    0.154362
    29  H    0.164365
    30  H    0.159293
    31  C   -0.298170
    32  C   -0.299651
    33  C   -0.475694
    34  H    0.149411
    35  H    0.149690
    36  H    0.151936
    37  H    0.151902
    38  H    0.155173
    39  H    0.155146
    40  H    0.160233
 Sum of Mulliken charges =  -0.00000

 Dipole moment (field-independent basis, Debye):
    X=             -0.0147    Y=             -0.0178    Z=             -0.0086  Tot=              0.0246
 Quadrupole moment (field-independent basis, Debye-Ang):
   XX=            -85.3282   YY=            -85.6161   ZZ=            -83.9504
   XY=             -0.5198   XZ=              0.1122   YZ=              0.0890

 Normal termination of Gaussian 16 at Wed May  5 19:50:14 2021.
