 Gaussian 16, Revision A.03,
 Gaussian 16:  EM64L-G16RevA.03 25-Dec-2016

 -------------
 #p 6-31g* mp2
 -------------

 ------------------------------------------------------
 Input file generated by CHIRIPA (05-May-2021 14:55:22)
 ------------------------------------------------------
 Symbolic Z-matrix:
 Charge =  0 Multiplicity = 1

                         Standard orientation:
 ---------------------------------------------------------------------
 Center     Atomic      Atomic             Coordinates (Angstroms)
 Number     Number       Type             X           Y           Z
 ---------------------------------------------------------------------
      1          6           0       -2.314728    2.229241    0.017300
      2          6           0       -2.076757    1.522080    1.200437
      3          6           0       -2.193782    0.129268    1.230897
      4          6           0       -2.552195   -0.527298    0.054567
      5          6           0       -2.795780    0.149078   -1.139783
      6          6           0       -2.672849    1.541695   -1.146981
      7          1           0       -2.221527    3.311136    0.002674
      8          1           0       -1.798487    2.053405    2.106144
      9          1           0       -2.015277   -0.443064    2.133111
     10          1           0       -3.071605   -0.408304   -2.026724
     11          1           0       -2.858260    2.088279   -2.067260
     12          7           0       -2.679210   -2.001703    0.074500
     13          8           0       -2.996296   -2.556728   -0.975281
     14          8           0       -2.459272   -2.574399    1.139528
     15          6           0        3.015412    1.047251    0.191303
     16          6           0        1.690421    1.515974   -0.410928
     17          6           0        1.254334    2.884649    0.112859
     18          1           0        2.920752    1.009669    1.285182
     19          1           0        3.793927    1.790528   -0.029711
     20          1           0        0.914938    0.771361   -0.190030
     21          1           0        1.788186    1.552259   -1.503513
     22          1           0        2.007275    3.644318   -0.120773
     23          1           0        1.129066    2.858983    1.200171
     24          1           0        0.304879    3.200360   -0.330674
     25          6           0        3.464617   -0.319446   -0.322585
     26          6           0        4.789608   -0.788169    0.279646
     27          6           0        5.225694   -2.156844   -0.244140
     28          1           0        2.686101   -1.062724   -0.101570
     29          1           0        3.559277   -0.281866   -1.416465
     30          1           0        4.691842   -0.824456    1.372231
     31          1           0        5.565090   -0.043557    0.058748
     32          1           0        5.350963   -2.131179   -1.331454
     33          1           0        4.472753   -2.916514   -0.010508
     34          1           0        6.175150   -2.472555    0.199392
 ---------------------------------------------------------------------

 SCF Done:  E(RHF) =  -669.534582762     A.U. after   15 cycles
 E2 =    -0.2093405719D+01 EUMP2 =    -0.67162798848168D+03

 The electronic state is 1-A.
 Alpha  occ. eigenvalues --  -20.60814 -20.60809 -15.85870 -11.31245 -11.27828
 Alpha  occ. eigenvalues --  -11.27819 -11.27547 -11.26825 -11.26813 -11.21853
 Alpha  occ. eigenvalues --  -11.21618 -11.21592 -11.21576 -11.21424 -11.21001
 Alpha  occ. eigenvalues --   -1.59890  -1.39443  -1.19430  -1.08832  -1.08567
 Alpha  occ. eigenvalues --   -1.04829  -1.03700  -0.96190  -0.95642  -0.87202
 Alpha  occ. eigenvalues --   -0.86221  -0.82483  -0.79769  -0.78364  -0.77522
 Alpha  occ. eigenvalues --   -0.72086  -0.71216  -0.70558  -0.65214  -0.65076
 Alpha  occ. eigenvalues --   -0.64823  -0.62175  -0.61111  -0.59623  -0.57811
 Alpha  occ. eigenvalues --   -0.55492  -0.55347  -0.53283  -0.52918  -0.52734
 Alpha  occ. eigenvalues --   -0.52504  -0.50111  -0.48846  -0.48840  -0.48088
 Alpha  occ. eigenvalues --   -0.46781  -0.45916  -0.45812  -0.44847  -0.43968
 Alpha  occ. eigenvalues --   -0.37315  -0.36421
 Alpha virt. eigenvalues --    0.04985   0.11179   0.16394   0.20784   0.22825
 Alpha virt. eigenvalues --    0.24296   0.26271   0.26804   0.26993   0.27556
 Alpha virt. eigenvalues --    0.28702   0.30037   0.31307   0.31807   0.32459

 Mulliken charges:
               1
     1  C   -0.169045
     2  C   -0.214687
     3  C   -0.173250
     4  C    0.158481
     5  C   -0.170238
     6  C   -0.219256
     7  H    0.226641
     8  H    0.224214
     9  H    0.275691
    10  H    0.275951
    11  H    0.223806
    12  N    0.488052
    13  O   -0.460132
    14  O   -0.460628
    15  C   -0.298273
    16  C   -0.301267
    17  C   -0.473584
    18  H    0.148350
    19  H    0.149002
    20  H    0.157478
    21  H    0.151456
    22  H    0.155124
    23  H    0.149330
    24  H    0.152978
    25  C   -0.299091
    26  C   -0.299709
    27  C   -0.476208
    28  H    0.152716
    29  H    0.149807
    30  H    0.151875
    31  H    0.151024
    32  H    0.155159
    33  H    0.157987
    34  H    0.160245
 Sum of Mulliken charges =  -0.00000

 Dipole moment (field-independent basis, Debye):
    X=              0.4063    Y=              5.1167    Z=             -0.0890  Tot=              5.1336
 Quadrupole moment (field-independent basis, Debye-Ang):
   XX=            -97.4283   YY=           -101.9226   ZZ=            -89.6127
   XY=            -13.2924   XZ=              1.2960   YZ=             -0.3661

 Normal termination of Gaussian 16 at Thu May  6 01:30:26 2021.
