 Gaussian 16, Revision A.03,
 Gaussian 16:  EM64L-G16RevA.03 25-Dec-2016

 -------------
 #p 6-31g* mp2
 -------------

 ------------------------------------------------------
 Input file generated by CHIRIPA (05-May-2021 14:53:15)
 ------------------------------------------------------
 Symbolic Z-matrix:
 Charge =  0 Multiplicity = 1

                         Standard orientation:
 ---------------------------------------------------------------------
 Center     Atomic      Atomic             Coordinates (Angstroms)
 Number     Number       Type             X           Y           Z
 ---------------------------------------------------------------------
      1          6           0       -5.432712    0.299987    0.124112
      2          6           0       -6.746926   -0.399476   -0.224572
      3          6           0       -7.967533    0.497197   -0.015069
      4          1           0       -5.468820    0.634113    1.170057
      5          1           0       -5.333262    1.205675   -0.490083
      6          1           0       -6.843210   -1.304316    0.389112
      7          1           0       -6.707610   -0.732144   -1.269753
      8          1           0       -7.898269    1.394153   -0.638987
      9          1           0       -8.034639    0.818730    1.029303
     10          1           0       -8.896180   -0.022732   -0.270312
     11          6           0       -4.203388   -0.583618   -0.080172
     12          6           0       -2.889174    0.115845    0.268512
     13          6           0       -1.668567   -0.780828    0.059009
     14          1           0       -4.302838   -1.489305    0.534022
     15          1           0       -4.167280   -0.917744   -1.126117
     16          1           0       -2.928490    0.448513    1.313692
     17          1           0       -2.792890    1.020686   -0.345172
     18          1           0       -1.601461   -1.102361   -0.985364
     19          1           0       -1.737831   -1.677784    0.682926
     20          1           0       -0.739920   -0.260899    0.314251
     21          6           0        4.280487   -2.358786    0.003944
     22          6           0        2.951879   -1.921528   -0.007200
     23          6           0        2.654011   -0.555627   -0.018948
     24          6           0        3.714180    0.349544   -0.019204
     25          6           0        5.048189   -0.054916   -0.008267
     26          6           0        5.322565   -1.425730    0.003376
     27          1           0        4.502753   -3.421759    0.013030
     28          1           0        2.140559   -2.643889   -0.006787
     29          1           0        1.634520   -0.189593   -0.027722
     30          1           0        5.835590    0.689005   -0.008980
     31          1           0        6.355332   -1.762426    0.012016
     32          7           0        3.411275    1.798161   -0.031586
     33          8           0        4.363321    2.575495   -0.031558
     34          8           0        2.227549    2.128826   -0.041086
 ---------------------------------------------------------------------

 SCF Done:  E(RHF) =  -669.535669087     A.U. after   15 cycles
 E2 =    -0.2090811947D+01 EUMP2 =    -0.67162648103416D+03

 The electronic state is 1-A.
 Alpha  occ. eigenvalues --  -20.60741 -20.60736 -15.85792 -11.31136 -11.27712
 Alpha  occ. eigenvalues --  -11.27681 -11.27454 -11.26728 -11.26703 -11.21721
 Alpha  occ. eigenvalues --  -11.21623 -11.21527 -11.21487 -11.21386 -11.21060
 Alpha  occ. eigenvalues --   -1.59816  -1.39370  -1.19311  -1.08712  -1.08509
 Alpha  occ. eigenvalues --   -1.04711  -1.03649  -0.96134  -0.95549  -0.87163
 Alpha  occ. eigenvalues --   -0.86111  -0.82380  -0.79712  -0.78303  -0.77430
 Alpha  occ. eigenvalues --   -0.72013  -0.71138  -0.70433  -0.65133  -0.64964
 Alpha  occ. eigenvalues --   -0.64724  -0.62098  -0.61038  -0.59488  -0.57721
 Alpha  occ. eigenvalues --   -0.55417  -0.55224  -0.53048  -0.53029  -0.52663
 Alpha  occ. eigenvalues --   -0.52495  -0.50064  -0.48770  -0.48768  -0.48026
 Alpha  occ. eigenvalues --   -0.46717  -0.45856  -0.45761  -0.44780  -0.43906
 Alpha  occ. eigenvalues --   -0.37298  -0.36313
 Alpha virt. eigenvalues --    0.05101   0.11335   0.16598   0.20519   0.22834
 Alpha virt. eigenvalues --    0.23901   0.25922   0.26600   0.27337   0.27907
 Alpha virt. eigenvalues --    0.28854   0.30135   0.31277   0.31552   0.31994

 Mulliken charges:
               1
     1  C   -0.298679
     2  C   -0.299685
     3  C   -0.475828
     4  H    0.150522
     5  H    0.151489
     6  H    0.151241
     7  H    0.151767
     8  H    0.156036
     9  H    0.155535
    10  H    0.160093
    11  C   -0.299268
    12  C   -0.297690
    13  C   -0.485556
    14  H    0.148163
    15  H    0.149344
    16  H    0.154674
    17  H    0.158472
    18  H    0.155150
    19  H    0.152871
    20  H    0.162732
    21  C   -0.170637
    22  C   -0.222956
    23  C   -0.180278
    24  C    0.158430
    25  C   -0.170054
    26  C   -0.219088
    27  H    0.225427
    28  H    0.224706
    29  H    0.289250
    30  H    0.275435
    31  H    0.223234
    32  N    0.486671
    33  O   -0.460398
    34  O   -0.461123
 Sum of Mulliken charges =  -0.00000

 Dipole moment (field-independent basis, Debye):
    X=              0.9513    Y=             -5.0530    Z=              0.0427  Tot=              5.1419
 Quadrupole moment (field-independent basis, Debye-Ang):
   XX=            -82.6899   YY=            -98.9562   ZZ=            -94.7606
   XY=            -17.3811   XZ=              0.1780   YZ=             -0.2560

 Normal termination of Gaussian 16 at Thu May  6 12:11:08 2021.
