 Gaussian 16, Revision A.03,
 Gaussian 16:  EM64L-G16RevA.03 25-Dec-2016

 -------------
 #p 6-31g* mp2
 -------------

 ------------------------------------------------------
 Input file generated by CHIRIPA (05-May-2021 14:53:13)
 ------------------------------------------------------
 Symbolic Z-matrix:
 Charge =  0 Multiplicity = 1

                         Standard orientation:
 ---------------------------------------------------------------------
 Center     Atomic      Atomic             Coordinates (Angstroms)
 Number     Number       Type             X           Y           Z
 ---------------------------------------------------------------------
      1          6           0        3.367266    1.070032   -0.237483
      2          6           0        3.209334    2.187511    0.794157
      3          6           0        2.747815    3.505664    0.171850
      4          1           0        4.087087    1.386881   -1.004562
      5          1           0        2.408585    0.917675   -0.752375
      6          1           0        4.167661    2.336772    1.307914
      7          1           0        2.489949    1.867889    1.558973
      8          1           0        1.780395    3.379295   -0.324869
      9          1           0        3.467639    3.850842   -0.577354
     10          1           0        2.641445    4.290642    0.927068
     11          6           0        3.828116   -0.254006    0.369367
     12          6           0        3.986048   -1.371485   -0.662273
     13          6           0        4.447567   -2.689638   -0.039966
     14          1           0        4.786797   -0.101649    0.884259
     15          1           0        3.108295   -0.570855    1.136446
     16          1           0        4.705433   -1.051863   -1.427089
     17          1           0        3.027721   -1.520746   -1.176030
     18          1           0        3.727743   -3.034816    0.709238
     19          1           0        5.414988   -2.563268    0.456753
     20          1           0        4.553937   -3.474616   -0.795184
     21          6           0       -0.669167   -1.652831   -0.056798
     22          6           0       -1.826499   -2.189039    0.517297
     23          6           0       -3.018670   -1.458831    0.525896
     24          6           0       -3.017731   -0.189787   -0.051006
     25          6           0       -1.881130    0.371793   -0.630710
     26          6           0       -0.700121   -0.376377   -0.627962
     27          1           0        0.252605   -2.227051   -0.059071
     28          1           0       -1.805398   -3.180098    0.961594
     29          1           0       -3.929178   -1.849818    0.963529
     30          1           0       -1.933135    1.362379   -1.065969
     31          1           0        0.197154    0.042578   -1.074524
     32          7           0       -4.273921    0.592759   -0.047909
     33          8           0       -4.246946    1.708551   -0.562611
     34          8           0       -5.261710    0.075509    0.469161
 ---------------------------------------------------------------------

 SCF Done:  E(RHF) =  -669.535442480     A.U. after   15 cycles
 E2 =    -0.2091875424D+01 EUMP2 =    -0.67162731790317D+03

 The electronic state is 1-A.
 Alpha  occ. eigenvalues --  -20.60766 -20.60761 -15.85820 -11.31194 -11.27766
 Alpha  occ. eigenvalues --  -11.27762 -11.27508 -11.26781 -11.26761 -11.22692
 Alpha  occ. eigenvalues --  -11.22412 -11.22346 -11.22302 -11.22049 -11.21677
 Alpha  occ. eigenvalues --   -1.59842  -1.39395  -1.19368  -1.09385  -1.08760
 Alpha  occ. eigenvalues --   -1.04774  -1.04406  -0.96847  -0.95594  -0.87859
 Alpha  occ. eigenvalues --   -0.86174  -0.82428  -0.80469  -0.79198  -0.77473
 Alpha  occ. eigenvalues --   -0.72038  -0.71165  -0.70480  -0.66106  -0.65019
 Alpha  occ. eigenvalues --   -0.64729  -0.62133  -0.61803  -0.60214  -0.58449
 Alpha  occ. eigenvalues --   -0.56156  -0.55264  -0.53508  -0.53279  -0.53099
 Alpha  occ. eigenvalues --   -0.52864  -0.50794  -0.48811  -0.48793  -0.48766
 Alpha  occ. eigenvalues --   -0.47525  -0.46713  -0.46645  -0.44799  -0.44674
 Alpha  occ. eigenvalues --   -0.37349  -0.36375
 Alpha virt. eigenvalues --    0.05059   0.11229   0.16525   0.17743   0.22353
 Alpha virt. eigenvalues --    0.23315   0.24733   0.26047   0.27070   0.27826
 Alpha virt. eigenvalues --    0.29417   0.30632   0.31049   0.31494   0.31906

 Mulliken charges:
               1
     1  C   -0.301588
     2  C   -0.300969
     3  C   -0.475257
     4  H    0.153859
     5  H    0.141567
     6  H    0.154980
     7  H    0.154321
     8  H    0.152103
     9  H    0.156766
    10  H    0.164679
    11  C   -0.299969
    12  C   -0.300700
    13  C   -0.476248
    14  H    0.154632
    15  H    0.148600
    16  H    0.157050
    17  H    0.142367
    18  H    0.151642
    19  H    0.159967
    20  H    0.162786
    21  C   -0.175245
    22  C   -0.218584
    23  C   -0.170912
    24  C    0.158851
    25  C   -0.172702
    26  C   -0.224682
    27  H    0.227906
    28  H    0.223580
    29  H    0.275651
    30  H    0.275923
    31  H    0.232360
    32  N    0.488025
    33  O   -0.460315
    34  O   -0.460446
 Sum of Mulliken charges =  -0.00000

 Dipole moment (field-independent basis, Debye):
    X=              4.6489    Y=             -2.6845    Z=              0.0615  Tot=              5.3686
 Quadrupole moment (field-independent basis, Debye-Ang):
   XX=           -118.9193   YY=            -91.7942   ZZ=            -94.3987
   XY=             10.2881   XZ=             -1.5752   YZ=             -1.5849

 Normal termination of Gaussian 16 at Wed May  5 23:23:41 2021.
