 Gaussian 16, Revision A.03,
 Gaussian 16:  EM64L-G16RevA.03 25-Dec-2016

 -------------
 #p 6-31g* mp2
 -------------

 ------------------------------------------------------
 Input file generated by CHIRIPA (05-May-2021 14:57:23)
 ------------------------------------------------------
 Symbolic Z-matrix:
 Charge =  0 Multiplicity = 1

                         Standard orientation:
 ---------------------------------------------------------------------
 Center     Atomic      Atomic             Coordinates (Angstroms)
 Number     Number       Type             X           Y           Z
 ---------------------------------------------------------------------
      1          6           0        3.620552   -0.198064   -2.243429
      2          6           0        2.605145   -1.031147   -1.762343
      3          6           0        2.220363   -0.978700   -0.419309
      4          6           0        2.875187   -0.077320    0.418552
      5          6           0        3.890436    0.765673   -0.030805
      6          6           0        4.258831    0.696111   -1.377651
      7          1           0        3.913095   -0.245454   -3.288211
      8          1           0        2.107702   -1.726545   -2.432430
      9          1           0        1.437423   -1.612198   -0.020431
     10          1           0        4.367903    1.448656    0.661277
     11          1           0        5.047740    1.344293   -1.748497
     12          7           0        2.476509   -0.012737    1.842379
     13          8           0        3.068952    0.790012    2.560183
     14          8           0        1.579132   -0.766088    2.213611
     15          6           0       -2.971126   -2.427637    0.007842
     16          6           0       -4.105724   -1.685664    0.352347
     17          6           0       -4.100299   -0.291370    0.250054
     18          6           0       -2.937971    0.331163   -0.202423
     19          6           0       -1.791675   -0.380339   -0.553226
     20          6           0       -1.819752   -1.773759   -0.443049
     21          1           0       -2.984139   -3.510418    0.090368
     22          1           0       -5.001301   -2.190797    0.702816
     23          1           0       -4.964666    0.307522    0.510085
     24          1           0       -0.913720    0.151409   -0.899429
     25          1           0       -0.937141   -2.347419   -0.711296
     26          7           0       -2.920237    1.806777   -0.314890
     27          8           0       -1.883729    2.331417   -0.716190
     28          8           0       -3.943181    2.410783    0.000390
 ---------------------------------------------------------------------

 SCF Done:  E(RHF) =  -868.336940997     A.U. after   16 cycles
 E2 =    -0.2600764641D+01 EUMP2 =    -0.87093770563735D+03

 The electronic state is 1-A.
 Alpha  occ. eigenvalues --  -20.61021 -20.61000 -20.60637 -20.60631 -15.86072
 Alpha  occ. eigenvalues --  -15.85695 -11.31576 -11.31082 -11.28257 -11.28067
 Alpha  occ. eigenvalues --  -11.27856 -11.27718 -11.27671 -11.27466 -11.27269
 Alpha  occ. eigenvalues --  -11.27103 -11.26824 -11.26673  -1.60082  -1.59709
 Alpha  occ. eigenvalues --   -1.39635  -1.39263  -1.19743  -1.19281  -1.09095
 Alpha  occ. eigenvalues --   -1.08673  -1.05192  -1.04713  -0.95921  -0.95499
 Alpha  occ. eigenvalues --   -0.86562  -0.86116  -0.82768  -0.82355  -0.77825
 Alpha  occ. eigenvalues --   -0.77375  -0.72289  -0.71920  -0.71402  -0.71025
 Alpha  occ. eigenvalues --   -0.70852  -0.70394  -0.65400  -0.65208  -0.64950
 Alpha  occ. eigenvalues --   -0.64765  -0.62642  -0.61977  -0.55635  -0.55216
 Alpha  occ. eigenvalues --   -0.53471  -0.53305  -0.52980  -0.52817  -0.49059
 Alpha  occ. eigenvalues --   -0.49035  -0.48679  -0.48666  -0.45013  -0.44665
 Alpha  occ. eigenvalues --   -0.37680  -0.37245  -0.36794  -0.36283
 Alpha virt. eigenvalues --    0.04716   0.05186   0.10822   0.11348   0.16191
 Alpha virt. eigenvalues --    0.16568   0.19204   0.22137   0.25006   0.27625
 Alpha virt. eigenvalues --    0.28291   0.29025   0.30497   0.31291   0.32240

 Mulliken charges:
               1
     1  C   -0.169388
     2  C   -0.219539
     3  C   -0.181675
     4  C    0.162542
     5  C   -0.168059
     6  C   -0.216722
     7  H    0.227711
     8  H    0.220010
     9  H    0.271763
    10  H    0.278579
    11  H    0.226536
    12  N    0.488442
    13  O   -0.456464
    14  O   -0.462145
    15  C   -0.168778
    16  C   -0.218364
    17  C   -0.168989
    18  C    0.159301
    19  C   -0.167474
    20  C   -0.215894
    21  H    0.225639
    22  H    0.223920
    23  H    0.276174
    24  H    0.274201
    25  H    0.211323
    26  N    0.488568
    27  O   -0.461190
    28  O   -0.460030
 Sum of Mulliken charges =  -0.00000

 Dipole moment (field-independent basis, Debye):
    X=              1.4660    Y=             -5.2281    Z=             -4.5220  Tot=              7.0662
 Quadrupole moment (field-independent basis, Debye-Ang):
   XX=            -88.5452   YY=           -106.8758   ZZ=           -109.7888
   XY=             17.7935   XZ=            -16.6544   YZ=              2.0865

 Normal termination of Gaussian 16 at Thu May  6 21:11:21 2021.
