 Gaussian 16, Revision A.03,
 Gaussian 16:  EM64L-G16RevA.03 25-Dec-2016

 -------------
 #p 6-31g* mp2
 -------------

 ------------------------------------------------------
 Input file generated by CHIRIPA (05-May-2021 14:51:13)
 ------------------------------------------------------
 Symbolic Z-matrix:
 Charge =  0 Multiplicity = 1

                         Standard orientation:
 ---------------------------------------------------------------------
 Center     Atomic      Atomic             Coordinates (Angstroms)
 Number     Number       Type             X           Y           Z
 ---------------------------------------------------------------------
      1          6           0       -4.771096   -0.412869    0.136196
      2          6           0       -6.157849   -0.618216   -0.474323
      3          6           0       -6.976426   -1.679521    0.261446
      4          1           0       -4.228377   -1.368023    0.127157
      5          1           0       -4.881387   -0.126006    1.191156
      6          1           0       -6.045009   -0.903259   -1.528189
      7          1           0       -6.697258    0.337581   -0.464005
      8          1           0       -7.118496   -1.398093    1.309881
      9          1           0       -6.462541   -2.645983    0.239650
     10          1           0       -7.964125   -1.810167   -0.191590
     11          6           0       -3.940761    0.645054   -0.588423
     12          6           0       -2.554008    0.850401    0.022096
     13          6           0       -1.735431    1.911706   -0.713673
     14          1           0       -3.830470    0.358191   -1.643383
     15          1           0       -4.483480    1.600208   -0.579384
     16          1           0       -2.014599   -0.105396    0.011778
     17          1           0       -2.666848    1.135444    1.075962
     18          1           0       -2.249316    2.878168   -0.691877
     19          1           0       -1.593361    1.630278   -1.762108
     20          1           0       -0.747732    2.042353   -0.260637
     21          6           0        3.688225    0.247147    0.150880
     22          6           0        2.777310    0.100325    1.370168
     23          6           0        1.445296    0.832513    1.204538
     24          1           0        3.875019    1.314037   -0.032968
     25          1           0        3.165912   -0.136200   -0.736605
     26          1           0        3.301714    0.482563    2.255328
     27          1           0        2.592818   -0.966346    1.551249
     28          1           0        0.898287    0.445949    0.338541
     29          1           0        1.611211    1.903091    1.046621
     30          1           0        0.809696    0.714344    2.087662
     31          6           0        5.023632   -0.479333    0.301347
     32          6           0        5.934547   -0.332511   -0.917941
     33          6           0        7.266560   -1.064699   -0.752311
     34          1           0        5.545945   -0.095986    1.188832
     35          1           0        4.836839   -1.546222    0.485195
     36          1           0        6.119039    0.734161   -1.099022
     37          1           0        5.410144   -0.714749   -1.803102
     38          1           0        7.100647   -2.135277   -0.594395
     39          1           0        7.813570   -0.678134    0.113686
     40          1           0        7.902160   -0.946530   -1.635435
 ---------------------------------------------------------------------

 SCF Done:  E(RHF) =  -470.732717852     A.U. after   11 cycles
 E2 =    -0.1582781977D+01 EUMP2 =    -0.47231549982829D+03

 The electronic state is 1-A.
 Alpha  occ. eigenvalues --  -11.21615 -11.21609 -11.21572 -11.21515 -11.21417
 Alpha  occ. eigenvalues --  -11.21357 -11.21355 -11.21293 -11.21089 -11.21077
 Alpha  occ. eigenvalues --  -11.21050 -11.20871  -1.08446  -1.08372  -1.03566
 Alpha  occ. eigenvalues --   -1.03445  -0.96054  -0.95862  -0.87090  -0.86865
 Alpha  occ. eigenvalues --   -0.79633  -0.79516  -0.78259  -0.78186  -0.65081
 Alpha  occ. eigenvalues --   -0.65001  -0.60989  -0.60832  -0.59376  -0.59316
 Alpha  occ. eigenvalues --   -0.57756  -0.57402  -0.55320  -0.55155  -0.52938
 Alpha  occ. eigenvalues --   -0.52639  -0.52425  -0.52030  -0.49934  -0.49848
 Alpha  occ. eigenvalues --   -0.48031  -0.47707  -0.46651  -0.46554  -0.45793
 Alpha  occ. eigenvalues --   -0.45737  -0.45712  -0.45650  -0.43805  -0.43681
 Alpha virt. eigenvalues --    0.22195   0.22982   0.23523   0.24800   0.26435
 Alpha virt. eigenvalues --    0.26652   0.26836   0.27496   0.27747   0.29113
 Alpha virt. eigenvalues --    0.30158   0.31115   0.31355   0.31746   0.32209

 Mulliken charges:
               1
     1  C   -0.298162
     2  C   -0.299586
     3  C   -0.475661
     4  H    0.149357
     5  H    0.149398
     6  H    0.151816
     7  H    0.151912
     8  H    0.155130
     9  H    0.155062
    10  H    0.160144
    11  C   -0.298143
    12  C   -0.299210
    13  C   -0.484315
    14  H    0.149192
    15  H    0.149593
    16  H    0.151517
    17  H    0.151683
    18  H    0.154092
    19  H    0.153422
    20  H    0.171867
    21  C   -0.298374
    22  C   -0.300407
    23  C   -0.479670
    24  H    0.149722
    25  H    0.149552
    26  H    0.151889
    27  H    0.151984
    28  H    0.159799
    29  H    0.154753
    30  H    0.161487
    31  C   -0.298285
    32  C   -0.299645
    33  C   -0.475715
    34  H    0.149577
    35  H    0.149630
    36  H    0.152005
    37  H    0.151931
    38  H    0.155166
    39  H    0.155202
    40  H    0.160290
 Sum of Mulliken charges =  -0.00000

 Dipole moment (field-independent basis, Debye):
    X=              0.0487    Y=              0.0022    Z=              0.0207  Tot=              0.0530
 Quadrupole moment (field-independent basis, Debye-Ang):
   XX=            -86.1924   YY=            -84.3430   ZZ=            -84.4580
   XY=              0.0610   XZ=              0.2094   YZ=              1.1557

 Normal termination of Gaussian 16 at Wed May  5 23:13:01 2021.
