 Gaussian 16, Revision A.03,
 Gaussian 16:  EM64L-G16RevA.03 25-Dec-2016

 -------------
 #p 6-31g* mp2
 -------------

 ------------------------------------------------------
 Input file generated by CHIRIPA (05-May-2021 14:51:13)
 ------------------------------------------------------
 Symbolic Z-matrix:
 Charge =  0 Multiplicity = 1

                         Standard orientation:
 ---------------------------------------------------------------------
 Center     Atomic      Atomic             Coordinates (Angstroms)
 Number     Number       Type             X           Y           Z
 ---------------------------------------------------------------------
      1          6           0        3.101734    1.290837    0.033566
      2          6           0        1.846048    1.387559    0.900677
      3          6           0        1.348720    2.824300    1.062647
      4          1           0        3.895098    1.907043    0.478324
      5          1           0        2.889872    1.720188   -0.955457
      6          1           0        2.059806    0.956897    1.887315
      7          1           0        1.055642    0.770899    0.453907
      8          1           0        1.108120    3.260872    0.087907
      9          1           0        2.117990    3.447927    1.529460
     10          1           0        0.450322    2.870281    1.686047
     11          6           0        3.611038   -0.139205   -0.137662
     12          6           0        4.866724   -0.235927   -1.004774
     13          6           0        5.364053   -1.672668   -1.166743
     14          1           0        3.822901   -0.568556    0.851361
     15          1           0        2.817675   -0.755411   -0.582420
     16          1           0        5.657131    0.380733   -0.558003
     17          1           0        4.652966    0.194735   -1.991412
     18          1           0        4.594783   -2.296295   -1.633556
     19          1           0        5.604653   -2.109240   -0.192003
     20          1           0        6.262450   -1.718650   -1.790143
     21          6           0       -3.084409   -1.013912    0.615547
     22          6           0       -1.580837   -1.271616    0.511415
     23          6           0       -1.051582   -2.149581    1.645815
     24          1           0       -3.302411   -0.538223    1.581540
     25          1           0       -3.615228   -1.976007    0.614043
     26          1           0       -1.053100   -0.309270    0.511722
     27          1           0       -1.366364   -1.746573   -0.454521
     28          1           0       -1.551701   -3.123481    1.644634
     29          1           0       -1.236657   -1.678011    2.616366
     30          1           0        0.025269   -2.321075    1.551791
     31          6           0       -3.628364   -0.137719   -0.511451
     32          6           0       -5.131935    0.119985   -0.407319
     33          6           0       -5.661190    0.997949   -1.541718
     34          1           0       -3.097544    0.824375   -0.509947
     35          1           0       -3.410361   -0.613409   -1.477443
     36          1           0       -5.346408    0.594942    0.558618
     37          1           0       -5.659672   -0.842362   -0.407625
     38          1           0       -5.476115    0.526380   -2.512270
     39          1           0       -5.161071    1.971849   -1.540537
     40          1           0       -6.738042    1.169444   -1.447695
 ---------------------------------------------------------------------

 SCF Done:  E(RHF) =  -470.733346208     A.U. after   11 cycles
 E2 =    -0.1582803877D+01 EUMP2 =    -0.47231615008502D+03

 The electronic state is 1-A.
 Alpha  occ. eigenvalues --  -11.21606 -11.21605 -11.21590 -11.21587 -11.21409
 Alpha  occ. eigenvalues --  -11.21409 -11.21350 -11.21350 -11.21101 -11.21075
 Alpha  occ. eigenvalues --  -11.21074 -11.21051  -1.08448  -1.08421  -1.03559
 Alpha  occ. eigenvalues --   -1.03509  -0.95991  -0.95973  -0.87006  -0.86990
 Alpha  occ. eigenvalues --   -0.79675  -0.79532  -0.78313  -0.78185  -0.65139
 Alpha  occ. eigenvalues --   -0.65001  -0.61056  -0.60826  -0.59414  -0.59286
 Alpha  occ. eigenvalues --   -0.57628  -0.57558  -0.55291  -0.55247  -0.52694
 Alpha  occ. eigenvalues --   -0.52658  -0.52414  -0.52400  -0.49978  -0.49882
 Alpha  occ. eigenvalues --   -0.48066  -0.47822  -0.46863  -0.46455  -0.45943
 Alpha  occ. eigenvalues --   -0.45764  -0.45741  -0.45404  -0.43792  -0.43779
 Alpha virt. eigenvalues --    0.21395   0.23105   0.23688   0.24605   0.25933
 Alpha virt. eigenvalues --    0.26728   0.26881   0.27383   0.28342   0.28970
 Alpha virt. eigenvalues --    0.30557   0.31508   0.31664   0.31735   0.32255

 Mulliken charges:
               1
     1  C   -0.297510
     2  C   -0.308316
     3  C   -0.475704
     4  H    0.149626
     5  H    0.149485
     6  H    0.152075
     7  H    0.160244
     8  H    0.155107
     9  H    0.155547
    10  H    0.159595
    11  C   -0.298677
    12  C   -0.299642
    13  C   -0.475744
    14  H    0.149460
    15  H    0.149898
    16  H    0.151986
    17  H    0.151988
    18  H    0.155182
    19  H    0.155189
    20  H    0.160281
    21  C   -0.297464
    22  C   -0.307071
    23  C   -0.475689
    24  H    0.149622
    25  H    0.149538
    26  H    0.158720
    27  H    0.151183
    28  H    0.155021
    29  H    0.155093
    30  H    0.161235
    31  C   -0.298443
    32  C   -0.299630
    33  C   -0.475737
    34  H    0.149479
    35  H    0.149473
    36  H    0.151998
    37  H    0.151965
    38  H    0.155109
    39  H    0.155238
    40  H    0.160293
 Sum of Mulliken charges =  -0.00000

 Dipole moment (field-independent basis, Debye):
    X=              0.0061    Y=             -0.0004    Z=              0.0020  Tot=              0.0065
 Quadrupole moment (field-independent basis, Debye-Ang):
   XX=            -84.9540   YY=            -85.4595   ZZ=            -84.3811
   XY=              1.0090   XZ=              0.2899   YZ=              0.8260

 Normal termination of Gaussian 16 at Thu May  6 05:33:39 2021.
