 Gaussian 16, Revision A.03,
 Gaussian 16:  EM64L-G16RevA.03 25-Dec-2016

 -------------
 #p 6-31g* mp2
 -------------

 ------------------------------------------------------
 Input file generated by CHIRIPA (05-May-2021 14:53:15)
 ------------------------------------------------------
 Symbolic Z-matrix:
 Charge =  0 Multiplicity = 1

                         Standard orientation:
 ---------------------------------------------------------------------
 Center     Atomic      Atomic             Coordinates (Angstroms)
 Number     Number       Type             X           Y           Z
 ---------------------------------------------------------------------
      1          6           0        3.791291   -0.527426   -0.105016
      2          6           0        4.201645    0.752260    0.624365
      3          6           0        5.716965    0.953388    0.658229
      4          1           0        4.266124   -1.388988    0.384054
      5          1           0        4.181100   -0.496946   -1.131912
      6          1           0        3.810001    0.719995    1.649152
      7          1           0        3.725626    1.610858    0.133618
      8          1           0        6.120650    1.011629   -0.357767
      9          1           0        6.205504    0.115705    1.166379
     10          1           0        5.988097    1.874034    1.184309
     11          6           0        2.279430   -0.742424   -0.147227
     12          6           0        1.869076   -2.022111   -0.876607
     13          6           0        0.353756   -2.223239   -0.910472
     14          1           0        1.889622   -0.772905    0.879669
     15          1           0        1.804597    0.119137   -0.636297
     16          1           0        2.345095   -2.880708   -0.385860
     17          1           0        2.260720   -1.989846   -1.901395
     18          1           0       -0.134783   -1.385555   -1.418622
     19          1           0       -0.049929   -2.281479    0.105524
     20          1           0        0.082624   -3.143884   -1.436552
     21          6           0       -3.257917   -1.631528    1.124906
     22          6           0       -2.802409   -0.594977    1.946244
     23          6           0       -2.309114    0.588297    1.388506
     24          6           0       -2.285668    0.701720   -0.000693
     25          6           0       -2.732359   -0.313112   -0.845602
     26          6           0       -3.221503   -1.487541   -0.265944
     27          1           0       -3.639508   -2.547287    1.566684
     28          1           0       -2.829502   -0.704021    3.026716
     29          1           0       -1.950173    1.406562    2.000896
     30          1           0       -2.692843   -0.175142   -1.919298
     31          1           0       -3.574596   -2.290884   -0.906264
     32          7           0       -1.765635    1.949717   -0.602749
     33          8           0       -1.755541    2.024932   -1.829484
     34          8           0       -1.377977    2.829051    0.163495
 ---------------------------------------------------------------------

 SCF Done:  E(RHF) =  -669.534666405     A.U. after   15 cycles
 E2 =    -0.2093344075D+01 EUMP2 =    -0.67162801048019D+03

 The electronic state is 1-A.
 Alpha  occ. eigenvalues --  -20.60797 -20.60791 -15.85848 -11.31173 -11.27767
 Alpha  occ. eigenvalues --  -11.27735 -11.27510 -11.26784 -11.26740 -11.21511
 Alpha  occ. eigenvalues --  -11.21306 -11.21219 -11.21148 -11.21056 -11.20816
 Alpha  occ. eigenvalues --   -1.59873  -1.39427  -1.19367  -1.08766  -1.08248
 Alpha  occ. eigenvalues --   -1.04773  -1.03367  -0.95841  -0.95600  -0.86862
 Alpha  occ. eigenvalues --   -0.86170  -0.82436  -0.79441  -0.78053  -0.77484
 Alpha  occ. eigenvalues --   -0.72067  -0.71196  -0.70487  -0.65021  -0.64878
 Alpha  occ. eigenvalues --   -0.64770  -0.62122  -0.60765  -0.59215  -0.57484
 Alpha  occ. eigenvalues --   -0.55282  -0.55124  -0.53417  -0.52863  -0.52527
 Alpha  occ. eigenvalues --   -0.51970  -0.49787  -0.48826  -0.48821  -0.47705
 Alpha  occ. eigenvalues --   -0.46470  -0.45584  -0.45513  -0.44832  -0.43631
 Alpha  occ. eigenvalues --   -0.37325  -0.36276
 Alpha virt. eigenvalues --    0.05040   0.11210   0.16512   0.21332   0.23006
 Alpha virt. eigenvalues --    0.24372   0.26685   0.27130   0.27563   0.28172
 Alpha virt. eigenvalues --    0.28476   0.30585   0.31449   0.31748   0.32101

 Mulliken charges:
               1
     1  C   -0.298136
     2  C   -0.300428
     3  C   -0.475739
     4  H    0.147528
     5  H    0.150424
     6  H    0.150226
     7  H    0.157768
     8  H    0.155523
     9  H    0.153291
    10  H    0.160744
    11  C   -0.299306
    12  C   -0.299649
    13  C   -0.477543
    14  H    0.146682
    15  H    0.154878
    16  H    0.149616
    17  H    0.152880
    18  H    0.157066
    19  H    0.155215
    20  H    0.154073
    21  C   -0.171761
    22  C   -0.219092
    23  C   -0.170922
    24  C    0.161459
    25  C   -0.172115
    26  C   -0.212528
    27  H    0.225702
    28  H    0.223351
    29  H    0.275619
    30  H    0.275280
    31  H    0.223738
    32  N    0.487906
    33  O   -0.461581
    34  O   -0.460172
 Sum of Mulliken charges =  -0.00000

 Dipole moment (field-independent basis, Debye):
    X=             -1.9030    Y=             -4.3172    Z=              2.1159  Tot=              5.1708
 Quadrupole moment (field-independent basis, Debye-Ang):
   XX=            -88.1372   YY=           -100.9504   ZZ=            -89.9785
   XY=              9.3179   XZ=             -4.1823   YZ=              2.8595

 Normal termination of Gaussian 16 at Thu May  6 04:16:21 2021.
