 Gaussian 16, Revision A.03,
 Gaussian 16:  EM64L-G16RevA.03 25-Dec-2016

 -------------
 #p 6-31g* mp2
 -------------

 ------------------------------------------------------
 Input file generated by CHIRIPA (05-May-2021 14:53:14)
 ------------------------------------------------------
 Symbolic Z-matrix:
 Charge =  0 Multiplicity = 1

                         Standard orientation:
 ---------------------------------------------------------------------
 Center     Atomic      Atomic             Coordinates (Angstroms)
 Number     Number       Type             X           Y           Z
 ---------------------------------------------------------------------
      1          6           0       -3.249489   -0.253410    0.244666
      2          6           0       -3.951794   -1.084268   -0.829778
      3          6           0       -4.104752   -2.553457   -0.434959
      4          1           0       -2.259552   -0.685779    0.444732
      5          1           0       -3.817129   -0.324758    1.182797
      6          1           0       -3.383750   -1.010256   -1.765975
      7          1           0       -4.940097   -0.649758   -1.027447
      8          1           0       -4.690223   -2.646060    0.485502
      9          1           0       -3.125033   -3.008607   -0.257222
     10          1           0       -4.609304   -3.128974   -1.217306
     11          6           0       -3.089151    1.217488   -0.135435
     12          6           0       -2.386847    2.048346    0.939008
     13          6           0       -2.233889    3.517535    0.544190
     14          1           0       -2.521512    1.288836   -1.073566
     15          1           0       -4.079088    1.649857   -0.335501
     16          1           0       -1.398543    1.613836    1.136677
     17          1           0       -2.954890    1.974334    1.875205
     18          1           0       -3.213608    3.972685    0.366453
     19          1           0       -1.648417    3.610138   -0.376272
     20          1           0       -1.729337    4.093052    1.326537
     21          6           0        3.801551    1.695732   -0.603375
     22          6           0        4.442889    0.583393   -0.048480
     23          6           0        3.718438   -0.570176    0.266156
     24          6           0        2.347885   -0.576937    0.011539
     25          6           0        1.680262    0.515265   -0.540423
     26          6           0        2.424711    1.658184   -0.847145
     27          1           0        4.372089    2.587716   -0.844718
     28          1           0        5.512047    0.609718    0.141922
     29          1           0        4.189667   -1.445473    0.696524
     30          1           0        0.613276    0.459152   -0.718782
     31          1           0        1.923990    2.520557   -1.278001
     32          7           0        1.570355   -1.792533    0.340441
     33          8           0        0.363906   -1.773271    0.106461
     34          8           0        2.182099   -2.741560    0.825986
 ---------------------------------------------------------------------

 SCF Done:  E(RHF) =  -669.536343736     A.U. after   15 cycles
 E2 =    -0.2092050019D+01 EUMP2 =    -0.67162839375532D+03

 The electronic state is 1-A.
 Alpha  occ. eigenvalues --  -20.60996 -20.60979 -15.86028 -11.31320 -11.27879
 Alpha  occ. eigenvalues --  -11.27874 -11.27605 -11.26881 -11.26871 -11.21573
 Alpha  occ. eigenvalues --  -11.21276 -11.21152 -11.20873 -11.20565 -11.20135
 Alpha  occ. eigenvalues --   -1.60051  -1.39609  -1.19484  -1.08892  -1.08013
 Alpha  occ. eigenvalues --   -1.04876  -1.03126  -0.95741  -0.95575  -0.86592
 Alpha  occ. eigenvalues --   -0.86277  -0.82577  -0.79249  -0.77781  -0.77580
 Alpha  occ. eigenvalues --   -0.72258  -0.71362  -0.70593  -0.65147  -0.64907
 Alpha  occ. eigenvalues --   -0.64624  -0.62219  -0.60520  -0.59003  -0.57163
 Alpha  occ. eigenvalues --   -0.55379  -0.54869  -0.53207  -0.52966  -0.52311
 Alpha  occ. eigenvalues --   -0.51980  -0.49526  -0.49001  -0.48991  -0.47543
 Alpha  occ. eigenvalues --   -0.46311  -0.45322  -0.45246  -0.44842  -0.43356
 Alpha  occ. eigenvalues --   -0.37459  -0.36472
 Alpha virt. eigenvalues --    0.04862   0.11140   0.16371   0.19438   0.22875
 Alpha virt. eigenvalues --    0.24563   0.26157   0.27075   0.28024   0.28204
 Alpha virt. eigenvalues --    0.29342   0.31224   0.31875   0.32081   0.32445

 Mulliken charges:
               1
     1  C   -0.312054
     2  C   -0.296850
     3  C   -0.479357
     4  H    0.177036
     5  H    0.146978
     6  H    0.149900
     7  H    0.146713
     8  H    0.152130
     9  H    0.170297
    10  H    0.156179
    11  C   -0.297393
    12  C   -0.301677
    13  C   -0.474023
    14  H    0.141409
    15  H    0.148888
    16  H    0.150257
    17  H    0.155085
    18  H    0.157405
    19  H    0.146146
    20  H    0.159456
    21  C   -0.170476
    22  C   -0.218494
    23  C   -0.170639
    24  C    0.157786
    25  C   -0.173350
    26  C   -0.219039
    27  H    0.226258
    28  H    0.223965
    29  H    0.275860
    30  H    0.278880
    31  H    0.224629
    32  N    0.493788
    33  O   -0.467263
    34  O   -0.458430
 Sum of Mulliken charges =  -0.00000

 Dipole moment (field-independent basis, Debye):
    X=              2.9244    Y=              4.0994    Z=             -1.0657  Tot=              5.1472
 Quadrupole moment (field-independent basis, Debye-Ang):
   XX=            -78.1612   YY=           -100.5013   ZZ=            -94.9604
   XY=              6.3121   XZ=             -1.8175   YZ=              0.0486

 Normal termination of Gaussian 16 at Thu May  6 10:32:48 2021.
