 Gaussian 16, Revision A.03,
 Gaussian 16:  EM64L-G16RevA.03 25-Dec-2016

 -------------
 #p 6-31g* mp2
 -------------

 ------------------------------------------------------
 Input file generated by CHIRIPA (05-May-2021 14:55:21)
 ------------------------------------------------------
 Symbolic Z-matrix:
 Charge =  0 Multiplicity = 1

                         Standard orientation:
 ---------------------------------------------------------------------
 Center     Atomic      Atomic             Coordinates (Angstroms)
 Number     Number       Type             X           Y           Z
 ---------------------------------------------------------------------
      1          6           0        5.776553    1.519403    0.362342
      2          6           0        5.848817    0.167673    0.714653
      3          6           0        4.770774   -0.688323    0.470437
      4          6           0        3.630765   -0.156637   -0.130380
      5          6           0        3.528366    1.185510   -0.492938
      6          6           0        4.618600    2.023119   -0.239269
      7          1           0        6.618738    2.177220    0.555727
      8          1           0        6.746832   -0.226278    1.182003
      9          1           0        4.799893   -1.738861    0.733001
     10          1           0        2.619839    1.549156   -0.957435
     11          1           0        4.559667    3.072464   -0.513946
     12          7           0        2.483037   -1.053109   -0.393925
     13          8           0        1.489952   -0.560155   -0.924411
     14          8           0        2.598264   -2.231743   -0.065015
     15          6           0       -5.531914    0.214798    0.470957
     16          6           0       -6.702303    0.473862   -0.478284
     17          6           0       -7.980401    0.879891    0.256156
     18          1           0       -5.813206   -0.572917    1.183225
     19          1           0       -5.343008    1.119995    1.064530
     20          1           0       -6.888052   -0.431102   -1.070866
     21          1           0       -6.418123    1.260917   -1.188496
     22          1           0       -7.818351    1.795607    0.833914
     23          1           0       -8.290951    0.093974    0.952213
     24          1           0       -8.804247    1.060204   -0.441428
     25          6           0       -4.247094   -0.192047   -0.248378
     26          6           0       -3.076705   -0.451111    0.700862
     27          6           0       -1.798607   -0.857140   -0.033578
     28          1           0       -4.436000   -1.097244   -0.841951
     29          1           0       -3.965801    0.595667   -0.960646
     30          1           0       -3.360885   -1.238166    1.411074
     31          1           0       -2.890955    0.453853    1.293444
     32          1           0       -1.488057   -0.071223   -0.729635
     33          1           0       -1.960657   -1.772856   -0.611336
     34          1           0       -0.974760   -1.037452    0.664007
 ---------------------------------------------------------------------

 SCF Done:  E(RHF) =  -669.535475285     A.U. after   15 cycles
 E2 =    -0.2091046158D+01 EUMP2 =    -0.67162652144284D+03

 The electronic state is 1-A.
 Alpha  occ. eigenvalues --  -20.60872 -20.60845 -15.85894 -11.31256 -11.27824
 Alpha  occ. eigenvalues --  -11.27820 -11.27566 -11.26838 -11.26828 -11.21065
 Alpha  occ. eigenvalues --  -11.20716 -11.20641 -11.20512 -11.20428 -11.19340
 Alpha  occ. eigenvalues --   -1.59926  -1.39480  -1.19427  -1.08825  -1.07626
 Alpha  occ. eigenvalues --   -1.04829  -1.02618  -0.95665  -0.95019  -0.86230
 Alpha  occ. eigenvalues --   -0.86021  -0.82492  -0.78707  -0.77546  -0.77398
 Alpha  occ. eigenvalues --   -0.72109  -0.71247  -0.70536  -0.65082  -0.64832
 Alpha  occ. eigenvalues --   -0.64271  -0.62176  -0.60028  -0.58471  -0.56637
 Alpha  occ. eigenvalues --   -0.55332  -0.54323  -0.53161  -0.52922  -0.51692
 Alpha  occ. eigenvalues --   -0.51447  -0.49015  -0.48867  -0.48808  -0.47000
 Alpha  occ. eigenvalues --   -0.45786  -0.44964  -0.44908  -0.44794  -0.42815
 Alpha  occ. eigenvalues --   -0.37407  -0.36432
 Alpha virt. eigenvalues --    0.04977   0.11222   0.16465   0.21349   0.23593
 Alpha virt. eigenvalues --    0.25236   0.27262   0.27396   0.28134   0.28255
 Alpha virt. eigenvalues --    0.29062   0.30922   0.32208   0.32433   0.32627

 Mulliken charges:
               1
     1  C   -0.170720
     2  C   -0.218555
     3  C   -0.170802
     4  C    0.158049
     5  C   -0.170814
     6  C   -0.218524
     7  H    0.225828
     8  H    0.223674
     9  H    0.275795
    10  H    0.275530
    11  H    0.223639
    12  N    0.489226
    13  O   -0.458704
    14  O   -0.459954
    15  C   -0.297193
    16  C   -0.298953
    17  C   -0.475192
    18  H    0.148582
    19  H    0.147248
    20  H    0.151691
    21  H    0.150762
    22  H    0.153933
    23  H    0.154629
    24  H    0.158605
    25  C   -0.297089
    26  C   -0.302604
    27  C   -0.464964
    28  H    0.149165
    29  H    0.147671
    30  H    0.147982
    31  H    0.145737
    32  H    0.157664
    33  H    0.154100
    34  H    0.164561
 Sum of Mulliken charges =  -0.00000

 Dipole moment (field-independent basis, Debye):
    X=              4.3744    Y=              3.1068    Z=              0.8569  Tot=              5.4334
 Quadrupole moment (field-independent basis, Debye-Ang):
   XX=            -66.8802   YY=            -92.1821   ZZ=            -95.2590
   XY=              9.5559   XZ=              4.6809   YZ=             -2.4954

 Normal termination of Gaussian 16 at Thu May  6 19:08:54 2021.
