 Gaussian 16, Revision A.03,
 Gaussian 16:  EM64L-G16RevA.03 25-Dec-2016

 -------------
 #p 6-31g* mp2
 -------------

 ------------------------------------------------------
 Input file generated by CHIRIPA (05-May-2021 14:51:10)
 ------------------------------------------------------
 Symbolic Z-matrix:
 Charge =  0 Multiplicity = 1

                         Standard orientation:
 ---------------------------------------------------------------------
 Center     Atomic      Atomic             Coordinates (Angstroms)
 Number     Number       Type             X           Y           Z
 ---------------------------------------------------------------------
      1          6           0        2.006562   -0.965146    0.322046
      2          6           0        1.815626   -2.449227    0.007354
      3          6           0        0.491338   -3.000211    0.536950
      4          1           0        1.955205   -0.817888    1.409530
      5          1           0        1.172273   -0.395521   -0.110255
      6          1           0        2.650752   -3.015725    0.438934
      7          1           0        1.867636   -2.592997   -1.079496
      8          1           0       -0.353759   -2.460744    0.097191
      9          1           0        0.433807   -2.885874    1.624249
     10          1           0        0.375464   -4.062628    0.300936
     11          6           0        3.325866   -0.399809   -0.200984
     12          6           0        3.516802    1.084273    0.113708
     13          6           0        4.841090    1.635256   -0.415889
     14          1           0        4.160155   -0.969434    0.231316
     15          1           0        3.377223   -0.547067   -1.288469
     16          1           0        3.464793    1.228042    1.200557
     17          1           0        2.681677    1.650770   -0.317873
     18          1           0        4.898621    1.520920   -1.503187
     19          1           0        5.686187    1.095790    0.023870
     20          1           0        4.956965    2.697674   -0.179875
     21          6           0       -2.485201   -0.053255   -0.157300
     22          6           0       -3.702740   -0.977506   -0.193961
     23          6           0       -3.324411   -2.446166   -0.388129
     24          1           0       -1.918267   -0.166921   -1.091437
     25          1           0       -1.816631   -0.371077    0.654735
     26          1           0       -4.369485   -0.657185   -1.004801
     27          1           0       -4.266944   -0.861485    0.740291
     28          1           0       -2.677810   -2.788343    0.426378
     29          1           0       -2.780932   -2.582884   -1.328629
     30          1           0       -4.209805   -3.089126   -0.411376
     31          6           0       -2.847228    1.418209    0.036238
     32          6           0       -1.629689    2.342461    0.072900
     33          6           0       -2.008017    3.811120    0.267067
     34          1           0       -3.515797    1.736031   -0.775795
     35          1           0       -3.414161    1.531876    0.970376
     36          1           0       -1.065484    2.226440   -0.861353
     37          1           0       -0.962943    2.022140    0.883740
     38          1           0       -2.551495    3.947838    1.207568
     39          1           0       -2.654618    4.153299   -0.547440
     40          1           0       -1.122623    4.454080    0.290315
 ---------------------------------------------------------------------

 SCF Done:  E(RHF) =  -470.732515006     A.U. after   11 cycles
 E2 =    -0.1584245811D+01 EUMP2 =    -0.47231676081742D+03

 The electronic state is 1-A.
 Alpha  occ. eigenvalues --  -11.21632 -11.21616 -11.21564 -11.21521 -11.21440
 Alpha  occ. eigenvalues --  -11.21380 -11.21349 -11.21282 -11.21093 -11.21047
 Alpha  occ. eigenvalues --  -11.21025 -11.20905  -1.08474  -1.08364  -1.03571
 Alpha  occ. eigenvalues --   -1.03452  -0.96021  -0.95900  -0.87051  -0.86910
 Alpha  occ. eigenvalues --   -0.79709  -0.79464  -0.78390  -0.78076  -0.65101
 Alpha  occ. eigenvalues --   -0.64998  -0.60982  -0.60857  -0.59404  -0.59271
 Alpha  occ. eigenvalues --   -0.57679  -0.57482  -0.55313  -0.55181  -0.52694
 Alpha  occ. eigenvalues --   -0.52679  -0.52466  -0.52253  -0.49975  -0.49855
 Alpha  occ. eigenvalues --   -0.48139  -0.47680  -0.46704  -0.46563  -0.46105
 Alpha  occ. eigenvalues --   -0.45797  -0.45655  -0.45130  -0.43804  -0.43721
 Alpha virt. eigenvalues --    0.21382   0.22935   0.23400   0.24579   0.25474
 Alpha virt. eigenvalues --    0.26161   0.26991   0.27193   0.28680   0.30009
 Alpha virt. eigenvalues --    0.30280   0.31135   0.31728   0.31916   0.32228

 Mulliken charges:
               1
     1  C   -0.301740
     2  C   -0.299354
     3  C   -0.484745
     4  H    0.148565
     5  H    0.153695
     6  H    0.151218
     7  H    0.151267
     8  H    0.168048
     9  H    0.152825
    10  H    0.159600
    11  C   -0.298103
    12  C   -0.299921
    13  C   -0.475646
    14  H    0.149392
    15  H    0.149335
    16  H    0.151610
    17  H    0.152525
    18  H    0.155046
    19  H    0.155116
    20  H    0.160078
    21  C   -0.303273
    22  C   -0.299053
    23  C   -0.480765
    24  H    0.148726
    25  H    0.154288
    26  H    0.151747
    27  H    0.152002
    28  H    0.161692
    29  H    0.154584
    30  H    0.160427
    31  C   -0.298002
    32  C   -0.300878
    33  C   -0.475756
    34  H    0.149573
    35  H    0.149924
    36  H    0.151183
    37  H    0.153771
    38  H    0.155352
    39  H    0.155183
    40  H    0.160463
 Sum of Mulliken charges =  -0.00000

 Dipole moment (field-independent basis, Debye):
    X=             -0.0610    Y=              0.0115    Z=              0.0089  Tot=              0.0627
 Quadrupole moment (field-independent basis, Debye-Ang):
   XX=            -85.5340   YY=            -86.2789   ZZ=            -83.0942
   XY=             -0.3984   XZ=              0.6899   YZ=             -0.2754

 Normal termination of Gaussian 16 at Wed May  5 21:25:22 2021.
