 Gaussian 16, Revision A.03,
 Gaussian 16:  EM64L-G16RevA.03 25-Dec-2016

 -------------
 #p 6-31g* mp2
 -------------

 ------------------------------------------------------
 Input file generated by CHIRIPA (05-May-2021 14:57:27)
 ------------------------------------------------------
 Symbolic Z-matrix:
 Charge =  0 Multiplicity = 1

                         Standard orientation:
 ---------------------------------------------------------------------
 Center     Atomic      Atomic             Coordinates (Angstroms)
 Number     Number       Type             X           Y           Z
 ---------------------------------------------------------------------
      1          6           0        1.776765    1.897870    1.478461
      2          6           0        1.308074    0.612612    1.769945
      3          6           0        1.782955   -0.494257    1.060102
      4          6           0        2.730601   -0.278498    0.060750
      5          6           0        3.217014    0.989657   -0.253059
      6          6           0        2.728062    2.081965    0.469668
      7          1           0        1.402400    2.752057    2.034889
      8          1           0        0.569298    0.466650    2.552857
      9          1           0        1.437268   -1.500184    1.265114
     10          1           0        3.953612    1.103642   -1.039092
     11          1           0        3.093851    3.078969    0.241134
     12          7           0        3.240785   -1.442584   -0.697549
     13          8           0        4.075535   -1.225892   -1.573262
     14          8           0        2.796257   -2.549644   -0.401832
     15          6           0       -3.372727   -2.051085    0.940622
     16          6           0       -2.711217   -1.062124    1.676069
     17          6           0       -2.304276    0.126281    1.062360
     18          6           0       -2.576309    0.293310   -0.294618
     19          6           0       -3.233456   -0.673307   -1.054288
     20          6           0       -3.631279   -1.853868   -0.419810
     21          1           0       -3.685307   -2.971220    1.425433
     22          1           0       -2.509087   -1.212561    2.732742
     23          1           0       -1.790451    0.908409    1.607960
     24          1           0       -3.420885   -0.494631   -2.106126
     25          1           0       -4.144839   -2.620178   -0.993459
     26          7           0       -2.150326    1.547270   -0.955317
     27          8           0       -2.401862    1.670181   -2.152088
     28          8           0       -1.572969    2.383469   -0.263892
 ---------------------------------------------------------------------

 SCF Done:  E(RHF) =  -868.337477798     A.U. after   16 cycles
 E2 =    -0.2601381785D+01 EUMP2 =    -0.87093885958255D+03

 The electronic state is 1-A.
 Alpha  occ. eigenvalues --  -20.61175 -20.61162 -20.60597 -20.60578 -15.86220
 Alpha  occ. eigenvalues --  -15.85646 -11.31576 -11.30914 -11.28243 -11.28106
 Alpha  occ. eigenvalues --  -11.27877 -11.27583 -11.27463 -11.27230 -11.27207
 Alpha  occ. eigenvalues --  -11.27090 -11.26601 -11.26383  -1.60234  -1.59668
 Alpha  occ. eigenvalues --   -1.39792  -1.39225  -1.19756  -1.19096  -1.09137
 Alpha  occ. eigenvalues --   -1.08491  -1.05184  -1.04509  -0.95983  -0.95339
 Alpha  occ. eigenvalues --   -0.86572  -0.85912  -0.82836  -0.82194  -0.77896
 Alpha  occ. eigenvalues --   -0.77264  -0.72455  -0.71869  -0.71547  -0.70990
 Alpha  occ. eigenvalues --   -0.70872  -0.70175  -0.65420  -0.65218  -0.64758
 Alpha  occ. eigenvalues --   -0.64551  -0.62569  -0.61838  -0.55651  -0.54966
 Alpha  occ. eigenvalues --   -0.53508  -0.53313  -0.52756  -0.52590  -0.49214
 Alpha  occ. eigenvalues --   -0.49187  -0.48626  -0.48616  -0.45201  -0.44653
 Alpha  occ. eigenvalues --   -0.37721  -0.37050  -0.36843  -0.35940
 Alpha virt. eigenvalues --    0.04661   0.05300   0.10741   0.11619   0.16052
 Alpha virt. eigenvalues --    0.16900   0.19758   0.22190   0.25579   0.27558
 Alpha virt. eigenvalues --    0.28306   0.29288   0.30599   0.31539   0.32029

 Mulliken charges:
               1
     1  C   -0.157424
     2  C   -0.219775
     3  C   -0.170936
     4  C    0.157187
     5  C   -0.169138
     6  C   -0.216212
     7  H    0.228396
     8  H    0.210251
     9  H    0.271707
    10  H    0.275964
    11  H    0.225949
    12  N    0.488418
    13  O   -0.459815
    14  O   -0.463841
    15  C   -0.168949
    16  C   -0.222105
    17  C   -0.168957
    18  C    0.159296
    19  C   -0.168936
    20  C   -0.217446
    21  H    0.227946
    22  H    0.219913
    23  H    0.267402
    24  H    0.277931
    25  H    0.226575
    26  N    0.489284
    27  O   -0.457523
    28  O   -0.465162
 Sum of Mulliken charges =  -0.00000

 Dipole moment (field-independent basis, Debye):
    X=             -3.3518    Y=             -0.1983    Z=              4.7672  Tot=              5.8310
 Quadrupole moment (field-independent basis, Debye-Ang):
   XX=           -105.1508   YY=           -107.8894   ZZ=           -101.6537
   XY=             26.5302   XZ=              1.9729   YZ=              1.3467

 Normal termination of Gaussian 16 at Thu May  6 11:33:05 2021.
