 Gaussian 16, Revision A.03,
 Gaussian 16:  EM64L-G16RevA.03 25-Dec-2016

 -------------
 #p 6-31g* mp2
 -------------

 ------------------------------------------------------
 Input file generated by CHIRIPA (05-May-2021 14:55:23)
 ------------------------------------------------------
 Symbolic Z-matrix:
 Charge =  0 Multiplicity = 1

                         Standard orientation:
 ---------------------------------------------------------------------
 Center     Atomic      Atomic             Coordinates (Angstroms)
 Number     Number       Type             X           Y           Z
 ---------------------------------------------------------------------
      1          6           0       -0.654274    0.857018    0.541738
      2          6           0       -1.747104    1.278063    1.306569
      3          6           0       -3.027638    0.779074    1.050071
      4          6           0       -3.179877   -0.143831    0.016457
      5          6           0       -2.110845   -0.582770   -0.763154
      6          6           0       -0.839306   -0.070420   -0.488865
      7          1           0        0.336982    1.249834    0.747902
      8          1           0       -1.606375    1.998219    2.107578
      9          1           0       -3.891124    1.087879    1.626655
     10          1           0       -2.282426   -1.301753   -1.555014
     11          1           0        0.007570   -0.399207   -1.084469
     12          7           0       -4.530759   -0.679161   -0.264503
     13          8           0       -4.638459   -1.491318   -1.180712
     14          8           0       -5.456302   -0.276459    0.436809
     15          6           0        3.270400    0.625272    0.026073
     16          6           0        3.576281    1.897339   -0.765298
     17          6           0        2.537320    2.996655   -0.542007
     18          1           0        2.275786    0.254840   -0.257596
     19          1           0        3.219106    0.870759    1.095886
     20          1           0        3.628352    1.649271   -1.833177
     21          1           0        4.570363    2.264679   -0.479852
     22          1           0        2.489961    3.272728    0.516360
     23          1           0        1.542598    2.653824   -0.844654
     24          1           0        2.775430    3.896884   -1.117116
     25          6           0        4.300121   -0.482930   -0.186745
     26          6           0        3.994240   -1.754996    0.604626
     27          6           0        5.033201   -2.854313    0.381335
     28          1           0        4.351415   -0.728417   -1.256558
     29          1           0        5.294735   -0.112498    0.096924
     30          1           0        3.000159   -2.122336    0.319181
     31          1           0        3.942169   -1.506929    1.672505
     32          1           0        6.027923   -2.511482    0.683983
     33          1           0        5.080560   -3.130386   -0.677032
     34          1           0        4.795091   -3.754542    0.956444
 ---------------------------------------------------------------------

 SCF Done:  E(RHF) =  -669.534442276     A.U. after   15 cycles
 E2 =    -0.2093185440D+01 EUMP2 =    -0.67162762771653D+03

 The electronic state is 1-A.
 Alpha  occ. eigenvalues --  -20.60709 -20.60704 -15.85763 -11.31111 -11.27697
 Alpha  occ. eigenvalues --  -11.27681 -11.27304 -11.26687 -11.26659 -11.22775
 Alpha  occ. eigenvalues --  -11.22716 -11.22456 -11.22371 -11.22287 -11.21732
 Alpha  occ. eigenvalues --   -1.59785  -1.39339  -1.19282  -1.09555  -1.08667
 Alpha  occ. eigenvalues --   -1.04690  -1.04546  -0.97014  -0.95513  -0.88026
 Alpha  occ. eigenvalues --   -0.86091  -0.82362  -0.80630  -0.79391  -0.77405
 Alpha  occ. eigenvalues --   -0.71981  -0.71109  -0.70391  -0.66219  -0.64925
 Alpha  occ. eigenvalues --   -0.64682  -0.62073  -0.61895  -0.60398  -0.58633
 Alpha  occ. eigenvalues --   -0.56333  -0.55174  -0.53640  -0.53475  -0.52983
 Alpha  occ. eigenvalues --   -0.52782  -0.50952  -0.48898  -0.48739  -0.48729
 Alpha  occ. eigenvalues --   -0.47652  -0.46842  -0.46793  -0.44819  -0.44749
 Alpha  occ. eigenvalues --   -0.37230  -0.36300
 Alpha virt. eigenvalues --    0.05111   0.11307   0.16538   0.19524   0.22285
 Alpha virt. eigenvalues --    0.23547   0.24473   0.26013   0.26641   0.28431
 Alpha virt. eigenvalues --    0.29583   0.30249   0.30715   0.31196   0.31635

 Mulliken charges:
               1
     1  C   -0.174924
     2  C   -0.221259
     3  C   -0.170534
     4  C    0.157987
     5  C   -0.170310
     6  C   -0.225665
     7  H    0.238578
     8  H    0.223490
     9  H    0.275267
    10  H    0.275219
    11  H    0.224222
    12  N    0.488040
    13  O   -0.460766
    14  O   -0.460575
    15  C   -0.307912
    16  C   -0.298497
    17  C   -0.484084
    18  H    0.143384
    19  H    0.150068
    20  H    0.155214
    21  H    0.157201
    22  H    0.153250
    23  H    0.154069
    24  H    0.168163
    25  C   -0.298234
    26  C   -0.300289
    27  C   -0.476440
    28  H    0.151474
    29  H    0.153847
    30  H    0.150112
    31  H    0.153329
    32  H    0.156874
    33  H    0.156361
    34  H    0.163340
 Sum of Mulliken charges =  -0.00000

 Dipole moment (field-independent basis, Debye):
    X=              5.0621    Y=              1.8999    Z=              0.9830  Tot=              5.4955
 Quadrupole moment (field-independent basis, Debye-Ang):
   XX=           -123.9440   YY=            -94.5283   ZZ=            -91.6712
   XY=             -7.1276   XZ=             -4.3306   YZ=              2.4013

 Normal termination of Gaussian 16 at Thu May  6 09:27:24 2021.
