 Gaussian 16, Revision A.03,
 Gaussian 16:  EM64L-G16RevA.03 25-Dec-2016

 -------------
 #p 6-31g* mp2
 -------------

 ------------------------------------------------------
 Input file generated by CHIRIPA (05-May-2021 14:53:18)
 ------------------------------------------------------
 Symbolic Z-matrix:
 Charge =  0 Multiplicity = 1

                         Standard orientation:
 ---------------------------------------------------------------------
 Center     Atomic      Atomic             Coordinates (Angstroms)
 Number     Number       Type             X           Y           Z
 ---------------------------------------------------------------------
      1          6           0       -3.173597    1.255320   -0.232286
      2          6           0       -2.187287    1.862026    0.766254
      3          6           0       -1.911987    3.342293    0.500146
      4          1           0       -2.778215    1.379074   -1.249784
      5          1           0       -4.116886    1.817509   -0.192970
      6          1           0       -1.246612    1.297995    0.726057
      7          1           0       -2.584973    1.736642    1.781508
      8          1           0       -2.837999    3.923232    0.560247
      9          1           0       -1.492033    3.482092   -0.501201
     10          1           0       -1.204402    3.755781    1.225551
     11          6           0       -3.458932   -0.223975    0.020693
     12          6           0       -4.445243   -0.830682   -0.977847
     13          6           0       -4.720543   -2.310949   -0.711739
     14          1           0       -2.515644   -0.786164   -0.018623
     15          1           0       -3.854315   -0.347730    1.038191
     16          1           0       -4.047556   -0.705298   -1.993101
     17          1           0       -5.385918   -0.266651   -0.937650
     18          1           0       -5.140496   -2.450748    0.289608
     19          1           0       -3.794530   -2.891887   -0.771840
     20          1           0       -5.428128   -2.724436   -1.437144
     21          6           0        1.139517   -2.206958    1.085087
     22          6           0        2.320272   -2.548734    0.417607
     23          6           0        3.132134   -1.557462   -0.141685
     24          6           0        2.731139   -0.228456   -0.014257
     25          6           0        1.560506    0.143833    0.644764
     26          6           0        0.764066   -0.864132    1.196339
     27          1           0        0.514834   -2.983486    1.516562
     28          1           0        2.614343   -3.590768    0.329674
     29          1           0        4.051336   -1.794022   -0.663724
     30          1           0        1.293600    1.191242    0.716259
     31          1           0       -0.152389   -0.595767    1.714158
     32          7           0        3.582458    0.829796   -0.602271
     33          8           0        3.207032    1.993341   -0.476363
     34          8           0        4.609031    0.475669   -1.177929
 ---------------------------------------------------------------------

 SCF Done:  E(RHF) =  -669.535115085     A.U. after   15 cycles
 E2 =    -0.2092747223D+01 EUMP2 =    -0.67162786230816D+03

 The electronic state is 1-A.
 Alpha  occ. eigenvalues --  -20.60773 -20.60768 -15.85826 -11.31198 -11.27772
 Alpha  occ. eigenvalues --  -11.27748 -11.27502 -11.26784 -11.26728 -11.22335
 Alpha  occ. eigenvalues --  -11.22129 -11.22037 -11.21934 -11.21609 -11.21479
 Alpha  occ. eigenvalues --   -1.59849  -1.39402  -1.19372  -1.09042  -1.08760
 Alpha  occ. eigenvalues --   -1.04783  -1.04099  -0.96518  -0.95597  -0.87531
 Alpha  occ. eigenvalues --   -0.86167  -0.82447  -0.80195  -0.78905  -0.77460
 Alpha  occ. eigenvalues --   -0.72044  -0.71172  -0.70480  -0.65701  -0.65019
 Alpha  occ. eigenvalues --   -0.64760  -0.62230  -0.61399  -0.59882  -0.58148
 Alpha  occ. eigenvalues --   -0.55791  -0.55267  -0.53226  -0.53095  -0.52952
 Alpha  occ. eigenvalues --   -0.52842  -0.50449  -0.48806  -0.48800  -0.48488
 Alpha  occ. eigenvalues --   -0.47220  -0.46390  -0.46318  -0.44806  -0.44352
 Alpha  occ. eigenvalues --   -0.37348  -0.36350
 Alpha virt. eigenvalues --    0.05028   0.11193   0.16408   0.20311   0.22727
 Alpha virt. eigenvalues --    0.23439   0.25445   0.26062   0.26694   0.28341
 Alpha virt. eigenvalues --    0.29292   0.30787   0.31026   0.31552   0.32113

 Mulliken charges:
               1
     1  C   -0.297235
     2  C   -0.308564
     3  C   -0.477029
     4  H    0.154087
     5  H    0.152575
     6  H    0.146445
     7  H    0.150902
     8  H    0.157840
     9  H    0.161737
    10  H    0.162007
    11  C   -0.301850
    12  C   -0.299875
    13  C   -0.475980
    14  H    0.146740
    15  H    0.147767
    16  H    0.154772
    17  H    0.154082
    18  H    0.154610
    19  H    0.152917
    20  H    0.162773
    21  C   -0.172262
    22  C   -0.218596
    23  C   -0.170949
    24  C    0.158130
    25  C   -0.173876
    26  C   -0.220985
    27  H    0.226155
    28  H    0.223533
    29  H    0.275655
    30  H    0.277816
    31  H    0.229177
    32  N    0.488366
    33  O   -0.460467
    34  O   -0.460417
 Sum of Mulliken charges =  -0.00000

 Dipole moment (field-independent basis, Debye):
    X=             -3.1001    Y=             -3.6482    Z=              1.9819  Tot=              5.1815
 Quadrupole moment (field-independent basis, Debye-Ang):
   XX=           -108.5865   YY=            -91.5821   ZZ=            -94.6602
   XY=            -12.9056   XZ=              4.3620   YZ=              0.9724

 Normal termination of Gaussian 16 at Thu May  6 07:37:28 2021.
