 Gaussian 16, Revision A.03,
 Gaussian 16:  EM64L-G16RevA.03 25-Dec-2016

 -------------
 #p 6-31g* mp2
 -------------

 ------------------------------------------------------
 Input file generated by CHIRIPA (05-May-2021 14:51:13)
 ------------------------------------------------------
 Symbolic Z-matrix:
 Charge =  0 Multiplicity = 1

                         Standard orientation:
 ---------------------------------------------------------------------
 Center     Atomic      Atomic             Coordinates (Angstroms)
 Number     Number       Type             X           Y           Z
 ---------------------------------------------------------------------
      1          6           0        2.520512   -0.133408    0.079021
      2          6           0        3.881346    0.203843    0.689249
      3          6           0        4.099734    1.708376    0.851981
      4          1           0        2.432076    0.359277   -0.898928
      5          1           0        1.727742    0.286609    0.713447
      6          1           0        4.671276   -0.217872    0.054597
      7          1           0        3.966630   -0.289858    1.665774
      8          1           0        3.332748    2.140830    1.502609
      9          1           0        4.041398    2.213225   -0.117722
     10          1           0        5.078685    1.926903    1.289888
     11          6           0        2.287399   -1.633685   -0.089961
     12          6           0        0.926565   -1.970936   -0.700189
     13          6           0        0.708176   -3.475468   -0.862922
     14          1           0        3.080169   -2.053702   -0.724388
     15          1           0        2.375835   -2.126370    0.887988
     16          1           0        0.841281   -1.477234   -1.676714
     17          1           0        0.136635   -1.549220   -0.065537
     18          1           0        0.766512   -3.980318    0.106782
     19          1           0        1.475162   -3.907923   -1.513550
     20          1           0       -0.270774   -3.693995   -1.300828
     21          6           0       -1.869898    1.200288   -0.439379
     22          6           0       -1.656149    2.689047   -0.163894
     23          6           0       -0.584696    3.308495   -1.061707
     24          1           0       -0.919263    0.667773   -0.299157
     25          1           0       -2.150816    1.066161   -1.493177
     26          1           0       -1.377068    2.820455    0.889415
     27          1           0       -2.607449    3.218052   -0.304603
     28          1           0       -0.859950    3.206758   -2.116452
     29          1           0        0.377422    2.806901   -0.915650
     30          1           0       -0.448151    4.373154   -0.847889
     31          6           0       -2.938012    0.566804    0.450319
     32          6           0       -3.151762   -0.921955    0.174835
     33          6           0       -4.223214   -1.541403    1.072647
     34          1           0       -2.657096    0.700931    1.504117
     35          1           0       -3.888649    1.099320    0.310097
     36          1           0       -2.200462   -1.450960    0.315542
     37          1           0       -3.430844   -1.053362   -0.878475
     38          1           0       -5.185333   -1.039808    0.926590
     39          1           0       -3.947960   -1.439665    2.127392
     40          1           0       -4.359760   -2.606060    0.858829
 ---------------------------------------------------------------------

 SCF Done:  E(RHF) =  -470.732696399     A.U. after   11 cycles
 E2 =    -0.1584663704D+01 EUMP2 =    -0.47231736010279D+03

 The electronic state is 1-A.
 Alpha  occ. eigenvalues --  -11.21665 -11.21611 -11.21569 -11.21542 -11.21485
 Alpha  occ. eigenvalues --  -11.21414 -11.21355 -11.21257 -11.21118 -11.21096
 Alpha  occ. eigenvalues --  -11.21060 -11.20998  -1.08513  -1.08372  -1.03585
 Alpha  occ. eigenvalues --   -1.03484  -0.96030  -0.95934  -0.87046  -0.86951
 Alpha  occ. eigenvalues --   -0.79685  -0.79537  -0.78494  -0.78023  -0.65269
 Alpha  occ. eigenvalues --   -0.64903  -0.61058  -0.60827  -0.59426  -0.59278
 Alpha  occ. eigenvalues --   -0.57636  -0.57546  -0.55327  -0.55219  -0.52727
 Alpha  occ. eigenvalues --   -0.52629  -0.52464  -0.52346  -0.49991  -0.49869
 Alpha  occ. eigenvalues --   -0.48063  -0.47846  -0.46890  -0.46596  -0.46306
 Alpha  occ. eigenvalues --   -0.45788  -0.45684  -0.44891  -0.43830  -0.43731
 Alpha virt. eigenvalues --    0.20676   0.22281   0.23566   0.24584   0.25488
 Alpha virt. eigenvalues --    0.26157   0.27003   0.27293   0.28301   0.29809
 Alpha virt. eigenvalues --    0.31152   0.31478   0.31535   0.31788   0.32501

 Mulliken charges:
               1
     1  C   -0.301736
     2  C   -0.299685
     3  C   -0.476225
     4  H    0.151181
     5  H    0.150437
     6  H    0.152416
     7  H    0.152095
     8  H    0.155232
     9  H    0.155676
    10  H    0.160676
    11  C   -0.297690
    12  C   -0.308214
    13  C   -0.475936
    14  H    0.149850
    15  H    0.149398
    16  H    0.153054
    17  H    0.159509
    18  H    0.154754
    19  H    0.155396
    20  H    0.161324
    21  C   -0.306972
    22  C   -0.298730
    23  C   -0.477965
    24  H    0.159440
    25  H    0.148937
    26  H    0.150948
    27  H    0.151578
    28  H    0.154621
    29  H    0.157811
    30  H    0.159888
    31  C   -0.297844
    32  C   -0.306473
    33  C   -0.475129
    34  H    0.148336
    35  H    0.149595
    36  H    0.158454
    37  H    0.151866
    38  H    0.155212
    39  H    0.154770
    40  H    0.160146
 Sum of Mulliken charges =  -0.00000

 Dipole moment (field-independent basis, Debye):
    X=              0.0532    Y=             -0.0360    Z=             -0.0155  Tot=              0.0661
 Quadrupole moment (field-independent basis, Debye-Ang):
   XX=            -84.7827   YY=            -86.2798   ZZ=            -83.7707
   XY=             -0.8572   XZ=              0.5107   YZ=             -0.0191

 Normal termination of Gaussian 16 at Thu May  6 00:48:33 2021.
