 Gaussian 16, Revision A.03,
 Gaussian 16:  EM64L-G16RevA.03 25-Dec-2016

 -------------
 #p 6-31g* mp2
 -------------

 ------------------------------------------------------
 Input file generated by CHIRIPA (05-May-2021 14:55:18)
 ------------------------------------------------------
 Symbolic Z-matrix:
 Charge =  0 Multiplicity = 1

                         Standard orientation:
 ---------------------------------------------------------------------
 Center     Atomic      Atomic             Coordinates (Angstroms)
 Number     Number       Type             X           Y           Z
 ---------------------------------------------------------------------
      1          6           0        5.187921   -0.189263   -0.546320
      2          6           0        4.745098    0.583319    0.532358
      3          6           0        3.399521    0.568195    0.911493
      4          6           0        2.520128   -0.234574    0.186565
      5          6           0        2.930763   -1.015432   -0.892754
      6          6           0        4.280939   -0.984770   -1.254186
      7          1           0        6.234983   -0.171479   -0.833965
      8          1           0        5.447229    1.202062    1.083915
      9          1           0        3.029737    1.156493    1.742506
     10          1           0        2.207206   -1.622300   -1.423409
     11          1           0        4.622014   -1.585795   -2.092327
     12          7           0        1.093192   -0.258809    0.578567
     13          8           0        0.338403   -0.974430   -0.076274
     14          8           0        0.756568    0.438274    1.533238
     15          6           0       -3.516484   -0.376263    0.207956
     16          6           0       -4.528474   -1.380891   -0.343938
     17          6           0       -4.495849   -2.719244    0.394668
     18          1           0       -2.508290   -0.807896    0.143285
     19          1           0       -3.718266   -0.211969    1.275517
     20          1           0       -4.325706   -1.542191   -1.410466
     21          1           0       -5.534355   -0.946739   -0.278121
     22          1           0       -4.719961   -2.578532    1.457012
     23          1           0       -3.504444   -3.177367    0.318233
     24          1           0       -5.227087   -3.422403   -0.016085
     25          6           0       -3.537096    0.966546   -0.520170
     26          6           0       -2.525106    1.971173    0.031724
     27          6           0       -2.557731    3.309527   -0.706882
     28          1           0       -3.335314    0.802252   -1.587731
     29          1           0       -4.545290    1.398179   -0.455497
     30          1           0       -1.519225    1.537022   -0.034093
     31          1           0       -2.727874    2.132473    1.098253
     32          1           0       -3.549136    3.767650   -0.630447
     33          1           0       -2.333619    3.168816   -1.769226
     34          1           0       -1.826493    4.012685   -0.296128
 ---------------------------------------------------------------------

 SCF Done:  E(RHF) =  -669.536766273     A.U. after   15 cycles
 E2 =    -0.2092453269D+01 EUMP2 =    -0.67162921954216D+03

 The electronic state is 1-A.
 Alpha  occ. eigenvalues --  -20.61193 -20.61185 -15.86182 -11.31433 -11.27982
 Alpha  occ. eigenvalues --  -11.27976 -11.27704 -11.26967 -11.26957 -11.20267
 Alpha  occ. eigenvalues --  -11.19983 -11.19925 -11.19901 -11.19878 -11.19513
 Alpha  occ. eigenvalues --   -1.60225  -1.39782  -1.19588  -1.09007  -1.06889
 Alpha  occ. eigenvalues --   -1.04970  -1.02159  -0.95860  -0.94632  -0.86375
 Alpha  occ. eigenvalues --   -0.85658  -0.82698  -0.78192  -0.77761  -0.76651
 Alpha  occ. eigenvalues --   -0.72391  -0.71533  -0.70695  -0.65244  -0.64973
 Alpha  occ. eigenvalues --   -0.63518  -0.62317  -0.59570  -0.58004  -0.56234
 Alpha  occ. eigenvalues --   -0.55479  -0.53935  -0.53307  -0.53060  -0.51395
 Alpha  occ. eigenvalues --   -0.51062  -0.49236  -0.49167  -0.48568  -0.46516
 Alpha  occ. eigenvalues --   -0.45269  -0.45129  -0.44235  -0.43939  -0.42354
 Alpha  occ. eigenvalues --   -0.37560  -0.36566
 Alpha virt. eigenvalues --    0.04726   0.11091   0.16247   0.21225   0.24382
 Alpha virt. eigenvalues --    0.25541   0.27161   0.27972   0.28273   0.29048
 Alpha virt. eigenvalues --    0.29504   0.30874   0.32332   0.32624   0.32995

 Mulliken charges:
               1
     1  C   -0.170194
     2  C   -0.218647
     3  C   -0.170309
     4  C    0.158921
     5  C   -0.170628
     6  C   -0.218597
     7  H    0.226559
     8  H    0.224376
     9  H    0.276325
    10  H    0.275904
    11  H    0.224324
    12  N    0.488241
    13  O   -0.460352
    14  O   -0.456157
    15  C   -0.311088
    16  C   -0.297786
    17  C   -0.474984
    18  H    0.181431
    19  H    0.145395
    20  H    0.147876
    21  H    0.145906
    22  H    0.153231
    23  H    0.158208
    24  H    0.153977
    25  C   -0.296071
    26  C   -0.301664
    27  C   -0.475402
    28  H    0.144246
    29  H    0.141935
    30  H    0.167216
    31  H    0.151148
    32  H    0.150767
    33  H    0.150115
    34  H    0.155779
 Sum of Mulliken charges =  -0.00000

 Dipole moment (field-independent basis, Debye):
    X=              5.5815    Y=             -0.0404    Z=             -1.2549  Tot=              5.7210
 Quadrupole moment (field-independent basis, Debye-Ang):
   XX=            -71.0162   YY=            -95.0656   ZZ=            -92.8004
   XY=             -0.4215   XZ=             -2.5820   YZ=              4.1080

 Normal termination of Gaussian 16 at Thu May  6 01:16:27 2021.
