 Gaussian 16, Revision A.03,
 Gaussian 16:  EM64L-G16RevA.03 25-Dec-2016

 -------------
 #p 6-31g* mp2
 -------------

 ------------------------------------------------------
 Input file generated by CHIRIPA (05-May-2021 14:51:09)
 ------------------------------------------------------
 Symbolic Z-matrix:
 Charge =  0 Multiplicity = 1

                         Standard orientation:
 ---------------------------------------------------------------------
 Center     Atomic      Atomic             Coordinates (Angstroms)
 Number     Number       Type             X           Y           Z
 ---------------------------------------------------------------------
      1          6           0        2.494881   -1.455291    0.084350
      2          6           0        1.142959   -1.483689    0.798131
      3          6           0        0.486074   -2.863988    0.765411
      4          1           0        2.358604   -1.773460   -0.958311
      5          1           0        3.163599   -2.191784    0.551029
      6          1           0        0.477441   -0.746384    0.331136
      7          1           0        1.282439   -1.165232    1.839163
      8          1           0        1.127651   -3.607519    1.249291
      9          1           0        0.318079   -3.186292   -0.267304
     10          1           0       -0.479161   -2.861573    1.281333
     11          6           0        3.163997   -0.082183    0.108544
     12          6           0        4.515920   -0.053785   -0.605237
     13          6           0        5.172804    1.326514   -0.572516
     14          1           0        2.495279    0.654310   -0.358135
     15          1           0        3.300275    0.235986    1.151205
     16          1           0        4.376439   -0.372242   -1.646268
     17          1           0        5.181437   -0.791090   -0.138242
     18          1           0        5.340799    1.648818    0.460198
     19          1           0        4.531227    2.070045   -1.056397
     20          1           0        6.138039    1.324099   -1.088438
     21          6           0       -2.177472    1.166693   -0.094816
     22          6           0       -2.340362    2.595265    0.425411
     23          6           0       -1.027368    3.378738    0.422573
     24          1           0       -1.434198    0.641641    0.520660
     25          1           0       -1.771247    1.199590   -1.115254
     26          1           0       -2.747458    2.559720    1.444050
     27          1           0       -3.083476    3.116916   -0.191256
     28          1           0       -0.619817    3.443872   -0.591458
     29          1           0       -0.281891    2.883510    1.053139
     30          1           0       -1.166783    4.397216    0.798245
     31          6           0       -3.481406    0.370781   -0.098079
     32          6           0       -3.318516   -1.057790   -0.618305
     33          6           0       -4.631510   -1.841265   -0.615468
     34          1           0       -3.887630    0.337884    0.922360
     35          1           0       -4.224679    0.895833   -0.713553
     36          1           0       -2.575403   -1.579444   -0.001638
     37          1           0       -2.911420   -1.022247   -1.636944
     38          1           0       -5.376987   -1.346036   -1.246033
     39          1           0       -5.039061   -1.906398    0.398564
     40          1           0       -4.492095   -2.859741   -0.991139
 ---------------------------------------------------------------------

 SCF Done:  E(RHF) =  -470.733179821     A.U. after   11 cycles
 E2 =    -0.1583601520D+01 EUMP2 =    -0.47231678134125D+03

 The electronic state is 1-A.
 Alpha  occ. eigenvalues --  -11.21609 -11.21587 -11.21586 -11.21568 -11.21405
 Alpha  occ. eigenvalues --  -11.21389 -11.21346 -11.21330 -11.21087 -11.21077
 Alpha  occ. eigenvalues --  -11.21066 -11.21053  -1.08454  -1.08402  -1.03534
 Alpha  occ. eigenvalues --   -1.03519  -0.95984  -0.95972  -0.87020  -0.86967
 Alpha  occ. eigenvalues --   -0.79651  -0.79541  -0.78358  -0.78134  -0.65162
 Alpha  occ. eigenvalues --   -0.64967  -0.60942  -0.60912  -0.59382  -0.59316
 Alpha  occ. eigenvalues --   -0.57624  -0.57561  -0.55285  -0.55248  -0.52699
 Alpha  occ. eigenvalues --   -0.52651  -0.52462  -0.52353  -0.49997  -0.49850
 Alpha  occ. eigenvalues --   -0.48035  -0.47821  -0.46773  -0.46559  -0.46059
 Alpha  occ. eigenvalues --   -0.45756  -0.45728  -0.45227  -0.43785  -0.43770
 Alpha virt. eigenvalues --    0.20942   0.23055   0.23500   0.24186   0.25957
 Alpha virt. eigenvalues --    0.26587   0.27137   0.27425   0.27896   0.29604
 Alpha virt. eigenvalues --    0.30755   0.31503   0.31733   0.31826   0.32231

 Mulliken charges:
               1
     1  C   -0.297433
     2  C   -0.308938
     3  C   -0.476550
     4  H    0.149677
     5  H    0.149360
     6  H    0.161058
     7  H    0.150786
     8  H    0.155234
     9  H    0.155974
    10  H    0.160289
    11  C   -0.298839
    12  C   -0.299629
    13  C   -0.475723
    14  H    0.150392
    15  H    0.149313
    16  H    0.151885
    17  H    0.151853
    18  H    0.155151
    19  H    0.155422
    20  H    0.160145
    21  C   -0.306137
    22  C   -0.298890
    23  C   -0.476351
    24  H    0.158073
    25  H    0.148367
    26  H    0.151935
    27  H    0.151935
    28  H    0.154613
    29  H    0.156078
    30  H    0.160435
    31  C   -0.297532
    32  C   -0.304783
    33  C   -0.475552
    34  H    0.149287
    35  H    0.149652
    36  H    0.157517
    37  H    0.151340
    38  H    0.155132
    39  H    0.155019
    40  H    0.160435
 Sum of Mulliken charges =  -0.00000

 Dipole moment (field-independent basis, Debye):
    X=             -0.0022    Y=              0.0027    Z=              0.0006  Tot=              0.0036
 Quadrupole moment (field-independent basis, Debye-Ang):
   XX=            -85.7345   YY=            -86.0113   ZZ=            -83.1128
   XY=             -1.3172   XZ=              0.5465   YZ=             -0.4737

 Normal termination of Gaussian 16 at Thu May  6 00:35:30 2021.
