 Gaussian 16, Revision A.03,
 Gaussian 16:  EM64L-G16RevA.03 25-Dec-2016

 -------------
 #p 6-31g* mp2
 -------------

 ------------------------------------------------------
 Input file generated by CHIRIPA (05-May-2021 14:57:23)
 ------------------------------------------------------
 Symbolic Z-matrix:
 Charge =  0 Multiplicity = 1

                         Standard orientation:
 ---------------------------------------------------------------------
 Center     Atomic      Atomic             Coordinates (Angstroms)
 Number     Number       Type             X           Y           Z
 ---------------------------------------------------------------------
      1          6           0        4.497949   -1.949175   -0.240554
      2          6           0        5.266396   -0.841284    0.131717
      3          6           0        4.687350    0.428415    0.216094
      4          6           0        3.331006    0.554577   -0.080056
      5          6           0        2.538945   -0.529966   -0.453816
      6          6           0        3.139071   -1.790261   -0.531619
      7          1           0        4.955954   -2.931855   -0.303546
      8          1           0        6.321946   -0.961723    0.358332
      9          1           0        5.258928    1.303117    0.501773
     10          1           0        1.489118   -0.378555   -0.673719
     11          1           0        2.539840   -2.648881   -0.820994
     12          7           0        2.706837    1.893772    0.005790
     13          8           0        1.509872    1.978453   -0.260183
     14          8           0        3.426397    2.833394    0.337423
     15          6           0       -5.491188    0.990342   -0.522138
     16          6           0       -5.139143    0.829140    0.821960
     17          6           0       -4.001385    0.097463    1.175090
     18          6           0       -3.234983   -0.461880    0.153790
     19          6           0       -3.559583   -0.318992   -1.194359
     20          6           0       -4.701677    0.416772   -1.524242
     21          1           0       -6.376710    1.560314   -0.787429
     22          1           0       -5.750419    1.273462    1.602322
     23          1           0       -3.705768   -0.042970    2.207713
     24          1           0       -2.930539   -0.773724   -1.949965
     25          1           0       -4.972660    0.540323   -2.568917
     26          7           0       -2.028195   -1.238638    0.515329
     27          8           0       -1.369621   -1.721448   -0.403264
     28          8           0       -1.763738   -1.349942    1.710448
 ---------------------------------------------------------------------

 SCF Done:  E(RHF) =  -868.340419022     A.U. after   16 cycles
 E2 =    -0.2598264401D+01 EUMP2 =    -0.87093868342305D+03

 The electronic state is 1-A.
 Alpha  occ. eigenvalues --  -20.61075 -20.61016 -20.60059 -20.60054 -15.86069
 Alpha  occ. eigenvalues --  -15.85104 -11.31149 -11.30242 -11.27708 -11.27684
 Alpha  occ. eigenvalues --  -11.27408 -11.26880 -11.26665 -11.26651 -11.26649
 Alpha  occ. eigenvalues --  -11.26566 -11.25877 -11.25674  -1.60097  -1.59136
 Alpha  occ. eigenvalues --   -1.39663  -1.38695  -1.19300  -1.18414  -1.08753
 Alpha  occ. eigenvalues --   -1.07869  -1.04672  -1.03763  -0.95636  -0.94730
 Alpha  occ. eigenvalues --   -0.86086  -0.85190  -0.82487  -0.81555  -0.77558
 Alpha  occ. eigenvalues --   -0.76613  -0.72314  -0.71389  -0.71324  -0.70450
 Alpha  occ. eigenvalues --   -0.70428  -0.69536  -0.64970  -0.64687  -0.64068
 Alpha  occ. eigenvalues --   -0.63768  -0.62031  -0.61091  -0.55200  -0.54332
 Alpha  occ. eigenvalues --   -0.52999  -0.52773  -0.52139  -0.51846  -0.49077
 Alpha  occ. eigenvalues --   -0.49035  -0.48092  -0.48072  -0.45124  -0.44150
 Alpha  occ. eigenvalues --   -0.37261  -0.36430  -0.36252  -0.35357
 Alpha virt. eigenvalues --    0.04946   0.05885   0.11406   0.12281   0.16472
 Alpha virt. eigenvalues --    0.17407   0.21498   0.22436   0.27429   0.28179
 Alpha virt. eigenvalues --    0.28531   0.29295   0.31071   0.31949   0.32569

 Mulliken charges:
               1
     1  C   -0.171205
     2  C   -0.219476
     3  C   -0.172018
     4  C    0.157192
     5  C   -0.171050
     6  C   -0.219948
     7  H    0.222924
     8  H    0.219652
     9  H    0.272004
    10  H    0.286200
    11  H    0.230574
    12  N    0.488448
    13  O   -0.462501
    14  O   -0.464205
    15  C   -0.169466
    16  C   -0.218196
    17  C   -0.168799
    18  C    0.160356
    19  C   -0.168443
    20  C   -0.218003
    21  H    0.226184
    22  H    0.224099
    23  H    0.275989
    24  H    0.273594
    25  H    0.223679
    26  N    0.490654
    27  O   -0.471712
    28  O   -0.456528
 Sum of Mulliken charges =  -0.00000

 Dipole moment (field-independent basis, Debye):
    X=             -2.4462    Y=             -2.0443    Z=             -1.5398  Tot=              3.5404
 Quadrupole moment (field-independent basis, Debye-Ang):
   XX=            -59.9972   YY=           -113.2465   ZZ=           -100.8163
   XY=            -20.5362   XZ=              2.5859   YZ=              2.7654

 Normal termination of Gaussian 16 at Fri May  7 06:28:40 2021.
