 Gaussian 16, Revision A.03,
 Gaussian 16:  EM64L-G16RevA.03 25-Dec-2016

 -------------
 #p 6-31g* mp2
 -------------

 ------------------------------------------------------
 Input file generated by CHIRIPA (05-May-2021 14:55:21)
 ------------------------------------------------------
 Symbolic Z-matrix:
 Charge =  0 Multiplicity = 1

                         Standard orientation:
 ---------------------------------------------------------------------
 Center     Atomic      Atomic             Coordinates (Angstroms)
 Number     Number       Type             X           Y           Z
 ---------------------------------------------------------------------
      1          6           0       -4.881410    0.238535   -1.113337
      2          6           0       -4.453050   -1.092316   -1.070171
      3          6           0       -3.305825   -1.446060   -0.353731
      4          6           0       -2.607878   -0.438874    0.310902
      5          6           0       -3.009311    0.895877    0.286835
      6          6           0       -4.159446    1.226642   -0.435891
      7          1           0       -5.773733    0.504407   -1.672326
      8          1           0       -5.011761   -1.861794   -1.595329
      9          1           0       -2.951833   -2.468604   -0.303601
     10          1           0       -2.431541    1.640798    0.820400
     11          1           0       -4.489772    2.261012   -0.467662
     12          7           0       -1.391821   -0.801204    1.072692
     13          8           0       -0.794506    0.104814    1.649739
     14          8           0       -1.059017   -1.984355    1.078311
     15          6           0        3.239821    1.051315    0.133157
     16          6           0        1.917220    1.463891   -0.513753
     17          6           0        1.219280    2.597230    0.238723
     18          1           0        3.052740    0.743583    1.171061
     19          1           0        3.904707    1.924825    0.181143
     20          1           0        1.255540    0.589539   -0.561762
     21          1           0        2.107443    1.770496   -1.550297
     22          1           0        1.857541    3.486004    0.274875
     23          1           0        1.000798    2.298337    1.269028
     24          1           0        0.275899    2.876309   -0.240866
     25          6           0        3.949423   -0.080671   -0.607651
     26          6           0        5.272024   -0.493247    0.039258
     27          6           0        5.969963   -1.626586   -0.713217
     28          1           0        3.284537   -0.954180   -0.655637
     29          1           0        4.136505    0.227061   -1.645556
     30          1           0        5.081801   -0.799851    1.075803
     31          1           0        5.933703    0.381105    0.087267
     32          1           0        6.188446   -1.327693   -1.743522
     33          1           0        5.331703   -2.515359   -0.749369
     34          1           0        6.913346   -1.905664   -0.233628
 ---------------------------------------------------------------------

 SCF Done:  E(RHF) =  -669.536175938     A.U. after   15 cycles
 E2 =    -0.2091956159D+01 EUMP2 =    -0.67162813209646D+03

 The electronic state is 1-A.
 Alpha  occ. eigenvalues --  -20.60985 -20.60967 -15.86003 -11.31289 -11.27852
 Alpha  occ. eigenvalues --  -11.27838 -11.27585 -11.26853 -11.26841 -11.20857
 Alpha  occ. eigenvalues --  -11.20654 -11.20533 -11.20440 -11.20395 -11.20117
 Alpha  occ. eigenvalues --   -1.60038  -1.39594  -1.19456  -1.08869  -1.07542
 Alpha  occ. eigenvalues --   -1.04847  -1.02682  -0.95721  -0.95139  -0.86250
 Alpha  occ. eigenvalues --   -0.86169  -0.82552  -0.78770  -0.77607  -0.77359
 Alpha  occ. eigenvalues --   -0.72242  -0.71359  -0.70565  -0.65118  -0.64851
 Alpha  occ. eigenvalues --   -0.64137  -0.62195  -0.60036  -0.58545  -0.56776
 Alpha  occ. eigenvalues --   -0.55355  -0.54392  -0.53180  -0.52941  -0.51889
 Alpha  occ. eigenvalues --   -0.51580  -0.49164  -0.48985  -0.48872  -0.47096
 Alpha  occ. eigenvalues --   -0.45768  -0.45072  -0.44847  -0.44747  -0.42954
 Alpha  occ. eigenvalues --   -0.37434  -0.36445
 Alpha virt. eigenvalues --    0.04894   0.11183   0.16374   0.21140   0.23738
 Alpha virt. eigenvalues --    0.24741   0.27021   0.27447   0.27904   0.28313
 Alpha virt. eigenvalues --    0.29210   0.31014   0.31767   0.32243   0.32536

 Mulliken charges:
               1
     1  C   -0.170418
     2  C   -0.218589
     3  C   -0.170746
     4  C    0.157541
     5  C   -0.171517
     6  C   -0.218797
     7  H    0.226020
     8  H    0.223799
     9  H    0.275680
    10  H    0.278095
    11  H    0.224031
    12  N    0.490219
    13  O   -0.461342
    14  O   -0.459528
    15  C   -0.299300
    16  C   -0.295920
    17  C   -0.476742
    18  H    0.159145
    19  H    0.144701
    20  H    0.154706
    21  H    0.144247
    22  H    0.147966
    23  H    0.174686
    24  H    0.145690
    25  C   -0.298913
    26  C   -0.299407
    27  C   -0.475480
    28  H    0.153927
    29  H    0.145243
    30  H    0.154467
    31  H    0.149358
    32  H    0.152788
    33  H    0.156153
    34  H    0.158242
 Sum of Mulliken charges =  -0.00000

 Dipole moment (field-independent basis, Debye):
    X=             -4.4830    Y=              1.1334    Z=             -2.5003  Tot=              5.2568
 Quadrupole moment (field-independent basis, Debye-Ang):
   XX=            -73.7040   YY=            -92.0833   ZZ=            -96.7337
   XY=             -0.2167   XZ=              6.5287   YZ=              2.5423

 Normal termination of Gaussian 16 at Thu May  6 04:36:01 2021.
