 Gaussian 16, Revision A.03,
 Gaussian 16:  EM64L-G16RevA.03 25-Dec-2016

 -------------
 #p 6-31g* mp2
 -------------

 ------------------------------------------------------
 Input file generated by CHIRIPA (05-May-2021 14:53:11)
 ------------------------------------------------------
 Symbolic Z-matrix:
 Charge =  0 Multiplicity = 1

                         Standard orientation:
 ---------------------------------------------------------------------
 Center     Atomic      Atomic             Coordinates (Angstroms)
 Number     Number       Type             X           Y           Z
 ---------------------------------------------------------------------
      1          6           0       -4.011765    0.196526    0.121275
      2          6           0       -4.984249   -0.906610   -0.297476
      3          6           0       -6.237612   -0.361051   -0.982486
      4          1           0       -4.526598    0.893439    0.796704
      5          1           0       -3.722706    0.777034   -0.765771
      6          1           0       -5.270312   -1.485729    0.589882
      7          1           0       -4.466985   -1.601084   -0.971835
      8          1           0       -5.970696    0.199891   -1.883985
      9          1           0       -6.778587    0.315901   -0.313395
     10          1           0       -6.918973   -1.166618   -1.273467
     11          6           0       -2.753859   -0.333157    0.807449
     12          6           0       -1.781376    0.769979    1.226200
     13          6           0       -0.528012    0.224421    1.911210
     14          1           0       -3.042918   -0.913664    1.694495
     15          1           0       -2.239026   -1.030070    0.132020
     16          1           0       -2.298639    1.464453    1.900559
     17          1           0       -1.495313    1.349099    0.338842
     18          1           0        0.012963   -0.452531    1.242119
     19          1           0       -0.794928   -0.336522    2.812709
     20          1           0        0.153349    1.029988    2.202191
     21          6           0        3.698275   -2.204628    0.028857
     22          6           0        2.493601   -2.107688   -0.675333
     23          6           0        1.899754   -0.861812   -0.898235
     24          6           0        2.540785    0.271666   -0.400645
     25          6           0        3.741527    0.207717    0.304634
     26          6           0        4.317302   -1.048654    0.515735
     27          1           0        4.152570   -3.176531    0.197429
     28          1           0        2.010611   -3.003746   -1.054605
     29          1           0        0.967573   -0.757971   -1.440152
     30          1           0        4.199333    1.118735    0.670527
     31          1           0        5.252914   -1.120920    1.062958
     32          7           0        1.921672    1.596175   -0.630375
     33          8           0        2.506396    2.579757   -0.181710
     34          8           0        0.863409    1.625663   -1.254753
 ---------------------------------------------------------------------

 SCF Done:  E(RHF) =  -669.535434457     A.U. after   15 cycles
 E2 =    -0.2093795384D+01 EUMP2 =    -0.67162922984100D+03

 The electronic state is 1-A.
 Alpha  occ. eigenvalues --  -20.60949 -20.60940 -15.85960 -11.31254 -11.27826
 Alpha  occ. eigenvalues --  -11.27823 -11.27566 -11.26849 -11.26831 -11.21328
 Alpha  occ. eigenvalues --  -11.20996 -11.20931 -11.20811 -11.20786 -11.20597
 Alpha  occ. eigenvalues --   -1.59994  -1.39555  -1.19443  -1.08844  -1.07987
 Alpha  occ. eigenvalues --   -1.04845  -1.03088  -0.95701  -0.95582  -0.86621
 Alpha  occ. eigenvalues --   -0.86235  -0.82532  -0.79153  -0.77789  -0.77586
 Alpha  occ. eigenvalues --   -0.72198  -0.71320  -0.70556  -0.65107  -0.64851
 Alpha  occ. eigenvalues --   -0.64600  -0.62197  -0.60478  -0.58946  -0.57184
 Alpha  occ. eigenvalues --   -0.55351  -0.54958  -0.53194  -0.52931  -0.52278
 Alpha  occ. eigenvalues --   -0.51967  -0.49523  -0.48961  -0.48945  -0.47483
 Alpha  occ. eigenvalues --   -0.46185  -0.45401  -0.45331  -0.44741  -0.43353
 Alpha  occ. eigenvalues --   -0.37368  -0.36405
 Alpha virt. eigenvalues --    0.04895   0.11147   0.16384   0.21051   0.23151
 Alpha virt. eigenvalues --    0.24485   0.26536   0.27491   0.28043   0.28279
 Alpha virt. eigenvalues --    0.28655   0.30962   0.31582   0.32012   0.32331

 Mulliken charges:
               1
     1  C   -0.298996
     2  C   -0.298830
     3  C   -0.475560
     4  H    0.149939
     5  H    0.154299
     6  H    0.150296
     7  H    0.148932
     8  H    0.156230
     9  H    0.155415
    10  H    0.158439
    11  C   -0.295744
    12  C   -0.308160
    13  C   -0.482842
    14  H    0.146027
    15  H    0.141407
    16  H    0.150028
    17  H    0.176409
    18  H    0.151745
    19  H    0.151504
    20  H    0.161593
    21  C   -0.170395
    22  C   -0.218067
    23  C   -0.174683
    24  C    0.163981
    25  C   -0.170912
    26  C   -0.218119
    27  H    0.226046
    28  H    0.224007
    29  H    0.275800
    30  H    0.275755
    31  H    0.223837
    32  N    0.490169
    33  O   -0.459076
    34  O   -0.460472
 Sum of Mulliken charges =  -0.00000

 Dipole moment (field-independent basis, Debye):
    X=              2.3471    Y=             -4.5148    Z=              0.7116  Tot=              5.1380
 Quadrupole moment (field-independent basis, Debye-Ang):
   XX=            -81.9267   YY=            -96.8075   ZZ=            -94.5635
   XY=             -9.7564   XZ=              2.6365   YZ=              3.5625

 Normal termination of Gaussian 16 at Wed May  5 15:25:43 2021.
