 Gaussian 16, Revision A.03,
 Gaussian 16:  EM64L-G16RevA.03 25-Dec-2016

 -------------
 #p 6-31g* mp2
 -------------

 ------------------------------------------------------
 Input file generated by CHIRIPA (05-May-2021 14:53:11)
 ------------------------------------------------------
 Symbolic Z-matrix:
 Charge =  0 Multiplicity = 1

                         Standard orientation:
 ---------------------------------------------------------------------
 Center     Atomic      Atomic             Coordinates (Angstroms)
 Number     Number       Type             X           Y           Z
 ---------------------------------------------------------------------
      1          6           0        3.605056    1.123548   -0.455716
      2          6           0        2.815847    2.010939    0.507442
      3          6           0        2.384515    3.333836   -0.126348
      4          1           0        4.491386    1.670450   -0.805375
      5          1           0        2.991103    0.922398   -1.344533
      6          1           0        3.430584    2.209216    1.394798
      7          1           0        1.931395    1.461789    0.854997
      8          1           0        1.750052    3.153578   -1.000169
      9          1           0        3.257760    3.905251   -0.457301
     10          1           0        1.821837    3.952602    0.579614
     11          6           0        4.043267   -0.202518    0.163354
     12          6           0        4.832475   -1.089909   -0.799803
     13          6           0        5.263807   -2.412806   -0.166014
     14          1           0        4.657219   -0.001369    1.052172
     15          1           0        3.156937   -0.749420    0.513013
     16          1           0        5.716928   -0.540760   -1.147358
     17          1           0        4.217739   -1.288186   -1.687159
     18          1           0        4.390563   -2.984221    0.164940
     19          1           0        5.898270   -2.232548    0.707808
     20          1           0        5.826485   -3.031572   -0.871976
     21          6           0       -0.823670   -1.422511    0.858392
     22          6           0       -1.838106   -2.212206    0.307191
     23          6           0       -3.041225   -1.634109   -0.108569
     24          6           0       -3.196829   -0.257036    0.042258
     25          6           0       -2.204878    0.556464    0.587731
     26          6           0       -1.009965   -0.043128    0.996659
     27          1           0        0.107754   -1.879940    1.178710
     28          1           0       -1.696203   -3.283709    0.198603
     29          1           0       -3.843118   -2.221899   -0.538555
     30          1           0       -2.375578    1.621901    0.683243
     31          1           0       -0.223876    0.572630    1.424385
     32          7           0       -4.466174    0.366348   -0.394271
     33          8           0       -4.578572    1.581821   -0.250640
     34          8           0       -5.324652   -0.372320   -0.871788
 ---------------------------------------------------------------------

 SCF Done:  E(RHF) =  -669.535497730     A.U. after   15 cycles
 E2 =    -0.2091396348D+01 EUMP2 =    -0.67162689407776D+03

 The electronic state is 1-A.
 Alpha  occ. eigenvalues --  -20.60769 -20.60764 -15.85823 -11.31197 -11.27770
 Alpha  occ. eigenvalues --  -11.27761 -11.27518 -11.26786 -11.26761 -11.22523
 Alpha  occ. eigenvalues --  -11.22312 -11.22237 -11.22137 -11.21760 -11.21757
 Alpha  occ. eigenvalues --   -1.59844  -1.39398  -1.19372  -1.09231  -1.08765
 Alpha  occ. eigenvalues --   -1.04776  -1.04295  -0.96721  -0.95598  -0.87734
 Alpha  occ. eigenvalues --   -0.86176  -0.82431  -0.80368  -0.79057  -0.77474
 Alpha  occ. eigenvalues --   -0.72041  -0.71168  -0.70481  -0.65900  -0.65023
 Alpha  occ. eigenvalues --   -0.64773  -0.62180  -0.61637  -0.60091  -0.58341
 Alpha  occ. eigenvalues --   -0.56008  -0.55274  -0.53406  -0.53148  -0.53103
 Alpha  occ. eigenvalues --   -0.52879  -0.50654  -0.48821  -0.48795  -0.48653
 Alpha  occ. eigenvalues --   -0.47395  -0.46601  -0.46497  -0.44801  -0.44552
 Alpha  occ. eigenvalues --   -0.37353  -0.36374
 Alpha virt. eigenvalues --    0.05056   0.11202   0.16518   0.19016   0.22698
 Alpha virt. eigenvalues --    0.23236   0.25012   0.26386   0.26554   0.27670
 Alpha virt. eigenvalues --    0.29391   0.30080   0.30983   0.31296   0.31867

 Mulliken charges:
               1
     1  C   -0.298789
     2  C   -0.303541
     3  C   -0.476933
     4  H    0.153473
     5  H    0.152459
     6  H    0.154534
     7  H    0.142606
     8  H    0.158318
     9  H    0.159145
    10  H    0.160567
    11  C   -0.296700
    12  C   -0.300577
    13  C   -0.475334
    14  H    0.151444
    15  H    0.139894
    16  H    0.154920
    17  H    0.153362
    18  H    0.151214
    19  H    0.156558
    20  H    0.163038
    21  C   -0.173690
    22  C   -0.218589
    23  C   -0.170925
    24  C    0.158754
    25  C   -0.172291
    26  C   -0.223760
    27  H    0.226405
    28  H    0.223502
    29  H    0.275661
    30  H    0.276123
    31  H    0.231854
    32  N    0.488027
    33  O   -0.460277
    34  O   -0.460455
 Sum of Mulliken charges =  -0.00000

 Dipole moment (field-independent basis, Debye):
    X=              4.6452    Y=             -2.1274    Z=              1.4457  Tot=              5.3098
 Quadrupole moment (field-independent basis, Debye-Ang):
   XX=           -121.9337   YY=            -90.2142   ZZ=            -95.0197
   XY=              8.6509   XZ=             -4.2988   YZ=              1.3755

 Normal termination of Gaussian 16 at Wed May  5 20:05:24 2021.
