 Gaussian 16, Revision A.03,
 Gaussian 16:  EM64L-G16RevA.03 25-Dec-2016

 -------------
 #p 6-31g* mp2
 -------------

 ------------------------------------------------------
 Input file generated by CHIRIPA (05-May-2021 14:55:24)
 ------------------------------------------------------
 Symbolic Z-matrix:
 Charge =  0 Multiplicity = 1

                         Standard orientation:
 ---------------------------------------------------------------------
 Center     Atomic      Atomic             Coordinates (Angstroms)
 Number     Number       Type             X           Y           Z
 ---------------------------------------------------------------------
      1          6           0       -2.344096   -2.320325    0.858765
      2          6           0       -2.304124   -1.311287    1.826631
      3          6           0       -2.596597    0.012407    1.484810
      4          6           0       -2.926648    0.292780    0.159764
      5          6           0       -2.975002   -0.690431   -0.827276
      6          6           0       -2.678817   -2.007229   -0.462770
      7          1           0       -2.115454   -3.345925    1.133110
      8          1           0       -2.044493   -1.551522    2.853725
      9          1           0       -2.573179    0.813089    2.214042
     10          1           0       -3.237168   -0.420183   -1.842979
     11          1           0       -2.710648   -2.788816   -1.216530
     12          7           0       -3.238241    1.690466   -0.214114
     13          8           0       -3.526186    1.911496   -1.388367
     14          8           0       -3.188622    2.538476    0.674173
     15          6           0        4.442413   -0.086441   -0.335225
     16          6           0        5.129836    0.772376    0.726787
     17          6           0        6.654178    0.749131    0.610022
     18          1           0        4.802344   -1.120947   -0.250419
     19          1           0        4.740165    0.267379   -1.331995
     20          1           0        4.829790    0.417921    1.721246
     21          1           0        4.768084    1.804918    0.639566
     22          1           0        6.971293    1.122740   -0.368986
     23          1           0        7.033350   -0.272138    0.718840
     24          1           0        7.125215    1.369616    1.378775
     25          6           0        2.918339   -0.073366   -0.231517
     26          6           0        2.230916   -0.932182   -1.293529
     27          6           0        0.706574   -0.908938   -1.176764
     28          1           0        2.620587   -0.427187    0.765253
     29          1           0        2.558407    0.961140   -0.316324
     30          1           0        2.592668   -1.964725   -1.206309
     31          1           0        2.530962   -0.577728   -2.287989
     32          1           0        0.327402    0.112331   -1.285582
     33          1           0        0.389459   -1.282547   -0.197757
     34          1           0        0.235537   -1.529423   -1.945518
 ---------------------------------------------------------------------

 SCF Done:  E(RHF) =  -669.534786356     A.U. after   15 cycles
 E2 =    -0.2092945802D+01 EUMP2 =    -0.67162773215813D+03

 The electronic state is 1-A.
 Alpha  occ. eigenvalues --  -20.60768 -20.60762 -15.85820 -11.31177 -11.27753
 Alpha  occ. eigenvalues --  -11.27733 -11.27487 -11.26783 -11.26742 -11.21680
 Alpha  occ. eigenvalues --  -11.21657 -11.21484 -11.21424 -11.21122 -11.21111
 Alpha  occ. eigenvalues --   -1.59844  -1.39397  -1.19357  -1.08759  -1.08505
 Alpha  occ. eigenvalues --   -1.04761  -1.03600  -0.96052  -0.95590  -0.87073
 Alpha  occ. eigenvalues --   -0.86160  -0.82422  -0.79671  -0.78320  -0.77467
 Alpha  occ. eigenvalues --   -0.72040  -0.71166  -0.70471  -0.65139  -0.65013
 Alpha  occ. eigenvalues --   -0.64770  -0.62110  -0.61006  -0.59435  -0.57678
 Alpha  occ. eigenvalues --   -0.55369  -0.55269  -0.53506  -0.52861  -0.52660
 Alpha  occ. eigenvalues --   -0.52151  -0.49979  -0.48798  -0.48794  -0.47946
 Alpha  occ. eigenvalues --   -0.46703  -0.45846  -0.45789  -0.44803  -0.43874
 Alpha  occ. eigenvalues --   -0.37294  -0.36303
 Alpha virt. eigenvalues --    0.05052   0.11283   0.16505   0.21301   0.22794
 Alpha virt. eigenvalues --    0.24194   0.26561   0.26957   0.27391   0.28075
 Alpha virt. eigenvalues --    0.28307   0.30576   0.31276   0.31810   0.32098

 Mulliken charges:
               1
     1  C   -0.172253
     2  C   -0.218778
     3  C   -0.170825
     4  C    0.159878
     5  C   -0.168365
     6  C   -0.213096
     7  H    0.225448
     8  H    0.223336
     9  H    0.275582
    10  H    0.275489
    11  H    0.223124
    12  N    0.487582
    13  O   -0.460517
    14  O   -0.460553
    15  C   -0.298181
    16  C   -0.299725
    17  C   -0.475732
    18  H    0.148250
    19  H    0.150512
    20  H    0.150631
    21  H    0.153679
    22  H    0.155818
    23  H    0.154387
    24  H    0.160588
    25  C   -0.298295
    26  C   -0.300943
    27  C   -0.474851
    28  H    0.146760
    29  H    0.152729
    30  H    0.148576
    31  H    0.152732
    32  H    0.157736
    33  H    0.156862
    34  H    0.152417
 Sum of Mulliken charges =  -0.00000

 Dipole moment (field-independent basis, Debye):
    X=              1.0267    Y=             -4.8985    Z=              1.3287  Tot=              5.1783
 Quadrupole moment (field-independent basis, Debye-Ang):
   XX=           -103.1872   YY=            -97.2275   ZZ=            -89.6288
   XY=             15.2551   XZ=             -2.8476   YZ=              0.5451

 Normal termination of Gaussian 16 at Wed May  5 17:37:31 2021.
