 Gaussian 16, Revision A.03,
 Gaussian 16:  EM64L-G16RevA.03 25-Dec-2016

 -------------
 #p 6-31g* mp2
 -------------

 ------------------------------------------------------
 Input file generated by CHIRIPA (05-May-2021 14:51:10)
 ------------------------------------------------------
 Symbolic Z-matrix:
 Charge =  0 Multiplicity = 1

                         Standard orientation:
 ---------------------------------------------------------------------
 Center     Atomic      Atomic             Coordinates (Angstroms)
 Number     Number       Type             X           Y           Z
 ---------------------------------------------------------------------
      1          6           0       -3.774344   -0.396292   -0.381438
      2          6           0       -3.397628   -1.637521    0.428142
      3          6           0       -3.714000   -2.940752   -0.306223
      4          1           0       -4.846046   -0.433421   -0.620227
      5          1           0       -3.239411   -0.416690   -1.341034
      6          1           0       -3.932051   -1.614087    1.386505
      7          1           0       -2.326737   -1.597338    0.665195
      8          1           0       -3.169348   -2.990517   -1.254631
      9          1           0       -4.783783   -3.007361   -0.529223
     10          1           0       -3.436743   -3.815330    0.290520
     11          6           0       -3.464101    0.914353    0.339456
     12          6           0       -3.840817    2.155582   -0.470124
     13          6           0       -3.524445    3.458813    0.264241
     14          1           0       -3.999035    0.934751    1.299053
     15          1           0       -2.392399    0.951482    0.578245
     16          1           0       -4.911708    2.115399   -0.707177
     17          1           0       -3.306394    2.132148   -1.428486
     18          1           0       -2.454662    3.525422    0.487242
     19          1           0       -4.069097    3.508578    1.212650
     20          1           0       -3.801702    4.333391   -0.332501
     21          6           0        4.186906    0.052802   -0.383889
     22          6           0        5.399225    0.434671    0.466078
     23          6           0        6.526559    1.057262   -0.358114
     24          1           0        4.502646   -0.650769   -1.166348
     25          1           0        3.813479    0.947822   -0.900498
     26          1           0        5.769410   -0.460534    0.982011
     27          1           0        5.080526    1.137267    1.246723
     28          1           0        6.179701    1.965849   -0.860867
     29          1           0        6.872500    0.358971   -1.127084
     30          1           0        7.383182    1.322649    0.269282
     31          6           0        3.051538   -0.570863    0.425870
     32          6           0        1.839220   -0.952732   -0.424097
     33          6           0        0.711887   -1.575323    0.400095
     34          1           0        3.424966   -1.465883    0.942480
     35          1           0        2.735799    0.132708    1.208330
     36          1           0        2.157919   -1.655327   -1.204742
     37          1           0        1.469034   -0.057527   -0.940030
     38          1           0        0.365945   -0.877031    1.169065
     39          1           0        1.058743   -2.483910    0.902848
     40          1           0       -0.144738   -1.840710   -0.227300
 ---------------------------------------------------------------------

 SCF Done:  E(RHF) =  -470.733063035     A.U. after   11 cycles
 E2 =    -0.1582833849D+01 EUMP2 =    -0.47231589688417D+03

 The electronic state is 1-A.
 Alpha  occ. eigenvalues --  -11.21676 -11.21632 -11.21585 -11.21457 -11.21454
 Alpha  occ. eigenvalues --  -11.21393 -11.21364 -11.21301 -11.21158 -11.21095
 Alpha  occ. eigenvalues --  -11.21069 -11.21021  -1.08484  -1.08383  -1.03595
 Alpha  occ. eigenvalues --   -1.03478  -0.96045  -0.95940  -0.87073  -0.86949
 Alpha  occ. eigenvalues --   -0.79694  -0.79510  -0.78298  -0.78187  -0.65130
 Alpha  occ. eigenvalues --   -0.65017  -0.61015  -0.60915  -0.59422  -0.59265
 Alpha  occ. eigenvalues --   -0.57652  -0.57540  -0.55328  -0.55236  -0.52778
 Alpha  occ. eigenvalues --   -0.52623  -0.52462  -0.52357  -0.50002  -0.49866
 Alpha  occ. eigenvalues --   -0.47975  -0.47852  -0.46725  -0.46545  -0.45857
 Alpha  occ. eigenvalues --   -0.45773  -0.45717  -0.45624  -0.43792  -0.43718
 Alpha virt. eigenvalues --    0.21062   0.23048   0.23910   0.24568   0.25974
 Alpha virt. eigenvalues --    0.26739   0.26947   0.27613   0.27889   0.29359
 Alpha virt. eigenvalues --    0.30669   0.31332   0.31426   0.31753   0.32138

 Mulliken charges:
               1
     1  C   -0.297805
     2  C   -0.308748
     3  C   -0.475734
     4  H    0.149440
     5  H    0.148722
     6  H    0.151383
     7  H    0.162511
     8  H    0.154167
     9  H    0.155045
    10  H    0.160315
    11  C   -0.298915
    12  C   -0.299605
    13  C   -0.475612
    14  H    0.149473
    15  H    0.150016
    16  H    0.151997
    17  H    0.151768
    18  H    0.154757
    19  H    0.155206
    20  H    0.160189
    21  C   -0.298336
    22  C   -0.299680
    23  C   -0.475736
    24  H    0.149762
    25  H    0.149531
    26  H    0.152018
    27  H    0.152023
    28  H    0.155224
    29  H    0.155225
    30  H    0.160384
    31  C   -0.298710
    32  C   -0.299755
    33  C   -0.480190
    34  H    0.149770
    35  H    0.149768
    36  H    0.152272
    37  H    0.151713
    38  H    0.155874
    39  H    0.156123
    40  H    0.164149
 Sum of Mulliken charges =  -0.00000

 Dipole moment (field-independent basis, Debye):
    X=              0.0533    Y=             -0.0140    Z=              0.0142  Tot=              0.0569
 Quadrupole moment (field-independent basis, Debye-Ang):
   XX=            -84.7083   YY=            -85.2019   ZZ=            -84.9834
   XY=             -1.0209   XZ=             -0.1381   YZ=             -0.0804

 Normal termination of Gaussian 16 at Wed May  5 21:24:51 2021.
