 Gaussian 16, Revision A.03,
 Gaussian 16:  EM64L-G16RevA.03 25-Dec-2016

 -------------
 #p 6-31g* mp2
 -------------

 ------------------------------------------------------
 Input file generated by CHIRIPA (05-May-2021 14:57:21)
 ------------------------------------------------------
 Symbolic Z-matrix:
 Charge =  0 Multiplicity = 1

                         Standard orientation:
 ---------------------------------------------------------------------
 Center     Atomic      Atomic             Coordinates (Angstroms)
 Number     Number       Type             X           Y           Z
 ---------------------------------------------------------------------
      1          6           0       -4.570170   -2.076963   -0.062092
      2          6           0       -3.184986   -1.899397   -0.141199
      3          6           0       -2.634673   -0.614672   -0.175624
      4          6           0       -3.502830    0.475016   -0.129009
      5          6           0       -4.887106    0.330679   -0.050036
      6          6           0       -5.415319   -0.963322   -0.016843
      7          1           0       -4.989083   -3.078571   -0.035829
      8          1           0       -2.526217   -2.762429   -0.176482
      9          1           0       -1.566001   -0.448462   -0.236728
     10          1           0       -5.518349    1.210346   -0.016357
     11          1           0       -6.491457   -1.098209    0.044607
     12          7           0       -2.931936    1.840006   -0.164801
     13          8           0       -3.718270    2.783682   -0.122472
     14          8           0       -1.708945    1.940364   -0.234506
     15          6           0        5.829852    0.588179   -0.699880
     16          6           0        5.385789    0.923960    0.583312
     17          6           0        4.150293    0.465142    1.049770
     18          6           0        3.381049   -0.331085    0.202674
     19          6           0        3.795938   -0.682798   -1.080858
     20          6           0        5.034911   -0.212717   -1.526412
     21          1           0        6.790965    0.948974   -1.054117
     22          1           0        6.001045    1.545787    1.227390
     23          1           0        3.782213    0.709947    2.038712
     24          1           0        3.160424   -1.304344   -1.699907
     25          1           0        5.377228   -0.475076   -2.523424
     26          7           0        2.071244   -0.822777    0.685427
     27          8           0        1.412278   -1.522837   -0.080285
     28          8           0        1.728387   -0.498795    1.820382
 ---------------------------------------------------------------------

 SCF Done:  E(RHF) =  -868.340355305     A.U. after   16 cycles
 E2 =    -0.2598445239D+01 EUMP2 =    -0.87093880054405D+03

 The electronic state is 1-A.
 Alpha  occ. eigenvalues --  -20.61083 -20.61032 -20.59899 -20.59878 -15.86074
 Alpha  occ. eigenvalues --  -15.84937 -11.31208 -11.30125 -11.27773 -11.27735
 Alpha  occ. eigenvalues --  -11.27476 -11.26789 -11.26739 -11.26714 -11.26512
 Alpha  occ. eigenvalues --  -11.26493 -11.25795 -11.25589  -1.60104  -1.58969
 Alpha  occ. eigenvalues --   -1.39667  -1.38524  -1.19361  -1.18311  -1.08804
 Alpha  occ. eigenvalues --   -1.07761  -1.04737  -1.03666  -0.95678  -0.94608
 Alpha  occ. eigenvalues --   -0.86148  -0.85090  -0.82524  -0.81430  -0.77591
 Alpha  occ. eigenvalues --   -0.76477  -0.72314  -0.71384  -0.71165  -0.70483
 Alpha  occ. eigenvalues --   -0.70286  -0.69432  -0.65027  -0.64749  -0.63964
 Alpha  occ. eigenvalues --   -0.63674  -0.62091  -0.60983  -0.55261  -0.54242
 Alpha  occ. eigenvalues --   -0.53067  -0.52835  -0.52047  -0.51748  -0.49083
 Alpha  occ. eigenvalues --   -0.49042  -0.47924  -0.47906  -0.45115  -0.43966
 Alpha  occ. eigenvalues --   -0.37327  -0.36341  -0.36323  -0.35268
 Alpha virt. eigenvalues --    0.04918   0.06021   0.11335   0.12370   0.16443
 Alpha virt. eigenvalues --    0.17521   0.21445   0.22519   0.27373   0.28237
 Alpha virt. eigenvalues --    0.28539   0.29419   0.31020   0.32018   0.32553

 Mulliken charges:
               1
     1  C   -0.171347
     2  C   -0.221609
     3  C   -0.172969
     4  C    0.156756
     5  C   -0.172021
     6  C   -0.219786
     7  H    0.222111
     8  H    0.229426
     9  H    0.291535
    10  H    0.271822
    11  H    0.219149
    12  N    0.488086
    13  O   -0.465357
    14  O   -0.459755
    15  C   -0.169802
    16  C   -0.218436
    17  C   -0.168781
    18  C    0.159954
    19  C   -0.169544
    20  C   -0.218413
    21  H    0.226154
    22  H    0.224408
    23  H    0.277013
    24  H    0.273867
    25  H    0.223459
    26  N    0.490978
    27  O   -0.471778
    28  O   -0.455120
 Sum of Mulliken charges =  -0.00000

 Dipole moment (field-independent basis, Debye):
    X=              3.0759    Y=             -3.0919    Z=             -1.4930  Tot=              4.6098
 Quadrupole moment (field-independent basis, Debye-Ang):
   XX=            -56.8625   YY=           -110.2203   ZZ=           -102.6702
   XY=             19.3498   XZ=             -4.6412   YZ=              4.1335

 Normal termination of Gaussian 16 at Thu May  6 17:51:15 2021.
