 Gaussian 16, Revision A.03,
 Gaussian 16:  EM64L-G16RevA.03 25-Dec-2016

 -------------
 #p 6-31g* mp2
 -------------

 ------------------------------------------------------
 Input file generated by CHIRIPA (05-May-2021 14:53:16)
 ------------------------------------------------------
 Symbolic Z-matrix:
 Charge =  0 Multiplicity = 1

                         Standard orientation:
 ---------------------------------------------------------------------
 Center     Atomic      Atomic             Coordinates (Angstroms)
 Number     Number       Type             X           Y           Z
 ---------------------------------------------------------------------
      1          6           0        4.927936    0.079381   -0.045011
      2          6           0        5.650647   -1.256100   -0.224357
      3          6           0        7.090450   -1.222723    0.289109
      4          1           0        5.487823    0.865427   -0.569992
      5          1           0        4.932273    0.350593    1.019799
      6          1           0        5.643738   -1.525389   -1.288336
      7          1           0        5.088871   -2.039092    0.300951
      8          1           0        7.113376   -0.978561    1.356096
      9          1           0        7.671396   -0.461940   -0.242221
     10          1           0        7.588369   -2.187548    0.151089
     11          6           0        3.487528    0.061805   -0.553581
     12          6           0        2.764818    1.397286   -0.374236
     13          6           0        1.325015    1.363909   -0.887702
     14          1           0        3.483191   -0.209407   -1.618391
     15          1           0        2.927641   -0.724240   -0.028601
     16          1           0        3.326593    2.180278   -0.899544
     17          1           0        2.771726    1.666576    0.689743
     18          1           0        0.744069    0.603126   -0.356372
     19          1           0        1.302088    1.119747   -1.954689
     20          1           0        0.827095    2.328734   -0.749682
     21          6           0       -1.515975    1.232303    1.487151
     22          6           0       -2.074491    1.764670    0.320460
     23          6           0       -3.056615    1.060124   -0.382104
     24          6           0       -3.458535   -0.179617    0.112658
     25          6           0       -2.921118   -0.736617    1.272066
     26          6           0       -1.940324   -0.014442    1.958400
     27          1           0       -0.753554    1.786458    2.026617
     28          1           0       -1.746866    2.732684   -0.047853
     29          1           0       -3.505804    1.448802   -1.287961
     30          1           0       -3.268048   -1.703941    1.614614
     31          1           0       -1.508335   -0.430343    2.864190
     32          7           0       -4.497562   -0.934818   -0.622524
     33          8           0       -4.834484   -2.025041   -0.165865
     34          8           0       -4.955356   -0.422225   -1.641498
 ---------------------------------------------------------------------

 SCF Done:  E(RHF) =  -669.534388621     A.U. after   15 cycles
 E2 =    -0.2092325964D+01 EUMP2 =    -0.67162671458512D+03

 The electronic state is 1-A.
 Alpha  occ. eigenvalues --  -20.60750 -20.60744 -15.85804 -11.31171 -11.27752
 Alpha  occ. eigenvalues --  -11.27721 -11.27472 -11.26775 -11.26728 -11.22204
 Alpha  occ. eigenvalues --  -11.21945 -11.21871 -11.21784 -11.21642 -11.21372
 Alpha  occ. eigenvalues --   -1.59825  -1.39379  -1.19353  -1.08901  -1.08745
 Alpha  occ. eigenvalues --   -1.04757  -1.03998  -0.96453  -0.95575  -0.87475
 Alpha  occ. eigenvalues --   -0.86146  -0.82409  -0.80067  -0.78693  -0.77454
 Alpha  occ. eigenvalues --   -0.72023  -0.71149  -0.70461  -0.65530  -0.65003
 Alpha  occ. eigenvalues --   -0.64774  -0.62116  -0.61406  -0.59830  -0.58054
 Alpha  occ. eigenvalues --   -0.55785  -0.55246  -0.53433  -0.53045  -0.52763
 Alpha  occ. eigenvalues --   -0.52722  -0.50337  -0.48782  -0.48776  -0.48372
 Alpha  occ. eigenvalues --   -0.47093  -0.46234  -0.46159  -0.44784  -0.44266
 Alpha  occ. eigenvalues --   -0.37255  -0.36332
 Alpha virt. eigenvalues --    0.05064   0.11258   0.16491   0.20461   0.22596
 Alpha virt. eigenvalues --    0.24029   0.26029   0.26244   0.27024   0.27767
 Alpha virt. eigenvalues --    0.28825   0.29815   0.31027   0.31539   0.31839

 Mulliken charges:
               1
     1  C   -0.298331
     2  C   -0.299957
     3  C   -0.475891
     4  H    0.150476
     5  H    0.148099
     6  H    0.153317
     7  H    0.152005
     8  H    0.154740
     9  H    0.155688
    10  H    0.161522
    11  C   -0.298621
    12  C   -0.299797
    13  C   -0.477963
    14  H    0.152114
    15  H    0.149512
    16  H    0.153267
    17  H    0.146085
    18  H    0.162965
    19  H    0.158788
    20  H    0.148514
    21  C   -0.170274
    22  C   -0.212585
    23  C   -0.172241
    24  C    0.158480
    25  C   -0.171050
    26  C   -0.220092
    27  H    0.226164
    28  H    0.223619
    29  H    0.275624
    30  H    0.275519
    31  H    0.223188
    32  N    0.488098
    33  O   -0.460622
    34  O   -0.460360
 Sum of Mulliken charges =  -0.00000

 Dipole moment (field-independent basis, Debye):
    X=              3.7143    Y=              2.6124    Z=              2.5501  Tot=              5.2080
 Quadrupole moment (field-independent basis, Debye-Ang):
   XX=           -121.7365   YY=            -93.4519   ZZ=            -91.5060
   XY=            -10.1472   XZ=             -9.1347   YZ=             -3.2532

 Normal termination of Gaussian 16 at Thu May  6 07:32:36 2021.
