 Gaussian 16, Revision A.03,
 Gaussian 16:  EM64L-G16RevA.03 25-Dec-2016

 -------------
 #p 6-31g* mp2
 -------------

 ------------------------------------------------------
 Input file generated by CHIRIPA (05-May-2021 14:57:21)
 ------------------------------------------------------
 Symbolic Z-matrix:
 Charge =  0 Multiplicity = 1

                         Standard orientation:
 ---------------------------------------------------------------------
 Center     Atomic      Atomic             Coordinates (Angstroms)
 Number     Number       Type             X           Y           Z
 ---------------------------------------------------------------------
      1          6           0        3.711874    2.229032   -0.823769
      2          6           0        2.690554    1.951335    0.090731
      3          6           0        2.443565    0.638212    0.502133
      4          6           0        3.240713   -0.377462   -0.023464
      5          6           0        4.265694   -0.132749   -0.936053
      6          6           0        4.494804    1.187939   -1.333344
      7          1           0        3.896796    3.252036   -1.137875
      8          1           0        2.080938    2.757864    0.488129
      9          1           0        1.659435    0.395024    1.208829
     10          1           0        4.856728   -0.957781   -1.314759
     11          1           0        5.288661    1.400646   -2.043691
     12          7           0        2.988701   -1.771611    0.404600
     13          8           0        3.705056   -2.648653   -0.073175
     14          8           0        2.079591   -1.960904    1.209786
     15          6           0       -1.594831    1.487895    1.406414
     16          6           0       -2.629125    2.138750    0.725868
     17          6           0       -3.569708    1.406297   -0.004449
     18          6           0       -3.445382    0.018123   -0.032864
     19          6           0       -2.426210   -0.659333    0.634692
     20          6           0       -1.496846    0.093389    1.358738
     21          1           0       -0.868521    2.064755    1.971306
     22          1           0       -2.707691    3.221630    0.761129
     23          1           0       -4.380414    1.884585   -0.540560
     24          1           0       -2.373915   -1.739978    0.580943
     25          1           0       -0.694647   -0.414756    1.886289
     26          7           0       -4.435195   -0.768021   -0.802699
     27          8           0       -4.303692   -1.990011   -0.812029
     28          8           0       -5.323771   -0.147328   -1.382188
 ---------------------------------------------------------------------

 SCF Done:  E(RHF) =  -868.337662726     A.U. after   16 cycles
 E2 =    -0.2600565330D+01 EUMP2 =    -0.87093822805643D+03

 The electronic state is 1-A.
 Alpha  occ. eigenvalues --  -20.61524 -20.61476 -20.60730 -20.60713 -15.86549
 Alpha  occ. eigenvalues --  -15.85777 -11.31856 -11.31231 -11.28511 -11.28368
 Alpha  occ. eigenvalues --  -11.28132 -11.27832 -11.27716 -11.27688 -11.27483
 Alpha  occ. eigenvalues --  -11.27364 -11.26933 -11.26776  -1.60560  -1.59798
 Alpha  occ. eigenvalues --   -1.40123  -1.39347  -1.20022  -1.19419  -1.09418
 Alpha  occ. eigenvalues --   -1.08837  -1.05433  -1.04807  -0.96270  -0.95647
 Alpha  occ. eigenvalues --   -0.86839  -0.86229  -0.83120  -0.82446  -0.78195
 Alpha  occ. eigenvalues --   -0.77448  -0.72776  -0.71998  -0.71870  -0.71155
 Alpha  occ. eigenvalues --   -0.71120  -0.70594  -0.65686  -0.65489  -0.65075
 Alpha  occ. eigenvalues --   -0.64803  -0.62819  -0.62088  -0.55918  -0.55431
 Alpha  occ. eigenvalues --   -0.53742  -0.53570  -0.53140  -0.52866  -0.49537
 Alpha  occ. eigenvalues --   -0.49501  -0.48764  -0.48741  -0.45539  -0.44732
 Alpha  occ. eigenvalues --   -0.37977  -0.37511  -0.36989  -0.36379
 Alpha virt. eigenvalues --    0.04372   0.05033   0.10543   0.11216   0.15865
 Alpha virt. eigenvalues --    0.16462   0.18786   0.22164   0.25321   0.25913
 Alpha virt. eigenvalues --    0.27939   0.29454   0.30334   0.31500   0.31943

 Mulliken charges:
               1
     1  C   -0.169705
     2  C   -0.218475
     3  C   -0.167166
     4  C    0.157947
     5  C   -0.169083
     6  C   -0.218263
     7  H    0.227435
     8  H    0.218670
     9  H    0.268151
    10  H    0.277937
    11  H    0.226198
    12  N    0.489907
    13  O   -0.454627
    14  O   -0.469796
    15  C   -0.175339
    16  C   -0.217974
    17  C   -0.171330
    18  C    0.158967
    19  C   -0.170580
    20  C   -0.227038
    21  H    0.216825
    22  H    0.221086
    23  H    0.275508
    24  H    0.282743
    25  H    0.238688
    26  N    0.487784
    27  O   -0.457198
    28  O   -0.461272
 Sum of Mulliken charges =  -0.00000

 Dipole moment (field-independent basis, Debye):
    X=              4.5123    Y=              7.4686    Z=              1.0257  Tot=              8.7860
 Quadrupole moment (field-independent basis, Debye-Ang):
   XX=           -118.9951   YY=           -105.0410   ZZ=           -104.2237
   XY=              2.8975   XZ=            -16.7696   YZ=             -0.0491

 Normal termination of Gaussian 16 at Thu May  6 19:25:58 2021.
