 Gaussian 16, Revision A.03,
 Gaussian 16:  EM64L-G16RevA.03 25-Dec-2016

 -------------
 #p 6-31g* mp2
 -------------

 ------------------------------------------------------
 Input file generated by CHIRIPA (05-May-2021 14:51:11)
 ------------------------------------------------------
 Symbolic Z-matrix:
 Charge =  0 Multiplicity = 1

                         Standard orientation:
 ---------------------------------------------------------------------
 Center     Atomic      Atomic             Coordinates (Angstroms)
 Number     Number       Type             X           Y           Z
 ---------------------------------------------------------------------
      1          6           0        3.751697   -0.323034    0.293669
      2          6           0        4.433332    0.016591   -1.032232
      3          6           0        5.874611    0.493660   -0.850808
      4          1           0        3.767282    0.562284    0.943988
      5          1           0        4.333851   -1.099602    0.808872
      6          1           0        3.849311    0.791300   -1.545420
      7          1           0        4.415953   -0.869582   -1.679543
      8          1           0        6.477109   -0.278154   -0.361012
      9          1           0        5.907248    1.392164   -0.226127
     10          1           0        6.342847    0.730961   -1.811174
     11          6           0        2.310302   -0.801475    0.128740
     12          6           0        1.628667   -1.141099    1.454641
     13          6           0        0.187388   -1.618168    1.273216
     14          1           0        1.728148   -0.024907   -0.386463
     15          1           0        2.294718   -1.686793   -0.521579
     16          1           0        1.646046   -0.254926    2.101952
     17          1           0        2.212688   -1.915808    1.967829
     18          1           0        0.154752   -2.516673    0.648536
     19          1           0       -0.415110   -0.846354    0.783421
     20          1           0       -0.280848   -1.855470    2.233583
     21          6           0       -2.928280    1.174471    0.233847
     22          6           0       -1.889172    2.153999   -0.312747
     23          6           0       -1.694826    3.373624    0.588662
     24          1           0       -3.886534    1.697407    0.357267
     25          1           0       -2.620359    0.845532    1.236034
     26          1           0       -2.198257    2.479928   -1.314173
     27          1           0       -0.933330    1.628624   -0.435060
     28          1           0       -1.363009    3.066722    1.585812
     29          1           0       -2.635123    3.922863    0.701705
     30          1           0       -0.947776    4.060632    0.179032
     31          6           0       -3.133719   -0.049963   -0.656256
     32          6           0       -4.172827   -1.029490   -0.109661
     33          6           0       -4.367173   -2.249116   -1.011070
     34          1           0       -3.441640    0.278977   -1.658443
     35          1           0       -2.175465   -0.572897   -0.779676
     36          1           0       -5.128669   -0.504114    0.012652
     37          1           0       -3.863742   -1.355420    0.891764
     38          1           0       -3.426876   -2.798354   -1.124113
     39          1           0       -4.698991   -1.942213   -2.008221
     40          1           0       -5.114223   -2.936124   -0.601440
 ---------------------------------------------------------------------

 SCF Done:  E(RHF) =  -470.733084475     A.U. after   11 cycles
 E2 =    -0.1583684682D+01 EUMP2 =    -0.47231676915677D+03

 The electronic state is 1-A.
 Alpha  occ. eigenvalues --  -11.21668 -11.21651 -11.21626 -11.21547 -11.21459
 Alpha  occ. eigenvalues --  -11.21394 -11.21384 -11.21300 -11.21140 -11.21109
 Alpha  occ. eigenvalues --  -11.21089 -11.21020  -1.08489  -1.08414  -1.03581
 Alpha  occ. eigenvalues --   -1.03521  -0.96053  -0.95952  -0.87056  -0.86982
 Alpha  occ. eigenvalues --   -0.79653  -0.79583  -0.78318  -0.78206  -0.65279
 Alpha  occ. eigenvalues --   -0.64944  -0.61010  -0.60876  -0.59400  -0.59335
 Alpha  occ. eigenvalues --   -0.57672  -0.57558  -0.55503  -0.55088  -0.52725
 Alpha  occ. eigenvalues --   -0.52667  -0.52491  -0.52355  -0.49981  -0.49899
 Alpha  occ. eigenvalues --   -0.47993  -0.47905  -0.46720  -0.46623  -0.45994
 Alpha  occ. eigenvalues --   -0.45785  -0.45722  -0.45416  -0.43834  -0.43771
 Alpha virt. eigenvalues --    0.19762   0.22847   0.23886   0.24797   0.25620
 Alpha virt. eigenvalues --    0.26540   0.27008   0.27614   0.28148   0.29687
 Alpha virt. eigenvalues --    0.30568   0.31359   0.31713   0.31827   0.32193

 Mulliken charges:
               1
     1  C   -0.298303
     2  C   -0.299757
     3  C   -0.475756
     4  H    0.149873
     5  H    0.149747
     6  H    0.152125
     7  H    0.152013
     8  H    0.155207
     9  H    0.155270
    10  H    0.160384
    11  C   -0.300274
    12  C   -0.299114
    13  C   -0.484954
    14  H    0.150435
    15  H    0.149902
    16  H    0.151968
    17  H    0.152315
    18  H    0.155094
    19  H    0.164775
    20  H    0.160320
    21  C   -0.300240
    22  C   -0.302754
    23  C   -0.475552
    24  H    0.150340
    25  H    0.150768
    26  H    0.152545
    27  H    0.152528
    28  H    0.155165
    29  H    0.155588
    30  H    0.160076
    31  C   -0.302456
    32  C   -0.299550
    33  C   -0.475845
    34  H    0.149481
    35  H    0.153653
    36  H    0.151560
    37  H    0.152838
    38  H    0.155735
    39  H    0.154843
    40  H    0.160006
 Sum of Mulliken charges =  -0.00000

 Dipole moment (field-independent basis, Debye):
    X=              0.0133    Y=             -0.0072    Z=              0.0054  Tot=              0.0161
 Quadrupole moment (field-independent basis, Debye-Ang):
   XX=            -85.2876   YY=            -84.6013   ZZ=            -84.8363
   XY=             -1.3251   XZ=              0.2142   YZ=             -0.6745

 Normal termination of Gaussian 16 at Thu May  6 00:41:55 2021.
