 Gaussian 16, Revision A.03,
 Gaussian 16:  EM64L-G16RevA.03 25-Dec-2016

 -------------
 #p 6-31g* mp2
 -------------

 ------------------------------------------------------
 Input file generated by CHIRIPA (05-May-2021 14:51:09)
 ------------------------------------------------------
 Symbolic Z-matrix:
 Charge =  0 Multiplicity = 1

                         Standard orientation:
 ---------------------------------------------------------------------
 Center     Atomic      Atomic             Coordinates (Angstroms)
 Number     Number       Type             X           Y           Z
 ---------------------------------------------------------------------
      1          6           0        3.215460   -0.356846    0.211173
      2          6           0        2.644259   -1.580029    0.929184
      3          6           0        1.158346   -1.432200    1.257821
      4          1           0        3.063846    0.532438    0.838175
      5          1           0        2.649317   -0.186479   -0.715030
      6          1           0        3.212203   -1.748861    1.853062
      7          1           0        2.797422   -2.466535    0.300484
      8          1           0        0.574176   -1.286699    0.343395
      9          1           0        0.991314   -0.564948    1.904795
     10          1           0        0.770589   -2.317841    1.770797
     11          6           0        4.699955   -0.489564   -0.124071
     12          6           0        5.271156    0.733618   -0.842082
     13          6           0        6.757069    0.585790   -1.170720
     14          1           0        5.266099   -0.659931    0.802132
     15          1           0        4.851569   -1.378848   -0.751073
     16          1           0        5.117993    1.620124   -0.213382
     17          1           0        4.703213    0.902450   -1.765961
     18          1           0        6.924102   -0.281463   -1.817693
     19          1           0        7.341239    0.440289   -0.256293
     20          1           0        7.144827    1.471430   -1.683696
     21          6           0       -4.716934    0.389956   -0.120371
     22          6           0       -5.197287   -0.857974   -0.861938
     23          6           0       -6.718413   -0.910163   -1.007701
     24          1           0       -5.183237    0.420105    0.873911
     25          1           0       -5.065715    1.283496   -0.656405
     26          1           0       -4.846531   -1.748894   -0.325424
     27          1           0       -4.729637   -0.885256   -1.854497
     28          1           0       -7.082384   -0.039179   -1.562240
     29          1           0       -7.199941   -0.907724   -0.024479
     30          1           0       -7.039990   -1.810350   -1.540721
     31          6           0       -3.198481    0.456455    0.033270
     32          6           0       -2.718128    1.704384    0.774837
     33          6           0       -1.197003    1.756573    0.920599
     34          1           0       -2.849700   -0.437085    0.569304
     35          1           0       -2.732178    0.426306   -0.961012
     36          1           0       -3.185778    1.731667    1.767396
     37          1           0       -3.068884    2.595305    0.238323
     38          1           0       -0.715475    1.754135   -0.062622
     39          1           0       -0.833032    0.885589    1.475138
     40          1           0       -0.875425    2.656761    1.453620
 ---------------------------------------------------------------------

 SCF Done:  E(RHF) =  -470.732921466     A.U. after   11 cycles
 E2 =    -0.1582671118D+01 EUMP2 =    -0.47231559258474D+03

 The electronic state is 1-A.
 Alpha  occ. eigenvalues --  -11.21583 -11.21579 -11.21576 -11.21530 -11.21377
 Alpha  occ. eigenvalues --  -11.21363 -11.21317 -11.21301 -11.21057 -11.21051
 Alpha  occ. eigenvalues --  -11.21030 -11.20923  -1.08408  -1.08380  -1.03526
 Alpha  occ. eigenvalues --   -1.03459  -0.95998  -0.95890  -0.87042  -0.86884
 Alpha  occ. eigenvalues --   -0.79663  -0.79462  -0.78245  -0.78163  -0.65044
 Alpha  occ. eigenvalues --   -0.65007  -0.60956  -0.60837  -0.59338  -0.59289
 Alpha  occ. eigenvalues --   -0.57719  -0.57414  -0.55353  -0.55122  -0.52668
 Alpha  occ. eigenvalues --   -0.52634  -0.52599  -0.52134  -0.50019  -0.49743
 Alpha  occ. eigenvalues --   -0.48120  -0.47619  -0.46664  -0.46488  -0.45853
 Alpha  occ. eigenvalues --   -0.45698  -0.45669  -0.45544  -0.43766  -0.43734
 Alpha virt. eigenvalues --    0.22328   0.22973   0.23617   0.24743   0.25993
 Alpha virt. eigenvalues --    0.26630   0.26872   0.27566   0.27886   0.29355
 Alpha virt. eigenvalues --    0.30036   0.31461   0.31695   0.31942   0.32070

 Mulliken charges:
               1
     1  C   -0.298173
     2  C   -0.299770
     3  C   -0.479212
     4  H    0.150356
     5  H    0.149429
     6  H    0.151678
     7  H    0.151727
     8  H    0.157491
     9  H    0.158052
    10  H    0.159342
    11  C   -0.298295
    12  C   -0.299609
    13  C   -0.475690
    14  H    0.149437
    15  H    0.149514
    16  H    0.152065
    17  H    0.151834
    18  H    0.155115
    19  H    0.155153
    20  H    0.160191
    21  C   -0.298206
    22  C   -0.299623
    23  C   -0.475673
    24  H    0.149599
    25  H    0.149423
    26  H    0.151985
    27  H    0.151735
    28  H    0.155123
    29  H    0.155161
    30  H    0.160132
    31  C   -0.298781
    32  C   -0.299332
    33  C   -0.481219
    34  H    0.150553
    35  H    0.148979
    36  H    0.151466
    37  H    0.151342
    38  H    0.154560
    39  H    0.163401
    40  H    0.158743
 Sum of Mulliken charges =  -0.00000

 Dipole moment (field-independent basis, Debye):
    X=              0.0197    Y=             -0.0149    Z=              0.0133  Tot=              0.0281
 Quadrupole moment (field-independent basis, Debye-Ang):
   XX=            -87.2090   YY=            -84.5153   ZZ=            -83.2766
   XY=             -0.0312   XZ=              0.2795   YZ=             -0.0892

 Normal termination of Gaussian 16 at Wed May  5 21:22:23 2021.
