 Gaussian 16, Revision A.03,
 Gaussian 16:  EM64L-G16RevA.03 25-Dec-2016

 -------------
 #p 6-31g* mp2
 -------------

 ------------------------------------------------------
 Input file generated by CHIRIPA (05-May-2021 14:53:14)
 ------------------------------------------------------
 Symbolic Z-matrix:
 Charge =  0 Multiplicity = 1

                         Standard orientation:
 ---------------------------------------------------------------------
 Center     Atomic      Atomic             Coordinates (Angstroms)
 Number     Number       Type             X           Y           Z
 ---------------------------------------------------------------------
      1          6           0        4.086420   -0.643289    0.236972
      2          6           0        5.031265    0.541492    0.033143
      3          6           0        6.366092    0.364532    0.757515
      4          1           0        3.906497   -0.779868    1.312109
      5          1           0        4.577826   -1.560268   -0.116673
      6          1           0        4.537688    1.456170    0.385793
      7          1           0        5.208807    0.675386   -1.041644
      8          1           0        6.882781   -0.531850    0.399559
      9          1           0        6.207848    0.253370    1.835107
     10          1           0        7.026145    1.222930    0.598315
     11          6           0        2.747817   -0.481150   -0.481069
     12          6           0        1.802971   -1.665931   -0.277239
     13          6           0        0.468144   -1.488971   -1.001612
     14          1           0        2.256411    0.435829   -0.127424
     15          1           0        2.927740   -0.344571   -1.556205
     16          1           0        1.625429   -1.799825    0.797548
     17          1           0        2.296549   -2.580609   -0.629889
     18          1           0        0.626388   -1.377809   -2.079203
     19          1           0       -0.048544   -0.592589   -0.643656
     20          1           0       -0.191908   -2.347369   -0.842411
     21          6           0       -1.300054    2.484777   -0.457782
     22          6           0       -1.783187    1.667147   -1.484712
     23          6           0       -2.543067    0.531264   -1.189925
     24          6           0       -2.802029    0.241478    0.148825
     25          6           0       -2.334700    1.036455    1.194247
     26          6           0       -1.576864    2.167381    0.876068
     27          1           0       -0.710554    3.365233   -0.695865
     28          1           0       -1.569769    1.911195   -2.521505
     29          1           0       -2.929472   -0.119057   -1.965293
     30          1           0       -2.563851    0.767403    2.218219
     31          1           0       -1.202955    2.800546    1.675654
     32          7           0       -3.605398   -0.958407    0.473284
     33          8           0       -3.819694   -1.191948    1.660791
     34          8           0       -4.005571   -1.642614   -0.466054
 ---------------------------------------------------------------------

 SCF Done:  E(RHF) =  -669.534352507     A.U. after   15 cycles
 E2 =    -0.2093484365D+01 EUMP2 =    -0.67162783687126D+03

 The electronic state is 1-A.
 Alpha  occ. eigenvalues --  -20.60788 -20.60781 -15.85839 -11.31203 -11.27829
 Alpha  occ. eigenvalues --  -11.27761 -11.27581 -11.26864 -11.26791 -11.21867
 Alpha  occ. eigenvalues --  -11.21626 -11.21583 -11.21530 -11.21297 -11.20920
 Alpha  occ. eigenvalues --   -1.59860  -1.39413  -1.19434  -1.08808  -1.08592
 Alpha  occ. eigenvalues --   -1.04833  -1.03650  -0.96108  -0.95632  -0.87129
 Alpha  occ. eigenvalues --   -0.86214  -0.82464  -0.79735  -0.78416  -0.77505
 Alpha  occ. eigenvalues --   -0.72060  -0.71185  -0.70522  -0.65232  -0.65067
 Alpha  occ. eigenvalues --   -0.64819  -0.62165  -0.61080  -0.59469  -0.57741
 Alpha  occ. eigenvalues --   -0.55549  -0.55324  -0.53457  -0.52910  -0.52759
 Alpha  occ. eigenvalues --   -0.52266  -0.49950  -0.48819  -0.48812  -0.48000
 Alpha  occ. eigenvalues --   -0.46731  -0.45942  -0.45861  -0.44817  -0.43915
 Alpha  occ. eigenvalues --   -0.37407  -0.36370
 Alpha virt. eigenvalues --    0.05021   0.11191   0.16485   0.21344   0.22685
 Alpha virt. eigenvalues --    0.24188   0.26416   0.27155   0.27323   0.27890
 Alpha virt. eigenvalues --    0.28380   0.30841   0.31339   0.31738   0.31869

 Mulliken charges:
               1
     1  C   -0.298241
     2  C   -0.299092
     3  C   -0.475685
     4  H    0.150039
     5  H    0.150947
     6  H    0.148768
     7  H    0.151417
     8  H    0.156340
     9  H    0.155493
    10  H    0.159837
    11  C   -0.297571
    12  C   -0.298955
    13  C   -0.485219
    14  H    0.145659
    15  H    0.147714
    16  H    0.152747
    17  H    0.152450
    18  H    0.149456
    19  H    0.164943
    20  H    0.165339
    21  C   -0.171504
    22  C   -0.216567
    23  C   -0.172800
    24  C    0.161678
    25  C   -0.172249
    26  C   -0.218747
    27  H    0.226290
    28  H    0.224148
    29  H    0.276179
    30  H    0.275920
    31  H    0.223825
    32  N    0.488411
    33  O   -0.460725
    34  O   -0.460247
 Sum of Mulliken charges =  -0.00000

 Dipole moment (field-independent basis, Debye):
    X=              2.7496    Y=              4.2224    Z=             -1.1394  Tot=              5.1660
 Quadrupole moment (field-independent basis, Debye-Ang):
   XX=           -112.4049   YY=            -92.9073   ZZ=            -89.9206
   XY=            -11.3788   XZ=              3.4563   YZ=              1.8140

 Normal termination of Gaussian 16 at Wed May  5 20:13:41 2021.
