 Gaussian 16, Revision A.03,
 Gaussian 16:  EM64L-G16RevA.03 25-Dec-2016

 -------------
 #p 6-31g* mp2
 -------------

 ------------------------------------------------------
 Input file generated by CHIRIPA (05-May-2021 14:55:24)
 ------------------------------------------------------
 Symbolic Z-matrix:
 Charge =  0 Multiplicity = 1

                         Standard orientation:
 ---------------------------------------------------------------------
 Center     Atomic      Atomic             Coordinates (Angstroms)
 Number     Number       Type             X           Y           Z
 ---------------------------------------------------------------------
      1          6           0       -1.616491    0.950362   -0.197477
      2          6           0       -1.761755   -0.343095    0.314760
      3          6           0       -3.025115   -0.935974    0.398214
      4          6           0       -4.126609   -0.203453   -0.041574
      5          6           0       -4.014320    1.087002   -0.556750
      6          6           0       -2.741254    1.660032   -0.630833
      7          1           0       -0.631313    1.403215   -0.258666
      8          1           0       -0.890019   -0.896589    0.652053
      9          1           0       -3.166198   -1.935780    0.790517
     10          1           0       -4.901959    1.613940   -0.885159
     11          1           0       -2.631441    2.664710   -1.029089
     12          7           0       -5.469209   -0.820601    0.041815
     13          8           0       -6.423883   -0.154301   -0.352242
     14          8           0       -5.541444   -1.958935    0.499652
     15          6           0        5.705308   -0.093017    0.256483
     16          6           0        6.284433   -1.133098   -0.703117
     17          6           0        7.698332   -1.569803   -0.318445
     18          1           0        6.367487    0.783275    0.280480
     19          1           0        5.697996   -0.507230    1.274211
     20          1           0        6.289369   -0.717558   -1.718951
     21          1           0        5.620699   -2.006938   -0.724979
     22          1           0        7.706448   -2.008958    0.684391
     23          1           0        8.378918   -0.712252   -0.315229
     24          1           0        8.093006   -2.313531   -1.017701
     25          6           0        4.292342    0.353471   -0.114870
     26          6           0        3.713218    1.393552    0.844730
     27          6           0        2.299319    1.830256    0.460058
     28          1           0        4.299656    0.767683   -1.132598
     29          1           0        3.630165   -0.522821   -0.138868
     30          1           0        4.376952    2.267391    0.866592
     31          1           0        3.708283    0.978012    1.860564
     32          1           0        1.618733    0.972706    0.456843
     33          1           0        2.291203    2.269411   -0.542778
     34          1           0        1.904646    2.573985    1.159314
 ---------------------------------------------------------------------

 SCF Done:  E(RHF) =  -669.535473290     A.U. after   15 cycles
 E2 =    -0.2090956031D+01 EUMP2 =    -0.67162642932136D+03

 The electronic state is 1-A.
 Alpha  occ. eigenvalues --  -20.60697 -20.60692 -15.85752 -11.31094 -11.27677
 Alpha  occ. eigenvalues --  -11.27668 -11.27329 -11.26673 -11.26654 -11.22616
 Alpha  occ. eigenvalues --  -11.22467 -11.22230 -11.22153 -11.22029 -11.21521
 Alpha  occ. eigenvalues --   -1.59774  -1.39328  -1.19266  -1.09221  -1.08656
 Alpha  occ. eigenvalues --   -1.04673  -1.04360  -0.96843  -0.95495  -0.87872
 Alpha  occ. eigenvalues --   -0.86067  -0.82337  -0.80445  -0.78988  -0.77392
 Alpha  occ. eigenvalues --   -0.71970  -0.71098  -0.70369  -0.65850  -0.64916
 Alpha  occ. eigenvalues --   -0.64686  -0.62033  -0.61750  -0.60218  -0.58427
 Alpha  occ. eigenvalues --   -0.56178  -0.55182  -0.53506  -0.53218  -0.52997
 Alpha  occ. eigenvalues --   -0.52764  -0.50779  -0.48760  -0.48726  -0.48705
 Alpha  occ. eigenvalues --   -0.47450  -0.46541  -0.46432  -0.44739  -0.44589
 Alpha  occ. eigenvalues --   -0.37231  -0.36284
 Alpha virt. eigenvalues --    0.05152   0.11371   0.16649   0.20041   0.22210
 Alpha virt. eigenvalues --    0.23670   0.25387   0.25851   0.26759   0.27236
 Alpha virt. eigenvalues --    0.29023   0.29660   0.30745   0.31224   0.31799

 Mulliken charges:
               1
     1  C   -0.177487
     2  C   -0.221989
     3  C   -0.170755
     4  C    0.157895
     5  C   -0.170594
     6  C   -0.220579
     7  H    0.239522
     8  H    0.222198
     9  H    0.275145
    10  H    0.275185
    11  H    0.223496
    12  N    0.488078
    13  O   -0.460702
    14  O   -0.460811
    15  C   -0.298988
    16  C   -0.300141
    17  C   -0.476145
    18  H    0.151238
    19  H    0.150629
    20  H    0.152674
    21  H    0.152133
    22  H    0.155901
    23  H    0.155988
    24  H    0.161921
    25  C   -0.298772
    26  C   -0.300246
    27  C   -0.481501
    28  H    0.150774
    29  H    0.147839
    30  H    0.156251
    31  H    0.154857
    32  H    0.145788
    33  H    0.156891
    34  H    0.164306
 Sum of Mulliken charges =  -0.00000

 Dipole moment (field-independent basis, Debye):
    X=              5.0349    Y=              2.2206    Z=             -0.2808  Tot=              5.5100
 Quadrupole moment (field-independent basis, Debye-Ang):
   XX=           -133.4869   YY=            -91.9180   ZZ=            -94.3952
   XY=            -11.1358   XZ=              1.6390   YZ=             -2.2728

 Normal termination of Gaussian 16 at Wed May  5 16:06:09 2021.
