 Gaussian 16, Revision A.03,
 Gaussian 16:  EM64L-G16RevA.03 25-Dec-2016

 -------------
 #p 6-31g* mp2
 -------------

 ------------------------------------------------------
 Input file generated by CHIRIPA (05-May-2021 14:57:25)
 ------------------------------------------------------
 Symbolic Z-matrix:
 Charge =  0 Multiplicity = 1

                         Standard orientation:
 ---------------------------------------------------------------------
 Center     Atomic      Atomic             Coordinates (Angstroms)
 Number     Number       Type             X           Y           Z
 ---------------------------------------------------------------------
      1          6           0       -4.121953    1.819439    0.454247
      2          6           0       -3.000620    1.505860    1.229362
      3          6           0       -2.247982    0.359368    0.957995
      4          6           0       -2.646964   -0.454898   -0.100813
      5          6           0       -3.759185   -0.169394   -0.891219
      6          6           0       -4.496995    0.982286   -0.601708
      7          1           0       -4.700860    2.712077    0.672098
      8          1           0       -2.707016    2.154172    2.050053
      9          1           0       -1.375481    0.092851    1.542058
     10          1           0       -4.027191   -0.834969   -1.702761
     11          1           0       -5.367375    1.223325   -1.205350
     12          7           0       -1.858029   -1.671384   -0.397701
     13          8           0       -2.230363   -2.372454   -1.336053
     14          8           0       -0.882266   -1.900762    0.313573
     15          6           0        2.748427   -2.123865    0.893864
     16          6           0        2.162446   -1.105498    1.652860
     17          6           0        2.172386    0.215819    1.196166
     18          6           0        2.779752    0.484328   -0.029518
     19          6           0        3.371969   -0.508371   -0.808694
     20          6           0        3.350257   -1.822582   -0.332330
     21          1           0        2.736133   -3.147537    1.256275
     22          1           0        1.694339   -1.336550    2.605507
     23          1           0        1.726142    1.023551    1.763488
     24          1           0        3.831051   -0.247185   -1.754445
     25          1           0        3.806114   -2.611432   -0.923900
     26          7           0        2.796506    1.879387   -0.523411
     27          8           0        3.337968    2.089890   -1.606529
     28          8           0        2.267858    2.735916    0.181944
 ---------------------------------------------------------------------

 SCF Done:  E(RHF) =  -868.338451062     A.U. after   16 cycles
 E2 =    -0.2600568107D+01 EUMP2 =    -0.87093901916924D+03

 The electronic state is 1-A.
 Alpha  occ. eigenvalues --  -20.61030 -20.61024 -20.60393 -20.60371 -15.86065
 Alpha  occ. eigenvalues --  -15.85429 -11.31298 -11.30527 -11.27883 -11.27829
 Alpha  occ. eigenvalues --  -11.27533 -11.27110 -11.27031 -11.26822 -11.26810
 Alpha  occ. eigenvalues --  -11.26656 -11.26021 -11.25975  -1.60101  -1.59465
 Alpha  occ. eigenvalues --   -1.39661  -1.39028  -1.19447  -1.18642  -1.08864
 Alpha  occ. eigenvalues --   -1.08067  -1.04835  -1.04035  -0.95730  -0.94968
 Alpha  occ. eigenvalues --   -0.86239  -0.85443  -0.82572  -0.81836  -0.77648
 Alpha  occ. eigenvalues --   -0.76934  -0.72314  -0.71660  -0.71412  -0.70781
 Alpha  occ. eigenvalues --   -0.70562  -0.69756  -0.65108  -0.64840  -0.64314
 Alpha  occ. eigenvalues --   -0.64057  -0.62207  -0.61428  -0.55329  -0.54497
 Alpha  occ. eigenvalues --   -0.53156  -0.52936  -0.52297  -0.52156  -0.49070
 Alpha  occ. eigenvalues --   -0.49039  -0.48430  -0.48385  -0.45090  -0.44495
 Alpha  occ. eigenvalues --   -0.37404  -0.36509  -0.36408  -0.35566
 Alpha virt. eigenvalues --    0.04884   0.05596   0.11208   0.12093   0.16426
 Alpha virt. eigenvalues --    0.17127   0.20822   0.22222   0.26198   0.27712
 Alpha virt. eigenvalues --    0.28682   0.29399   0.30999   0.31653   0.32565

 Mulliken charges:
               1
     1  C   -0.169665
     2  C   -0.216090
     3  C   -0.168819
     4  C    0.158429
     5  C   -0.170525
     6  C   -0.218004
     7  H    0.227275
     8  H    0.224821
     9  H    0.268084
    10  H    0.275489
    11  H    0.224325
    12  N    0.490746
    13  O   -0.460288
    14  O   -0.466888
    15  C   -0.159493
    16  C   -0.201512
    17  C   -0.175650
    18  C    0.158318
    19  C   -0.171537
    20  C   -0.216151
    21  H    0.226916
    22  H    0.219499
    23  H    0.264778
    24  H    0.273084
    25  H    0.222678
    26  N    0.488277
    27  O   -0.461265
    28  O   -0.466835
 Sum of Mulliken charges =  -0.00000

 Dipole moment (field-independent basis, Debye):
    X=             -2.9679    Y=             -0.8603    Z=              2.7455  Tot=              4.1335
 Quadrupole moment (field-independent basis, Debye-Ang):
   XX=            -88.1601   YY=           -113.8484   ZZ=            -99.6337
   XY=            -25.2147   XZ=              2.8186   YZ=              2.3099

 Normal termination of Gaussian 16 at Fri May  7 09:37:21 2021.
