 Gaussian 16, Revision A.03,
 Gaussian 16:  EM64L-G16RevA.03 25-Dec-2016

 -------------
 #p 6-31g* mp2
 -------------

 ------------------------------------------------------
 Input file generated by CHIRIPA (05-May-2021 14:57:24)
 ------------------------------------------------------
 Symbolic Z-matrix:
 Charge =  0 Multiplicity = 1

                         Standard orientation:
 ---------------------------------------------------------------------
 Center     Atomic      Atomic             Coordinates (Angstroms)
 Number     Number       Type             X           Y           Z
 ---------------------------------------------------------------------
      1          6           0        1.768614    1.540545    1.904194
      2          6           0        2.534198    0.455299    2.343106
      3          6           0        3.209139   -0.354920    1.425202
      4          6           0        3.096066   -0.049692    0.069717
      5          6           0        2.341096    1.024505   -0.398695
      6          6           0        1.674672    1.821189    0.537104
      7          1           0        1.247612    2.164686    2.624195
      8          1           0        2.608956    0.234978    3.404197
      9          1           0        3.808711   -1.201311    1.737540
     10          1           0        2.285554    1.219168   -1.462857
     11          1           0        1.080831    2.663353    0.193362
     12          7           0        3.806088   -0.900271   -0.911499
     13          8           0        3.690446   -0.610289   -2.100269
     14          8           0        4.464800   -1.840831   -0.473227
     15          6           0       -2.066869    2.110125   -1.062780
     16          6           0       -3.355488    2.045782   -0.522557
     17          6           0       -3.871173    0.831865   -0.058852
     18          6           0       -3.067232   -0.303241   -0.151062
     19          6           0       -1.779559   -0.271349   -0.684138
     20          6           0       -1.284396    0.953393   -1.141708
     21          1           0       -1.674244    3.057329   -1.420614
     22          1           0       -3.965419    2.942508   -0.460006
     23          1           0       -4.865436    0.753628    0.363924
     24          1           0       -1.195276   -1.182183   -0.733265
     25          1           0       -0.283287    1.000383   -1.560774
     26          7           0       -3.602302   -1.594090    0.336593
     27          8           0       -2.873998   -2.579825    0.244190
     28          8           0       -4.739862   -1.595682    0.801988
 ---------------------------------------------------------------------

 SCF Done:  E(RHF) =  -868.335371852     A.U. after   16 cycles
 E2 =    -0.2602588654D+01 EUMP2 =    -0.87093796050614D+03

 The electronic state is 1-A.
 Alpha  occ. eigenvalues --  -20.61327 -20.61300 -20.61045 -20.61035 -15.86374
 Alpha  occ. eigenvalues --  -15.86097 -11.31863 -11.31571 -11.28492 -11.28313
 Alpha  occ. eigenvalues --  -11.28127 -11.28086 -11.28083 -11.27961 -11.27513
 Alpha  occ. eigenvalues --  -11.27355 -11.27222 -11.27173  -1.60390  -1.60116
 Alpha  occ. eigenvalues --   -1.39941  -1.39665  -1.20021  -1.19751  -1.09372
 Alpha  occ. eigenvalues --   -1.09155  -1.05492  -1.05125  -0.96197  -0.95964
 Alpha  occ. eigenvalues --   -0.86828  -0.86580  -0.83062  -0.82765  -0.78135
 Alpha  occ. eigenvalues --   -0.77760  -0.72584  -0.72313  -0.71720  -0.71442
 Alpha  occ. eigenvalues --   -0.71100  -0.70896  -0.65715  -0.65504  -0.65358
 Alpha  occ. eigenvalues --   -0.65183  -0.62906  -0.62367  -0.55879  -0.55733
 Alpha  occ. eigenvalues --   -0.53972  -0.53631  -0.53323  -0.53097  -0.49355
 Alpha  occ. eigenvalues --   -0.49335  -0.49083  -0.49060  -0.45320  -0.45046
 Alpha  occ. eigenvalues --   -0.38101  -0.37790  -0.37281  -0.36298
 Alpha virt. eigenvalues --    0.04407   0.04723   0.10225   0.11142   0.15806
 Alpha virt. eigenvalues --    0.16249   0.19310   0.21960   0.25322   0.26225
 Alpha virt. eigenvalues --    0.28044   0.28810   0.30025   0.31164   0.32419

 Mulliken charges:
               1
     1  C   -0.170812
     2  C   -0.216573
     3  C   -0.170304
     4  C    0.159561
     5  C   -0.183376
     6  C   -0.210380
     7  H    0.228216
     8  H    0.227654
     9  H    0.278967
    10  H    0.270501
    11  H    0.218352
    12  N    0.487956
    13  O   -0.462021
    14  O   -0.455833
    15  C   -0.178571
    16  C   -0.218164
    17  C   -0.171906
    18  C    0.158672
    19  C   -0.172352
    20  C   -0.213847
    21  H    0.221489
    22  H    0.223712
    23  H    0.276392
    24  H    0.279616
    25  H    0.223251
    26  N    0.487727
    27  O   -0.457785
    28  O   -0.460142
 Sum of Mulliken charges =  -0.00000

 Dipole moment (field-independent basis, Debye):
    X=             -0.5268    Y=              7.3333    Z=              1.9793  Tot=              7.6140
 Quadrupole moment (field-independent basis, Debye-Ang):
   XX=           -127.9510   YY=           -106.4526   ZZ=           -101.4676
   XY=             -8.6430   XZ=             16.3020   YZ=             -1.6492

 Normal termination of Gaussian 16 at Thu May  6 01:55:19 2021.
