 Gaussian 16, Revision A.03,
 Gaussian 16:  EM64L-G16RevA.03 25-Dec-2016

 -------------
 #p 6-31g* mp2
 -------------

 ------------------------------------------------------
 Input file generated by CHIRIPA (05-May-2021 14:53:14)
 ------------------------------------------------------
 Symbolic Z-matrix:
 Charge =  0 Multiplicity = 1

                         Standard orientation:
 ---------------------------------------------------------------------
 Center     Atomic      Atomic             Coordinates (Angstroms)
 Number     Number       Type             X           Y           Z
 ---------------------------------------------------------------------
      1          6           0        3.123224   -0.106644    0.132969
      2          6           0        3.230360   -1.238631   -0.889338
      3          6           0        3.691194   -2.556512   -0.265947
      4          1           0        4.099531    0.036206    0.616046
      5          1           0        2.422573   -0.403082    0.925816
      6          1           0        3.929545   -0.939588   -1.680747
      7          1           0        2.253733   -1.378674   -1.370174
      8          1           0        2.990668   -2.881283    0.510190
      9          1           0        4.676002   -2.439702    0.197852
     10          1           0        3.760898   -3.351969   -1.014444
     11          6           0        2.663649    1.217293   -0.475068
     12          6           0        2.556514    2.349281    0.547239
     13          6           0        2.095680    3.667161   -0.076152
     14          1           0        3.364301    1.513732   -1.267915
     15          1           0        1.687342    1.074444   -0.958145
     16          1           0        3.533141    2.489324    1.028075
     17          1           0        1.857328    2.050238    1.338648
     18          1           0        1.110872    3.550352   -0.539951
     19          1           0        2.796206    3.991933   -0.852289
     20          1           0        2.025975    4.462619    0.672345
     21          6           0       -4.266757    0.770903   -0.809458
     22          6           0       -3.446593    0.012050   -1.650881
     23          6           0       -2.332343   -0.659692   -1.139259
     24          6           0       -2.066539   -0.550319    0.224806
     25          6           0       -2.864666    0.197940    1.088748
     26          6           0       -3.973693    0.861267    0.555266
     27          1           0       -5.130305    1.289460   -1.215388
     28          1           0       -3.671769   -0.059917   -2.711146
     29          1           0       -1.680612   -1.254058   -1.768063
     30          1           0       -2.614681    0.250830    2.141425
     31          1           0       -4.608885    1.449880    1.211094
     32          7           0       -0.889697   -1.257007    0.778009
     33          8           0       -0.677069   -1.144735    1.983340
     34          8           0       -0.202200   -1.909801   -0.004195
 ---------------------------------------------------------------------

 SCF Done:  E(RHF) =  -669.536803202     A.U. after   15 cycles
 E2 =    -0.2092546731D+01 EUMP2 =    -0.67162934993263D+03

 The electronic state is 1-A.
 Alpha  occ. eigenvalues --  -20.61145 -20.61133 -15.86142 -11.31401 -11.27953
 Alpha  occ. eigenvalues --  -11.27947 -11.27675 -11.26941 -11.26931 -11.20951
 Alpha  occ. eigenvalues --  -11.20672 -11.20555 -11.20148 -11.20047 -11.19576
 Alpha  occ. eigenvalues --   -1.60182  -1.39740  -1.19559  -1.08976  -1.07398
 Alpha  occ. eigenvalues --   -1.04943  -1.02490  -0.95827  -0.94980  -0.86347
 Alpha  occ. eigenvalues --   -0.85999  -0.82665  -0.78633  -0.77732  -0.77130
 Alpha  occ. eigenvalues --   -0.72368  -0.71500  -0.70665  -0.65218  -0.64946
 Alpha  occ. eigenvalues --   -0.64001  -0.62291  -0.59855  -0.58414  -0.56577
 Alpha  occ. eigenvalues --   -0.55449  -0.54257  -0.53278  -0.53033  -0.51717
 Alpha  occ. eigenvalues --   -0.51399  -0.49145  -0.49129  -0.48882  -0.46940
 Alpha  occ. eigenvalues --   -0.45681  -0.45244  -0.44648  -0.44427  -0.42756
 Alpha  occ. eigenvalues --   -0.37531  -0.36540
 Alpha virt. eigenvalues --    0.04754   0.11107   0.16232   0.21196   0.23688
 Alpha virt. eigenvalues --    0.25410   0.27007   0.27407   0.28305   0.28554
 Alpha virt. eigenvalues --    0.28892   0.30907   0.31977   0.32469   0.32915

 Mulliken charges:
               1
     1  C   -0.303264
     2  C   -0.297581
     3  C   -0.477732
     4  H    0.143998
     5  H    0.166127
     6  H    0.141196
     7  H    0.162509
     8  H    0.170793
     9  H    0.147348
    10  H    0.153694
    11  C   -0.297113
    12  C   -0.299808
    13  C   -0.474697
    14  H    0.145818
    15  H    0.143721
    16  H    0.151551
    17  H    0.153953
    18  H    0.151135
    19  H    0.153968
    20  H    0.157695
    21  C   -0.170285
    22  C   -0.218497
    23  C   -0.170864
    24  C    0.158244
    25  C   -0.170580
    26  C   -0.218513
    27  H    0.226529
    28  H    0.224381
    29  H    0.275915
    30  H    0.276077
    31  H    0.224318
    32  N    0.490165
    33  O   -0.459344
    34  O   -0.460858
 Sum of Mulliken charges =  -0.00000

 Dipole moment (field-independent basis, Debye):
    X=             -4.4853    Y=              2.3178    Z=             -1.8179  Tot=              5.3661
 Quadrupole moment (field-independent basis, Debye-Ang):
   XX=            -78.0738   YY=            -99.0319   ZZ=            -91.6839
   XY=             -3.0324   XZ=              2.2509   YZ=              3.6710

 Normal termination of Gaussian 16 at Thu May  6 12:05:16 2021.
