 Gaussian 16, Revision A.03,
 Gaussian 16:  EM64L-G16RevA.03 25-Dec-2016

 -------------
 #p 6-31g* mp2
 -------------

 ------------------------------------------------------
 Input file generated by CHIRIPA (05-May-2021 14:53:12)
 ------------------------------------------------------
 Symbolic Z-matrix:
 Charge =  0 Multiplicity = 1

                         Standard orientation:
 ---------------------------------------------------------------------
 Center     Atomic      Atomic             Coordinates (Angstroms)
 Number     Number       Type             X           Y           Z
 ---------------------------------------------------------------------
      1          6           0       -4.697698    0.259049    0.268058
      2          6           0       -5.820591   -0.467205   -0.473328
      3          6           0       -7.138598    0.307603   -0.455288
      4          1           0       -5.007062    0.434977    1.307428
      5          1           0       -4.548537    1.248735   -0.185447
      6          1           0       -5.966653   -1.455774   -0.019441
      7          1           0       -5.508442   -0.641594   -1.511002
      8          1           0       -7.015554    1.288098   -0.926553
      9          1           0       -7.476368    0.469292    0.573483
     10          1           0       -7.927487   -0.229646   -0.990897
     11          6           0       -3.373742   -0.503042    0.258788
     12          6           0       -2.250850    0.223212    1.000173
     13          6           0       -0.932843   -0.551595    0.982134
     14          1           0       -3.522903   -1.492728    0.712292
     15          1           0       -3.064379   -0.678969   -0.780582
     16          1           0       -2.562999    0.397601    2.037847
     17          1           0       -2.104788    1.211781    0.546286
     18          1           0       -0.595073   -0.713285   -0.046637
     19          1           0       -1.055887   -1.532090    1.453399
     20          1           0       -0.143954   -0.014346    1.517743
     21          6           0        3.560711   -2.394496   -0.183733
     22          6           0        2.435665   -1.875164   -0.832644
     23          6           0        2.199680   -0.497299   -0.851240
     24          6           0        3.113482    0.336015   -0.207933
     25          6           0        4.243545   -0.151027    0.447076
     26          6           0        4.459477   -1.532290    0.452934
     27          1           0        3.736242   -3.466175   -0.174235
     28          1           0        1.735976   -2.542384   -1.327918
     29          1           0        1.336781   -0.068441   -1.346120
     30          1           0        4.923155    0.539161    0.932038
     31          1           0        5.334049   -1.932801    0.957670
     32          7           0        2.874269    1.796498   -0.220876
     33          8           0        3.694421    2.509482    0.353268
     34          8           0        1.871152    2.200585   -0.804920
 ---------------------------------------------------------------------

 SCF Done:  E(RHF) =  -669.534646980     A.U. after   15 cycles
 E2 =    -0.2092088584D+01 EUMP2 =    -0.67162673556395D+03

 The electronic state is 1-A.
 Alpha  occ. eigenvalues --  -20.60760 -20.60754 -15.85811 -11.31139 -11.27731
 Alpha  occ. eigenvalues --  -11.27717 -11.27471 -11.26725 -11.26712 -11.21590
 Alpha  occ. eigenvalues --  -11.21514 -11.21407 -11.21319 -11.21196 -11.21032
 Alpha  occ. eigenvalues --   -1.59834  -1.39388  -1.19329  -1.08725  -1.08414
 Alpha  occ. eigenvalues --   -1.04738  -1.03522  -0.96006  -0.95560  -0.87030
 Alpha  occ. eigenvalues --   -0.86124  -0.82402  -0.79592  -0.78228  -0.77447
 Alpha  occ. eigenvalues --   -0.72032  -0.71158  -0.70456  -0.65063  -0.64980
 Alpha  occ. eigenvalues --   -0.64731  -0.62138  -0.60893  -0.59351  -0.57594
 Alpha  occ. eigenvalues --   -0.55403  -0.55160  -0.53190  -0.52839  -0.52573
 Alpha  occ. eigenvalues --   -0.52380  -0.49928  -0.48787  -0.48785  -0.47907
 Alpha  occ. eigenvalues --   -0.46607  -0.45779  -0.45682  -0.44798  -0.43775
 Alpha  occ. eigenvalues --   -0.37306  -0.36265
 Alpha virt. eigenvalues --    0.05073   0.11323   0.16519   0.20821   0.22915
 Alpha virt. eigenvalues --    0.24131   0.26088   0.26992   0.27629   0.27992
 Alpha virt. eigenvalues --    0.28849   0.30946   0.31526   0.31599   0.32033

 Mulliken charges:
               1
     1  C   -0.298633
     2  C   -0.299530
     3  C   -0.475790
     4  H    0.150157
     5  H    0.152241
     6  H    0.150792
     7  H    0.151238
     8  H    0.156309
     9  H    0.155379
    10  H    0.159776
    11  C   -0.298043
    12  C   -0.301611
    13  C   -0.471769
    14  H    0.147391
    15  H    0.146738
    16  H    0.152689
    17  H    0.160674
    18  H    0.143441
    19  H    0.152080
    20  H    0.164470
    21  C   -0.170548
    22  C   -0.217964
    23  C   -0.165197
    24  C    0.156192
    25  C   -0.171237
    26  C   -0.218925
    27  H    0.225481
    28  H    0.223300
    29  H    0.275813
    30  H    0.275391
    31  H    0.223155
    32  N    0.488115
    33  O   -0.460620
    34  O   -0.460952
 Sum of Mulliken charges =  -0.00000

 Dipole moment (field-independent basis, Debye):
    X=              0.8320    Y=             -5.0752    Z=              0.0809  Tot=              5.1435
 Quadrupole moment (field-independent basis, Debye-Ang):
   XX=            -87.2785   YY=            -98.7775   ZZ=            -93.2614
   XY=            -14.9897   XZ=              2.2141   YZ=              1.1937

 Normal termination of Gaussian 16 at Thu May  6 18:39:59 2021.
