 Gaussian 16, Revision A.03,
 Gaussian 16:  EM64L-G16RevA.03 25-Dec-2016

 -------------
 #p 6-31g* mp2
 -------------

 ------------------------------------------------------
 Input file generated by CHIRIPA (05-May-2021 14:57:22)
 ------------------------------------------------------
 Symbolic Z-matrix:
 Charge =  0 Multiplicity = 1

                         Standard orientation:
 ---------------------------------------------------------------------
 Center     Atomic      Atomic             Coordinates (Angstroms)
 Number     Number       Type             X           Y           Z
 ---------------------------------------------------------------------
      1          6           0        2.692006    2.487766   -0.522270
      2          6           0        1.652943    1.667250   -0.071025
      3          6           0        1.857012    0.295469    0.105383
      4          6           0        3.118405   -0.224706   -0.180266
      5          6           0        4.173610    0.566752   -0.631294
      6          6           0        3.946811    1.935871   -0.800474
      7          1           0        2.524652    3.552365   -0.656501
      8          1           0        0.677410    2.093113    0.145815
      9          1           0        1.070218   -0.362727    0.453451
     10          1           0        5.135156    0.113294   -0.839198
     11          1           0        4.755608    2.570686   -1.151051
     12          7           0        3.346475   -1.675541    0.002663
     13          8           0        4.466979   -2.109385   -0.255962
     14          8           0        2.400414   -2.351388    0.401205
     15          6           0       -1.296156    0.603795    1.883358
     16          6           0       -2.101354    1.598616    1.318990
     17          6           0       -3.093279    1.267635    0.391045
     18          6           0       -3.253351   -0.074175    0.048682
     19          6           0       -2.467009   -1.088148    0.593486
     20          6           0       -1.481228   -0.734054    1.519446
     21          1           0       -0.527991    0.869887    2.603437
     22          1           0       -1.959874    2.638427    1.599739
     23          1           0       -3.730662    2.017666   -0.061299
     24          1           0       -2.631743   -2.116031    0.293926
     25          1           0       -0.857370   -1.508754    1.956123
     26          7           0       -4.300206   -0.436803   -0.932642
     27          8           0       -4.421218   -1.626246   -1.217635
     28          8           0       -4.979896    0.475276   -1.398227
 ---------------------------------------------------------------------

 SCF Done:  E(RHF) =  -868.337184048     A.U. after   16 cycles
 E2 =    -0.2603190135D+01 EUMP2 =    -0.87094037418366D+03

 The electronic state is 1-A.
 Alpha  occ. eigenvalues --  -20.61279 -20.61245 -20.61214 -20.61196 -15.86309
 Alpha  occ. eigenvalues --  -15.86268 -11.31844 -11.31579 -11.28506 -11.28386
 Alpha  occ. eigenvalues --  -11.28260 -11.28142 -11.28061 -11.27888 -11.27583
 Alpha  occ. eigenvalues --  -11.27367 -11.27146 -11.27092  -1.60331  -1.60279
 Alpha  occ. eigenvalues --   -1.39892  -1.39825  -1.20083  -1.19749  -1.09457
 Alpha  occ. eigenvalues --   -1.09168  -1.05488  -1.05139  -0.96235  -0.96009
 Alpha  occ. eigenvalues --   -0.86929  -0.86506  -0.83044  -0.82833  -0.78063
 Alpha  occ. eigenvalues --   -0.77885  -0.72541  -0.72479  -0.71650  -0.71605
 Alpha  occ. eigenvalues --   -0.71193  -0.70857  -0.65743  -0.65464  -0.65406
 Alpha  occ. eigenvalues --   -0.65129  -0.62788  -0.62523  -0.55990  -0.55704
 Alpha  occ. eigenvalues --   -0.53727  -0.53538  -0.53482  -0.53234  -0.49301
 Alpha  occ. eigenvalues --   -0.49272  -0.49251  -0.49221  -0.45316  -0.45183
 Alpha  occ. eigenvalues --   -0.38098  -0.37745  -0.37077  -0.36732
 Alpha virt. eigenvalues --    0.04358   0.04718   0.10266   0.10893   0.15707
 Alpha virt. eigenvalues --    0.16224   0.20157   0.21844   0.26022   0.27008
 Alpha virt. eigenvalues --    0.27990   0.28669   0.30543   0.30818   0.31614

 Mulliken charges:
               1
     1  C   -0.170814
     2  C   -0.227747
     3  C   -0.180309
     4  C    0.158500
     5  C   -0.169769
     6  C   -0.218741
     7  H    0.225686
     8  H    0.224393
     9  H    0.281255
    10  H    0.276542
    11  H    0.224670
    12  N    0.488310
    13  O   -0.457347
    14  O   -0.466187
    15  C   -0.178482
    16  C   -0.226293
    17  C   -0.169945
    18  C    0.158981
    19  C   -0.167971
    20  C   -0.232704
    21  H    0.231218
    22  H    0.223151
    23  H    0.277679
    24  H    0.283161
    25  H    0.240397
    26  N    0.487999
    27  O   -0.455933
    28  O   -0.459700
 Sum of Mulliken charges =  -0.00000

 Dipole moment (field-independent basis, Debye):
    X=              2.6506    Y=              6.1997    Z=              2.7753  Tot=              7.2913
 Quadrupole moment (field-independent basis, Debye-Ang):
   XX=           -128.7391   YY=           -103.1614   ZZ=           -105.0816
   XY=             11.3651   XZ=            -14.7136   YZ=             -1.8214

 Normal termination of Gaussian 16 at Thu May  6 04:57:30 2021.
