 Gaussian 16, Revision A.03,
 Gaussian 16:  EM64L-G16RevA.03 25-Dec-2016

 -------------
 #p 6-31g* mp2
 -------------

 ------------------------------------------------------
 Input file generated by CHIRIPA (05-May-2021 14:51:10)
 ------------------------------------------------------
 Symbolic Z-matrix:
 Charge =  0 Multiplicity = 1

                         Standard orientation:
 ---------------------------------------------------------------------
 Center     Atomic      Atomic             Coordinates (Angstroms)
 Number     Number       Type             X           Y           Z
 ---------------------------------------------------------------------
      1          6           0       -2.487777   -0.513560    0.640901
      2          6           0       -1.237454   -1.144541    0.027273
      3          6           0       -0.084045   -1.261041    1.024203
      4          1           0       -2.235074    0.482484    1.029466
      5          1           0       -2.807122   -1.113988    1.503977
      6          1           0       -0.921366   -0.543877   -0.835228
      7          1           0       -1.493207   -2.139121   -0.360048
      8          1           0       -0.375709   -1.877854    1.880401
      9          1           0        0.199381   -0.273547    1.402521
     10          1           0        0.799587   -1.714701    0.564586
     11          6           0       -3.649522   -0.390315   -0.343419
     12          6           0       -4.899845    0.240667    0.270209
     13          6           0       -6.053254    0.357167   -0.726721
     14          1           0       -3.330177    0.210113   -1.206495
     15          1           0       -3.902225   -1.386359   -0.731984
     16          1           0       -4.644092    1.235246    0.657530
     17          1           0       -5.215933   -0.359997    1.132710
     18          1           0       -6.336680   -0.630328   -1.105039
     19          1           0       -5.761590    0.973980   -1.582919
     20          1           0       -6.936886    0.810826   -0.267104
     21          6           0        2.956219    1.084063    0.265033
     22          6           0        2.362162    2.239168   -0.541696
     23          6           0        2.143054    3.496764    0.299874
     24          1           0        2.289491    0.852104    1.106826
     25          1           0        3.911857    1.404807    0.702384
     26          1           0        1.408601    1.915889   -0.978535
     27          1           0        3.030286    2.468277   -1.381776
     28          1           0        3.089926    3.846306    0.723966
     29          1           0        1.459027    3.290781    1.129499
     30          1           0        1.717759    4.309915   -0.296590
     31          6           0        3.181080   -0.180188   -0.562515
     32          6           0        3.775137   -1.335294    0.244214
     33          6           0        3.994245   -2.592889   -0.597356
     34          1           0        2.225442   -0.500932   -0.999866
     35          1           0        3.847808    0.051771   -1.404308
     36          1           0        3.107013   -1.564402    1.084294
     37          1           0        4.728698   -1.012015    0.681052
     38          1           0        4.678272   -2.386906   -1.426981
     39          1           0        3.047372   -2.942432   -1.021448
     40          1           0        4.419539   -3.406041   -0.000892
 ---------------------------------------------------------------------

 SCF Done:  E(RHF) =  -470.731725928     A.U. after   11 cycles
 E2 =    -0.1584862202D+01 EUMP2 =    -0.47231658813012D+03

 The electronic state is 1-A.
 Alpha  occ. eigenvalues --  -11.21690 -11.21633 -11.21599 -11.21538 -11.21459
 Alpha  occ. eigenvalues --  -11.21396 -11.21338 -11.21277 -11.21103 -11.21094
 Alpha  occ. eigenvalues --  -11.21090 -11.21074  -1.08511  -1.08384  -1.03603
 Alpha  occ. eigenvalues --   -1.03510  -0.96076  -0.95935  -0.87087  -0.86968
 Alpha  occ. eigenvalues --   -0.79669  -0.79578  -0.78324  -0.78184  -0.65338
 Alpha  occ. eigenvalues --   -0.64945  -0.61112  -0.60937  -0.59335  -0.59295
 Alpha  occ. eigenvalues --   -0.57664  -0.57537  -0.55561  -0.55025  -0.52761
 Alpha  occ. eigenvalues --   -0.52628  -0.52488  -0.52387  -0.50033  -0.49846
 Alpha  occ. eigenvalues --   -0.48037  -0.47814  -0.46797  -0.46568  -0.45904
 Alpha  occ. eigenvalues --   -0.45819  -0.45695  -0.45487  -0.43792  -0.43753
 Alpha virt. eigenvalues --    0.19961   0.22930   0.23505   0.24802   0.25740
 Alpha virt. eigenvalues --    0.26111   0.27186   0.27576   0.28164   0.29812
 Alpha virt. eigenvalues --    0.30074   0.31231   0.31667   0.31769   0.32663

 Mulliken charges:
               1
     1  C   -0.298691
     2  C   -0.301453
     3  C   -0.484433
     4  H    0.149691
     5  H    0.149906
     6  H    0.152305
     7  H    0.152334
     8  H    0.155470
     9  H    0.157788
    10  H    0.168072
    11  C   -0.298320
    12  C   -0.299705
    13  C   -0.475744
    14  H    0.149591
    15  H    0.149787
    16  H    0.152055
    17  H    0.151994
    18  H    0.155227
    19  H    0.155271
    20  H    0.160386
    21  C   -0.301467
    22  C   -0.300592
    23  C   -0.475456
    24  H    0.154401
    25  H    0.149372
    26  H    0.151558
    27  H    0.152107
    28  H    0.155537
    29  H    0.154209
    30  H    0.160124
    31  C   -0.301145
    32  C   -0.305025
    33  C   -0.476661
    34  H    0.152114
    35  H    0.149956
    36  H    0.155854
    37  H    0.152922
    38  H    0.155566
    39  H    0.154619
    40  H    0.160478
 Sum of Mulliken charges =  -0.00000

 Dipole moment (field-independent basis, Debye):
    X=             -0.0145    Y=             -0.0159    Z=              0.0180  Tot=              0.0280
 Quadrupole moment (field-independent basis, Debye-Ang):
   XX=            -84.7043   YY=            -84.8489   ZZ=            -85.2628
   XY=              0.9597   XZ=             -0.7209   YZ=             -0.7253

 Normal termination of Gaussian 16 at Wed May  5 15:10:09 2021.
