 Gaussian 16, Revision A.03,
 Gaussian 16:  EM64L-G16RevA.03 25-Dec-2016

 -------------
 #p 6-31g* mp2
 -------------

 ------------------------------------------------------
 Input file generated by CHIRIPA (05-May-2021 14:53:17)
 ------------------------------------------------------
 Symbolic Z-matrix:
 Charge =  0 Multiplicity = 1

                         Standard orientation:
 ---------------------------------------------------------------------
 Center     Atomic      Atomic             Coordinates (Angstroms)
 Number     Number       Type             X           Y           Z
 ---------------------------------------------------------------------
      1          6           0       -3.869679    0.148242   -0.343348
      2          6           0       -3.745019   -1.358213   -0.573651
      3          6           0       -4.973889   -1.954934   -1.260381
      4          1           0       -4.763492    0.347215    0.263654
      5          1           0       -4.030008    0.647698   -1.308870
      6          1           0       -3.583591   -1.854540    0.391862
      7          1           0       -2.851292   -1.553638   -1.180015
      8          1           0       -5.135052   -1.486533   -2.236714
      9          1           0       -5.871511   -1.789144   -0.655906
     10          1           0       -4.863475   -3.032747   -1.415266
     11          6           0       -2.648965    0.759329    0.342332
     12          6           0       -2.773624    2.265784    0.572634
     13          6           0       -1.544754    2.862505    1.259364
     14          1           0       -2.488635    0.259873    1.307854
     15          1           0       -1.755151    0.560356   -0.264670
     16          1           0       -3.667351    2.461209    1.178998
     17          1           0       -2.935053    2.762111   -0.392879
     18          1           0       -0.647132    2.696715    0.654890
     19          1           0       -1.383592    2.394103    2.235698
     20          1           0       -1.655168    3.940317    1.414249
     21          6           0        1.370037   -2.228400    1.213162
     22          6           0        2.714170   -2.364234    0.850704
     23          6           0        3.376031   -1.332443    0.178472
     24          6           0        2.660066   -0.173360   -0.116848
     25          6           0        1.320301   -0.008005    0.230966
     26          6           0        0.678611   -1.052791    0.902683
     27          1           0        0.863722   -3.034967    1.735168
     28          1           0        3.253646   -3.276097    1.090529
     29          1           0        4.416108   -1.411111   -0.113877
     30          1           0        0.808915    0.912881   -0.021764
     31          1           0       -0.365314   -0.944524    1.182942
     32          7           0        3.350071    0.925830   -0.828238
     33          8           0        2.697025    1.936940   -1.076882
     34          8           0        4.530878    0.755451   -1.123711
 ---------------------------------------------------------------------

 SCF Done:  E(RHF) =  -669.534579098     A.U. after   15 cycles
 E2 =    -0.2093541480D+01 EUMP2 =    -0.67162812057816D+03

 The electronic state is 1-A.
 Alpha  occ. eigenvalues --  -20.60706 -20.60701 -15.85754 -11.31077 -11.27646
 Alpha  occ. eigenvalues --  -11.27594 -11.27357 -11.26663 -11.26531 -11.22397
 Alpha  occ. eigenvalues --  -11.22340 -11.22233 -11.22106 -11.21638 -11.21635
 Alpha  occ. eigenvalues --   -1.59780  -1.39335  -1.19239  -1.09227  -1.08641
 Alpha  occ. eigenvalues --   -1.04640  -1.04200  -0.96662  -0.95489  -0.87676
 Alpha  occ. eigenvalues --   -0.86033  -0.82343  -0.80282  -0.79158  -0.77322
 Alpha  occ. eigenvalues --   -0.71976  -0.71101  -0.70370  -0.65863  -0.64884
 Alpha  occ. eigenvalues --   -0.64642  -0.62082  -0.61521  -0.60005  -0.58293
 Alpha  occ. eigenvalues --   -0.55955  -0.55143  -0.53310  -0.53255  -0.52960
 Alpha  occ. eigenvalues --   -0.52551  -0.50598  -0.48742  -0.48734  -0.48564
 Alpha  occ. eigenvalues --   -0.47288  -0.46535  -0.46522  -0.44749  -0.44491
 Alpha  occ. eigenvalues --   -0.37223  -0.36221
 Alpha virt. eigenvalues --    0.05121   0.11393   0.16565   0.20016   0.22695
 Alpha virt. eigenvalues --    0.23177   0.24577   0.25641   0.26978   0.28656
 Alpha virt. eigenvalues --    0.29294   0.30686   0.31185   0.31511   0.31863

 Mulliken charges:
               1
     1  C   -0.297088
     2  C   -0.302138
     3  C   -0.475926
     4  H    0.152457
     5  H    0.154584
     6  H    0.146813
     7  H    0.153760
     8  H    0.158218
     9  H    0.156526
    10  H    0.161269
    11  C   -0.309135
    12  C   -0.299637
    13  C   -0.483542
    14  H    0.144246
    15  H    0.149529
    16  H    0.154618
    17  H    0.157760
    18  H    0.159418
    19  H    0.153720
    20  H    0.168056
    21  C   -0.172427
    22  C   -0.218727
    23  C   -0.170800
    24  C    0.158910
    25  C   -0.182915
    26  C   -0.226065
    27  H    0.225381
    28  H    0.222835
    29  H    0.275090
    30  H    0.285512
    31  H    0.234436
    32  N    0.487540
    33  O   -0.461730
    34  O   -0.460550
 Sum of Mulliken charges =  -0.00000

 Dipole moment (field-independent basis, Debye):
    X=             -2.6763    Y=             -3.7374    Z=              2.4470  Tot=              5.2076
 Quadrupole moment (field-independent basis, Debye-Ang):
   XX=           -104.1645   YY=            -92.1882   ZZ=            -95.5335
   XY=            -13.2562   XZ=              6.3813   YZ=             -0.2848

 Normal termination of Gaussian 16 at Wed May  5 15:45:01 2021.
