 Gaussian 16, Revision A.03,
 Gaussian 16:  EM64L-G16RevA.03 25-Dec-2016

 -------------
 #p 6-31g* mp2
 -------------

 ------------------------------------------------------
 Input file generated by CHIRIPA (05-May-2021 14:55:21)
 ------------------------------------------------------
 Symbolic Z-matrix:
 Charge =  0 Multiplicity = 1

                         Standard orientation:
 ---------------------------------------------------------------------
 Center     Atomic      Atomic             Coordinates (Angstroms)
 Number     Number       Type             X           Y           Z
 ---------------------------------------------------------------------
      1          6           0       -1.025811   -2.085883    0.045542
      2          6           0       -0.832315   -0.961642    0.854964
      3          6           0       -1.777124    0.068603    0.876838
      4          6           0       -2.908969   -0.058756    0.073099
      5          6           0       -3.130201   -1.166344   -0.743966
      6          6           0       -2.172115   -2.184472   -0.749937
      7          1           0       -0.286703   -2.881496    0.034727
      8          1           0        0.056973   -0.882382    1.473777
      9          1           0       -1.652427    0.950000    1.494096
     10          1           0       -4.026673   -1.216963   -1.349931
     11          1           0       -2.325018   -3.056414   -1.379526
     12          7           0       -3.916224    1.025505    0.087838
     13          8           0       -4.904949    0.889332   -0.629459
     14          8           0       -3.697912    1.990990    0.816409
     15          6           0        3.908206   -0.334868    0.042108
     16          6           0        3.055383   -1.602586   -0.017624
     17          6           0        3.864196   -2.872300    0.249662
     18          1           0        4.722664   -0.413624   -0.690968
     19          1           0        4.382987   -0.266968    1.030727
     20          1           0        2.581252   -1.667355   -1.005360
     21          1           0        2.242747   -1.520720    0.715545
     22          1           0        4.324837   -2.833854    1.242099
     23          1           0        4.665265   -2.981322   -0.488583
     24          1           0        3.234994   -3.766561    0.202094
     25          6           0        3.113774    0.942752   -0.223021
     26          6           0        3.966597    2.210471   -0.163290
     27          6           0        3.157784    3.480184   -0.430574
     28          1           0        2.638994    0.874853   -1.211641
     29          1           0        2.299316    1.021508    0.510054
     30          1           0        4.779233    2.128605   -0.896459
     31          1           0        4.440728    2.275240    0.824446
     32          1           0        2.356715    3.589206    0.307669
     33          1           0        2.697143    3.441738   -1.423013
     34          1           0        3.786986    4.374445   -0.383008
 ---------------------------------------------------------------------

 SCF Done:  E(RHF) =  -669.535193963     A.U. after   15 cycles
 E2 =    -0.2092014469D+01 EUMP2 =    -0.67162720843132D+03

 The electronic state is 1-A.
 Alpha  occ. eigenvalues --  -20.60728 -20.60723 -15.85781 -11.31137 -11.27711
 Alpha  occ. eigenvalues --  -11.27705 -11.27432 -11.26720 -11.26697 -11.22672
 Alpha  occ. eigenvalues --  -11.22168 -11.22071 -11.22029 -11.22005 -11.21371
 Alpha  occ. eigenvalues --   -1.59804  -1.39358  -1.19310  -1.09170  -1.08702
 Alpha  occ. eigenvalues --   -1.04716  -1.04237  -0.96654  -0.95540  -0.87671
 Alpha  occ. eigenvalues --   -0.86119  -0.82375  -0.80345  -0.78955  -0.77423
 Alpha  occ. eigenvalues --   -0.72000  -0.71127  -0.70411  -0.65846  -0.64963
 Alpha  occ. eigenvalues --   -0.64714  -0.62103  -0.61599  -0.60060  -0.58271
 Alpha  occ. eigenvalues --   -0.55924  -0.55201  -0.53373  -0.53080  -0.53031
 Alpha  occ. eigenvalues --   -0.52820  -0.50594  -0.48779  -0.48756  -0.48610
 Alpha  occ. eigenvalues --   -0.47372  -0.46480  -0.46382  -0.44765  -0.44486
 Alpha  occ. eigenvalues --   -0.37270  -0.36308
 Alpha virt. eigenvalues --    0.05101   0.11275   0.16541   0.19430   0.22638
 Alpha virt. eigenvalues --    0.23465   0.24625   0.26209   0.26506   0.28568
 Alpha virt. eigenvalues --    0.29248   0.29982   0.31069   0.31456   0.32386

 Mulliken charges:
               1
     1  C   -0.171152
     2  C   -0.219033
     3  C   -0.171583
     4  C    0.158483
     5  C   -0.171025
     6  C   -0.219109
     7  H    0.227286
     8  H    0.225716
     9  H    0.275156
    10  H    0.275383
    11  H    0.223146
    12  N    0.488048
    13  O   -0.460606
    14  O   -0.460577
    15  C   -0.298920
    16  C   -0.303453
    17  C   -0.475566
    18  H    0.153193
    19  H    0.150803
    20  H    0.154326
    21  H    0.142357
    22  H    0.157954
    23  H    0.159873
    24  H    0.155945
    25  C   -0.297825
    26  C   -0.300550
    27  C   -0.476024
    28  H    0.152760
    29  H    0.144048
    30  H    0.153326
    31  H    0.152244
    32  H    0.155889
    33  H    0.157169
    34  H    0.162319
 Sum of Mulliken charges =  -0.00000

 Dipole moment (field-independent basis, Debye):
    X=              3.7272    Y=             -3.7504    Z=             -0.1358  Tot=              5.2893
 Quadrupole moment (field-independent basis, Debye-Ang):
   XX=           -113.9541   YY=            -94.3769   ZZ=            -92.0770
   XY=             13.1257   XZ=              2.0846   YZ=              1.9592

 Normal termination of Gaussian 16 at Thu May  6 01:24:27 2021.
