 Gaussian 16, Revision A.03,
 Gaussian 16:  EM64L-G16RevA.03 25-Dec-2016

 -------------
 #p 6-31g* mp2
 -------------

 ------------------------------------------------------
 Input file generated by CHIRIPA (05-May-2021 14:55:25)
 ------------------------------------------------------
 Symbolic Z-matrix:
 Charge =  0 Multiplicity = 1

                         Standard orientation:
 ---------------------------------------------------------------------
 Center     Atomic      Atomic             Coordinates (Angstroms)
 Number     Number       Type             X           Y           Z
 ---------------------------------------------------------------------
      1          6           0       -3.416995   -2.024871   -0.169044
      2          6           0       -4.293279   -1.077126    0.369868
      3          6           0       -3.936360    0.273763    0.417363
      4          6           0       -2.689766    0.643536   -0.085192
      5          6           0       -1.794828   -0.277017   -0.628295
      6          6           0       -2.172760   -1.622501   -0.665530
      7          1           0       -3.702420   -3.072175   -0.201954
      8          1           0       -5.260209   -1.386733    0.756176
      9          1           0       -4.595448    1.028397    0.829126
     10          1           0       -0.837700    0.061943   -1.005693
     11          1           0       -1.490204   -2.356340   -1.084627
     12          7           0       -2.300789    2.070800   -0.040343
     13          8           0       -1.196835    2.370966   -0.489590
     14          8           0       -3.107228    2.862300    0.443209
     15          6           0        4.056197   -0.150099   -0.284528
     16          6           0        4.874280    0.833082    0.553373
     17          6           0        5.932960    1.570665   -0.266970
     18          1           0        4.734516   -0.878280   -0.749912
     19          1           0        3.570893    0.394563   -1.106244
     20          1           0        5.356784    0.286958    1.374076
     21          1           0        4.193917    1.558892    1.016971
     22          1           0        5.465193    2.140329   -1.076463
     23          1           0        6.634668    0.861169   -0.717327
     24          1           0        6.506069    2.268315    0.351650
     25          6           0        2.993720   -0.895161    0.521544
     26          6           0        2.175638   -1.878343   -0.316357
     27          6           0        1.116958   -2.615926    0.503985
     28          1           0        3.479025   -1.439824    1.343260
     29          1           0        2.315401   -0.166980    0.986928
     30          1           0        2.856001   -2.604152   -0.779954
     31          1           0        1.693133   -1.332219   -1.137061
     32          1           0        0.415249   -1.906429    0.954343
     33          1           0        1.584724   -3.185590    1.313478
     34          1           0        0.543847   -3.313576   -0.114634
 ---------------------------------------------------------------------

 SCF Done:  E(RHF) =  -669.534683121     A.U. after   15 cycles
 E2 =    -0.2092585557D+01 EUMP2 =    -0.67162726867716D+03

 The electronic state is 1-A.
 Alpha  occ. eigenvalues --  -20.60793 -20.60786 -15.85844 -11.31191 -11.27734
 Alpha  occ. eigenvalues --  -11.27726 -11.27457 -11.26765 -11.26701 -11.22161
 Alpha  occ. eigenvalues --  -11.21718 -11.21596 -11.21505 -11.21404 -11.20926
 Alpha  occ. eigenvalues --   -1.59867  -1.39422  -1.19353  -1.08752  -1.08619
 Alpha  occ. eigenvalues --   -1.04760  -1.03758  -0.96213  -0.95589  -0.87247
 Alpha  occ. eigenvalues --   -0.86138  -0.82421  -0.79847  -0.78373  -0.77477
 Alpha  occ. eigenvalues --   -0.72062  -0.71190  -0.70459  -0.65277  -0.64986
 Alpha  occ. eigenvalues --   -0.64777  -0.62203  -0.61078  -0.59618  -0.57805
 Alpha  occ. eigenvalues --   -0.55519  -0.55222  -0.53201  -0.53062  -0.52708
 Alpha  occ. eigenvalues --   -0.52498  -0.50115  -0.48820  -0.48816  -0.48147
 Alpha  occ. eigenvalues --   -0.46873  -0.45925  -0.45807  -0.44831  -0.43996
 Alpha  occ. eigenvalues --   -0.37329  -0.36295
 Alpha virt. eigenvalues --    0.05031   0.11273   0.16475   0.19475   0.22912
 Alpha virt. eigenvalues --    0.24047   0.25656   0.26365   0.27221   0.28401
 Alpha virt. eigenvalues --    0.29448   0.29683   0.31370   0.31500   0.32320

 Mulliken charges:
               1
     1  C   -0.172791
     2  C   -0.218266
     3  C   -0.171440
     4  C    0.158943
     5  C   -0.176397
     6  C   -0.215603
     7  H    0.225630
     8  H    0.223419
     9  H    0.275407
    10  H    0.277412
    11  H    0.228498
    12  N    0.488028
    13  O   -0.461177
    14  O   -0.460171
    15  C   -0.298818
    16  C   -0.300686
    17  C   -0.476165
    18  H    0.148428
    19  H    0.152348
    20  H    0.150805
    21  H    0.156743
    22  H    0.157473
    23  H    0.153720
    24  H    0.161085
    25  C   -0.299841
    26  C   -0.301842
    27  C   -0.481442
    28  H    0.150391
    29  H    0.155279
    30  H    0.154380
    31  H    0.145836
    32  H    0.162136
    33  H    0.159708
    34  H    0.148971
 Sum of Mulliken charges =  -0.00000

 Dipole moment (field-independent basis, Debye):
    X=             -1.2870    Y=             -4.9649    Z=             -0.0856  Tot=              5.1297
 Quadrupole moment (field-independent basis, Debye-Ang):
   XX=            -83.5452   YY=           -101.5899   ZZ=            -94.7050
   XY=             10.9354   XZ=             -1.0162   YZ=              0.9232

 Normal termination of Gaussian 16 at Wed May  5 16:08:56 2021.
