 Gaussian 16, Revision A.03,
 Gaussian 16:  EM64L-G16RevA.03 25-Dec-2016

 -------------
 #p 6-31g* mp2
 -------------

 ------------------------------------------------------
 Input file generated by CHIRIPA (05-May-2021 14:53:18)
 ------------------------------------------------------
 Symbolic Z-matrix:
 Charge =  0 Multiplicity = 1

                         Standard orientation:
 ---------------------------------------------------------------------
 Center     Atomic      Atomic             Coordinates (Angstroms)
 Number     Number       Type             X           Y           Z
 ---------------------------------------------------------------------
      1          6           0        3.733278   -0.376097    0.176246
      2          6           0        3.587309   -1.802072   -0.355988
      3          6           0        4.595500   -2.770370    0.263483
      4          1           0        4.753955   -0.020659   -0.020799
      5          1           0        3.610886   -0.385402    1.268184
      6          1           0        3.708565   -1.789882   -1.446752
      7          1           0        2.566803   -2.154088   -0.157824
      8          1           0        4.471711   -2.812163    1.350466
      9          1           0        5.619960   -2.445887    0.054215
     10          1           0        4.473364   -3.783903   -0.131097
     11          6           0        2.732289    0.603600   -0.433625
     12          6           0        2.878258    2.029575    0.098609
     13          6           0        1.870067    2.997872   -0.520863
     14          1           0        2.854681    0.612904   -1.525563
     15          1           0        1.711612    0.248161   -0.236580
     16          1           0        3.898764    2.381590   -0.099555
     17          1           0        2.757002    2.017384    1.189372
     18          1           0        0.845607    2.673389   -0.311595
     19          1           0        1.993856    3.039665   -1.607845
     20          1           0        1.992203    4.011405   -0.126283
     21          6           0       -1.784631    2.283774    0.533478
     22          6           0       -2.243842    1.914271   -0.735030
     23          6           0       -2.656922    0.602486   -0.986295
     24          6           0       -2.597248   -0.318246    0.058684
     25          6           0       -2.144627    0.019244    1.333252
     26          6           0       -1.736574    1.336752    1.561758
     27          1           0       -1.465692    3.305023    0.719827
     28          1           0       -2.282255    2.647631   -1.535499
     29          1           0       -3.016755    0.289379   -1.958870
     30          1           0       -2.117829   -0.734035    2.111243
     31          1           0       -1.380397    1.620878    2.547890
     32          7           0       -3.031896   -1.710003   -0.195272
     33          8           0       -2.969619   -2.502402    0.742205
     34          8           0       -3.426622   -1.982110   -1.326990
 ---------------------------------------------------------------------

 SCF Done:  E(RHF) =  -669.535193345     A.U. after   15 cycles
 E2 =    -0.2092462827D+01 EUMP2 =    -0.67162765617241D+03

 The electronic state is 1-A.
 Alpha  occ. eigenvalues --  -20.60832 -20.60827 -15.85887 -11.31280 -11.27862
 Alpha  occ. eigenvalues --  -11.27841 -11.27580 -11.26876 -11.26853 -11.22011
 Alpha  occ. eigenvalues --  -11.21630 -11.21608 -11.21568 -11.21512 -11.21058
 Alpha  occ. eigenvalues --   -1.59907  -1.39460  -1.19464  -1.08863  -1.08637
 Alpha  occ. eigenvalues --   -1.04862  -1.03759  -0.96230  -0.95678  -0.87249
 Alpha  occ. eigenvalues --   -0.86257  -0.82507  -0.79836  -0.78429  -0.77546
 Alpha  occ. eigenvalues --   -0.72104  -0.71232  -0.70576  -0.65278  -0.65111
 Alpha  occ. eigenvalues --   -0.64854  -0.62201  -0.61175  -0.59602  -0.57826
 Alpha  occ. eigenvalues --   -0.55665  -0.55255  -0.53270  -0.52948  -0.52923
 Alpha  occ. eigenvalues --   -0.52585  -0.50157  -0.48865  -0.48857  -0.48141
 Alpha  occ. eigenvalues --   -0.46858  -0.45975  -0.45883  -0.44860  -0.44009
 Alpha  occ. eigenvalues --   -0.37362  -0.36466
 Alpha virt. eigenvalues --    0.04953   0.11161   0.16383   0.21096   0.22724
 Alpha virt. eigenvalues --    0.24187   0.26442   0.26959   0.27387   0.27447
 Alpha virt. eigenvalues --    0.28824   0.30815   0.31362   0.31629   0.31942

 Mulliken charges:
               1
     1  C   -0.298301
     2  C   -0.300379
     3  C   -0.475834
     4  H    0.149503
     5  H    0.148213
     6  H    0.152499
     7  H    0.154756
     8  H    0.154880
     9  H    0.154434
    10  H    0.162420
    11  C   -0.299634
    12  C   -0.297399
    13  C   -0.485486
    14  H    0.150087
    15  H    0.152354
    16  H    0.153258
    17  H    0.148794
    18  H    0.158105
    19  H    0.156091
    20  H    0.156055
    21  C   -0.172574
    22  C   -0.217319
    23  C   -0.170545
    24  C    0.158558
    25  C   -0.171472
    26  C   -0.219344
    27  H    0.229104
    28  H    0.225082
    29  H    0.276179
    30  H    0.275938
    31  H    0.224220
    32  N    0.488064
    33  O   -0.460352
    34  O   -0.459955
 Sum of Mulliken charges =  -0.00000

 Dipole moment (field-independent basis, Debye):
    X=              1.4641    Y=              4.8186    Z=              0.8733  Tot=              5.1113
 Quadrupole moment (field-independent basis, Debye-Ang):
   XX=           -103.2754   YY=            -99.0467   ZZ=            -89.7588
   XY=            -13.2975   XZ=             -1.8794   YZ=             -1.1319

 Normal termination of Gaussian 16 at Thu May  6 02:49:30 2021.
