 Gaussian 16, Revision A.03,
 Gaussian 16:  EM64L-G16RevA.03 25-Dec-2016

 -------------
 #p 6-31g* mp2
 -------------

 ------------------------------------------------------
 Input file generated by CHIRIPA (05-May-2021 14:55:20)
 ------------------------------------------------------
 Symbolic Z-matrix:
 Charge =  0 Multiplicity = 1

                         Standard orientation:
 ---------------------------------------------------------------------
 Center     Atomic      Atomic             Coordinates (Angstroms)
 Number     Number       Type             X           Y           Z
 ---------------------------------------------------------------------
      1          6           0        3.176695   -2.662312    0.009241
      2          6           0        3.038667   -1.978968    1.221887
      3          6           0        2.762397   -0.608571    1.237181
      4          6           0        2.629879    0.050111    0.015762
      5          6           0        2.761778   -0.602815   -1.208812
      6          6           0        3.038054   -1.973269   -1.200106
      7          1           0        3.391310   -3.726891    0.006681
      8          1           0        3.145818   -2.511514    2.162609
      9          1           0        2.650580   -0.054927    2.161515
     10          1           0        2.649494   -0.044827   -2.130473
     11          1           0        3.144728   -2.501382   -2.143379
     12          7           0        2.337401    1.500919    0.019249
     13          8           0        2.225272    2.058323   -1.070414
     14          8           0        2.225824    2.053188    1.111580
     15          6           0       -4.030495   -0.152630    0.234920
     16          6           0       -4.129638   -1.558076   -0.359112
     17          6           0       -5.340174   -2.334971    0.159378
     18          1           0       -3.978724   -0.227023    1.329785
     19          1           0       -4.950218    0.401864    0.002448
     20          1           0       -3.209423   -2.109293   -0.126774
     21          1           0       -4.180985   -1.480337   -1.452700
     22          1           0       -6.268888   -1.809541   -0.085601
     23          1           0       -5.291805   -2.442071    1.247859
     24          1           0       -5.391658   -3.336860   -0.278145
     25          6           0       -2.825397    0.636467   -0.273797
     26          6           0       -2.726255    2.041915    0.320234
     27          6           0       -1.515719    2.818809   -0.198256
     28          1           0       -1.905676    0.081974   -0.041326
     29          1           0       -2.877169    0.710862   -1.368663
     30          1           0       -2.674908    1.964175    1.413823
     31          1           0       -3.646470    2.593132    0.087897
     32          1           0       -1.564088    2.925909   -1.286738
     33          1           0       -0.587005    2.293379    0.046722
     34          1           0       -1.464235    3.820698    0.239268
 ---------------------------------------------------------------------

 SCF Done:  E(RHF) =  -669.535705544     A.U. after   15 cycles
 E2 =    -0.2091451539D+01 EUMP2 =    -0.67162715708295D+03

 The electronic state is 1-A.
 Alpha  occ. eigenvalues --  -20.60881 -20.60872 -15.85905 -11.31268 -11.27837
 Alpha  occ. eigenvalues --  -11.27829 -11.27575 -11.26844 -11.26834 -11.21457
 Alpha  occ. eigenvalues --  -11.21092 -11.20987 -11.20941 -11.20851 -11.19900
 Alpha  occ. eigenvalues --   -1.59948  -1.39497  -1.19439  -1.08837  -1.08027
 Alpha  occ. eigenvalues --   -1.04837  -1.03034  -0.95674  -0.95453  -0.86463
 Alpha  occ. eigenvalues --   -0.86236  -0.82504  -0.79123  -0.77814  -0.77555
 Alpha  occ. eigenvalues --   -0.72123  -0.71292  -0.70545  -0.65090  -0.64839
 Alpha  occ. eigenvalues --   -0.64665  -0.62183  -0.60432  -0.58888  -0.57063
 Alpha  occ. eigenvalues --   -0.55342  -0.54740  -0.53171  -0.52928  -0.52124
 Alpha  occ. eigenvalues --   -0.51872  -0.49437  -0.48886  -0.48858  -0.47406
 Alpha  occ. eigenvalues --   -0.46173  -0.45343  -0.45267  -0.44891  -0.43295
 Alpha  occ. eigenvalues --   -0.37419  -0.36439
 Alpha virt. eigenvalues --    0.04946   0.11216   0.16433   0.21352   0.23204
 Alpha virt. eigenvalues --    0.24810   0.26966   0.27270   0.27805   0.28174
 Alpha virt. eigenvalues --    0.28616   0.30844   0.31874   0.32143   0.32480

 Mulliken charges:
               1
     1  C   -0.170593
     2  C   -0.218669
     3  C   -0.171234
     4  C    0.158038
     5  C   -0.170544
     6  C   -0.218567
     7  H    0.225959
     8  H    0.223716
     9  H    0.275775
    10  H    0.276114
    11  H    0.223865
    12  N    0.485946
    13  O   -0.457507
    14  O   -0.459471
    15  C   -0.297630
    16  C   -0.298916
    17  C   -0.475316
    18  H    0.148713
    19  H    0.149553
    20  H    0.149328
    21  H    0.151341
    22  H    0.155656
    23  H    0.154539
    24  H    0.158359
    25  C   -0.296812
    26  C   -0.301108
    27  C   -0.472968
    28  H    0.145577
    29  H    0.148870
    30  H    0.150493
    31  H    0.148924
    32  H    0.153482
    33  H    0.162814
    34  H    0.162272
 Sum of Mulliken charges =  -0.00000

 Dipole moment (field-independent basis, Debye):
    X=              1.2124    Y=             -5.0339    Z=             -0.0310  Tot=              5.1780
 Quadrupole moment (field-independent basis, Debye-Ang):
   XX=            -91.0462   YY=            -96.0576   ZZ=            -89.2123
   XY=            -14.4952   XZ=              0.6366   YZ=             -0.2092

 Normal termination of Gaussian 16 at Thu May  6 19:06:50 2021.
