 Gaussian 16, Revision A.03,
 Gaussian 16:  EM64L-G16RevA.03 25-Dec-2016

 -------------
 #p 6-31g* mp2
 -------------

 ------------------------------------------------------
 Input file generated by CHIRIPA (05-May-2021 14:51:08)
 ------------------------------------------------------
 Symbolic Z-matrix:
 Charge =  0 Multiplicity = 1

                         Standard orientation:
 ---------------------------------------------------------------------
 Center     Atomic      Atomic             Coordinates (Angstroms)
 Number     Number       Type             X           Y           Z
 ---------------------------------------------------------------------
      1          6           0        4.931301   -0.422658    0.383937
      2          6           0        5.573452   -1.435448   -0.564685
      3          6           0        6.622421   -2.308518    0.124667
      4          1           0        5.715384    0.214946    0.814774
      5          1           0        4.468500   -0.959474    1.223604
      6          1           0        6.033707   -0.896968   -1.403029
      7          1           0        4.787729   -2.070591   -0.993460
      8          1           0        6.173504   -2.871231    0.949548
      9          1           0        7.426561   -1.690939    0.537651
     10          1           0        7.068663   -3.025296   -0.571723
     11          6           0        3.880538    0.457498   -0.290563
     12          6           0        3.238387    1.470288    0.658060
     13          6           0        2.189418    2.343358   -0.031292
     14          1           0        4.343339    0.994314   -1.130229
     15          1           0        3.096456   -0.180106   -0.721399
     16          1           0        4.024110    2.105431    1.086834
     17          1           0        2.778132    0.931807    1.496404
     18          1           0        1.385278    1.725779   -0.444277
     19          1           0        2.638335    2.906071   -0.856173
     20          1           0        1.743176    3.060136    0.665097
     21          6           0       -4.097132    0.677874    0.021498
     22          6           0       -2.614286    0.721787   -0.348940
     23          6           0       -2.010766    2.119478   -0.207466
     24          1           0       -4.648636    1.383127   -0.615218
     25          1           0       -4.220106    1.028421    1.055611
     26          1           0       -2.493994    0.369951   -1.381586
     27          1           0       -2.066277    0.016207    0.288601
     28          1           0       -2.101461    2.475679    0.823793
     29          1           0       -2.531607    2.831434   -0.855884
     30          1           0       -0.950112    2.127978   -0.477287
     31          6           0       -4.714707   -0.712714   -0.114873
     32          6           0       -6.197552   -0.756627    0.255566
     33          6           0       -6.801074   -2.154318    0.114091
     34          1           0       -4.591733   -1.063261   -1.148986
     35          1           0       -4.163203   -1.417967    0.521843
     36          1           0       -6.745561   -0.051047   -0.381975
     37          1           0       -6.317846   -0.404791    1.288212
     38          1           0       -6.280233   -2.866273    0.762509
     39          1           0       -6.710378   -2.510520   -0.917168
     40          1           0       -7.861726   -2.162819    0.383912
 ---------------------------------------------------------------------

 SCF Done:  E(RHF) =  -470.733177730     A.U. after   11 cycles
 E2 =    -0.1582227392D+01 EUMP2 =    -0.47231540512271D+03

 The electronic state is 1-A.
 Alpha  occ. eigenvalues --  -11.21613 -11.21607 -11.21593 -11.21576 -11.21414
 Alpha  occ. eigenvalues --  -11.21389 -11.21354 -11.21329 -11.21080 -11.21075
 Alpha  occ. eigenvalues --  -11.21066 -11.20966  -1.08440  -1.08410  -1.03548
 Alpha  occ. eigenvalues --   -1.03496  -0.96019  -0.95924  -0.87060  -0.86918
 Alpha  occ. eigenvalues --   -0.79636  -0.79537  -0.78252  -0.78225  -0.65074
 Alpha  occ. eigenvalues --   -0.65040  -0.60972  -0.60895  -0.59391  -0.59299
 Alpha  occ. eigenvalues --   -0.57661  -0.57524  -0.55300  -0.55221  -0.52849
 Alpha  occ. eigenvalues --   -0.52569  -0.52448  -0.52257  -0.49925  -0.49872
 Alpha  occ. eigenvalues --   -0.47979  -0.47821  -0.46627  -0.46601  -0.45796
 Alpha  occ. eigenvalues --   -0.45764  -0.45716  -0.45694  -0.43845  -0.43674
 Alpha virt. eigenvalues --    0.22207   0.23013   0.23521   0.24849   0.26438
 Alpha virt. eigenvalues --    0.26675   0.26937   0.27497   0.27607   0.28914
 Alpha virt. eigenvalues --    0.30308   0.31359   0.31645   0.31734   0.32151

 Mulliken charges:
               1
     1  C   -0.298298
     2  C   -0.299675
     3  C   -0.475711
     4  H    0.149688
     5  H    0.149516
     6  H    0.151947
     7  H    0.151982
     8  H    0.155179
     9  H    0.155188
    10  H    0.160282
    11  C   -0.298642
    12  C   -0.299498
    13  C   -0.479873
    14  H    0.149570
    15  H    0.149850
    16  H    0.152024
    17  H    0.152032
    18  H    0.158363
    19  H    0.155437
    20  H    0.161528
    21  C   -0.298163
    22  C   -0.299462
    23  C   -0.482903
    24  H    0.149718
    25  H    0.149484
    26  H    0.151490
    27  H    0.151190
    28  H    0.154632
    29  H    0.154796
    30  H    0.168624
    31  C   -0.298223
    32  C   -0.299634
    33  C   -0.475688
    34  H    0.149438
    35  H    0.149443
    36  H    0.151964
    37  H    0.151909
    38  H    0.155105
    39  H    0.155156
    40  H    0.160234
 Sum of Mulliken charges =  -0.00000

 Dipole moment (field-independent basis, Debye):
    X=              0.0326    Y=              0.0135    Z=             -0.0014  Tot=              0.0354
 Quadrupole moment (field-independent basis, Debye-Ang):
   XX=            -85.2202   YY=            -85.6627   ZZ=            -83.9073
   XY=              0.4883   XZ=             -0.2322   YZ=             -0.1724

 Normal termination of Gaussian 16 at Wed May  5 21:17:52 2021.
