 Gaussian 16, Revision A.03,
 Gaussian 16:  EM64L-G16RevA.03 25-Dec-2016

 -------------
 #p 6-31g* mp2
 -------------

 ------------------------------------------------------
 Input file generated by CHIRIPA (05-May-2021 14:53:12)
 ------------------------------------------------------
 Symbolic Z-matrix:
 Charge =  0 Multiplicity = 1

                         Standard orientation:
 ---------------------------------------------------------------------
 Center     Atomic      Atomic             Coordinates (Angstroms)
 Number     Number       Type             X           Y           Z
 ---------------------------------------------------------------------
      1          6           0       -4.056553   -0.571078    0.079902
      2          6           0       -5.509090   -1.026840    0.222731
      3          6           0       -5.634617   -2.408923    0.864513
      4          1           0       -3.505302   -1.307349   -0.520908
      5          1           0       -3.583796   -0.560101    1.071757
      6          1           0       -5.979365   -1.035626   -0.768924
      7          1           0       -6.056993   -0.289301    0.823110
      8          1           0       -5.190836   -2.410669    1.865341
      9          1           0       -5.112767   -3.161234    0.264261
     10          1           0       -6.681322   -2.715054    0.956985
     11          6           0       -3.914723    0.808803   -0.560052
     12          6           0       -2.462185    1.264566   -0.702882
     13          6           0       -2.336659    2.646649   -1.344663
     14          1           0       -4.387479    0.797827   -1.551907
     15          1           0       -4.465973    1.545075    0.040758
     16          1           0       -1.914282    0.527027   -1.303260
     17          1           0       -1.991911    1.273351    0.288774
     18          1           0       -2.858508    3.398960   -0.744411
     19          1           0       -2.780439    2.648395   -2.345491
     20          1           0       -1.289953    2.952780   -1.437135
     21          6           0        4.812123   -1.374859   -1.168183
     22          6           0        5.180581   -0.800161    0.052670
     23          6           0        4.247874   -0.087655    0.812236
     24          6           0        2.949590    0.031077    0.318627
     25          6           0        2.551945   -0.530039   -0.893939
     26          6           0        3.501292   -1.238205   -1.636765
     27          1           0        5.543135   -1.926664   -1.751730
     28          1           0        6.197874   -0.904676    0.419051
     29          1           0        4.506173    0.367376    1.760733
     30          1           0        1.530324   -0.408877   -1.233096
     31          1           0        3.212318   -1.683462   -2.584544
     32          7           0        1.953367    0.783077    1.113885
     33          8           0        0.815936    0.873348    0.657004
     34          8           0        2.328822    1.267985    2.179030
 ---------------------------------------------------------------------

 SCF Done:  E(RHF) =  -669.535890195     A.U. after   15 cycles
 E2 =    -0.2091116874D+01 EUMP2 =    -0.67162700706944D+03

 The electronic state is 1-A.
 Alpha  occ. eigenvalues --  -20.60896 -20.60890 -15.85935 -11.31267 -11.27833
 Alpha  occ. eigenvalues --  -11.27828 -11.27574 -11.26844 -11.26834 -11.21048
 Alpha  occ. eigenvalues --  -11.20667 -11.20626 -11.20507 -11.20340 -11.20054
 Alpha  occ. eigenvalues --   -1.59963  -1.39518  -1.19438  -1.08841  -1.07622
 Alpha  occ. eigenvalues --   -1.04836  -1.02704  -0.95682  -0.95200  -0.86236
 Alpha  occ. eigenvalues --   -0.86225  -0.82518  -0.78786  -0.77607  -0.77335
 Alpha  occ. eigenvalues --   -0.72155  -0.71279  -0.70546  -0.65094  -0.64840
 Alpha  occ. eigenvalues --   -0.64260  -0.62183  -0.60107  -0.58571  -0.56768
 Alpha  occ. eigenvalues --   -0.55340  -0.54514  -0.53168  -0.52928  -0.51899
 Alpha  occ. eigenvalues --   -0.51622  -0.49185  -0.48919  -0.48912  -0.47085
 Alpha  occ. eigenvalues --   -0.45814  -0.44978  -0.44920  -0.44780  -0.42971
 Alpha  occ. eigenvalues --   -0.37419  -0.36438
 Alpha virt. eigenvalues --    0.04963   0.11217   0.16456   0.21159   0.23551
 Alpha virt. eigenvalues --    0.24771   0.26624   0.27554   0.27744   0.28720
 Alpha virt. eigenvalues --    0.28900   0.30627   0.31680   0.32316   0.32734

 Mulliken charges:
               1
     1  C   -0.297253
     2  C   -0.298942
     3  C   -0.475159
     4  H    0.145514
     5  H    0.153523
     6  H    0.149695
     7  H    0.151752
     8  H    0.155786
     9  H    0.153035
    10  H    0.158290
    11  C   -0.298580
    12  C   -0.299941
    13  C   -0.475955
    14  H    0.144050
    15  H    0.148359
    16  H    0.142114
    17  H    0.176747
    18  H    0.153556
    19  H    0.147261
    20  H    0.163524
    21  C   -0.170591
    22  C   -0.218635
    23  C   -0.170554
    24  C    0.157511
    25  C   -0.171194
    26  C   -0.218651
    27  H    0.225892
    28  H    0.223700
    29  H    0.275758
    30  H    0.276506
    31  H    0.223771
    32  N    0.494074
    33  O   -0.465234
    34  O   -0.459730
 Sum of Mulliken charges =  -0.00000

 Dipole moment (field-independent basis, Debye):
    X=              3.7701    Y=             -2.6096    Z=             -2.6460  Tot=              5.2939
 Quadrupole moment (field-independent basis, Debye-Ang):
   XX=            -73.0179   YY=            -96.5828   ZZ=            -94.0733
   XY=             -7.5822   XZ=             -4.9060   YZ=              1.0174

 Normal termination of Gaussian 16 at Thu May  6 02:32:31 2021.
