 Gaussian 16, Revision A.03,
 Gaussian 16:  EM64L-G16RevA.03 25-Dec-2016

 -------------
 #p 6-31g* mp2
 -------------

 ------------------------------------------------------
 Input file generated by CHIRIPA (05-May-2021 14:53:18)
 ------------------------------------------------------
 Symbolic Z-matrix:
 Charge =  0 Multiplicity = 1

                         Standard orientation:
 ---------------------------------------------------------------------
 Center     Atomic      Atomic             Coordinates (Angstroms)
 Number     Number       Type             X           Y           Z
 ---------------------------------------------------------------------
      1          6           0       -3.780315    0.742612   -0.233645
      2          6           0       -2.796784    1.838358    0.178657
      3          6           0       -3.427896    3.231010    0.175321
      4          1           0       -4.170857    0.967352   -1.235600
      5          1           0       -4.641859    0.757392    0.448204
      6          1           0       -1.936698    1.820612   -0.502925
      7          1           0       -2.408392    1.610882    1.179668
      8          1           0       -4.273882    3.272242    0.869013
      9          1           0       -3.799508    3.483163   -0.823140
     10          1           0       -2.707268    3.999059    0.473075
     11          6           0       -3.164145   -0.655265   -0.235150
     12          6           0       -4.147676   -1.751011   -0.647451
     13          6           0       -3.516564   -3.143663   -0.644116
     14          1           0       -2.302601   -0.670045   -0.916999
     15          1           0       -2.773603   -0.880005    0.766805
     16          1           0       -4.536067   -1.523535   -1.648462
     17          1           0       -5.007762   -1.733264    0.034130
     18          1           0       -3.144952   -3.395815    0.354345
     19          1           0       -2.670577   -3.184895   -1.337807
     20          1           0       -4.237191   -3.911711   -0.941869
     21          6           0        4.917339    0.171398   -1.026490
     22          6           0        4.689328   -0.906869   -0.165168
     23          6           0        3.471560   -1.030862    0.510269
     24          6           0        2.499541   -0.053989    0.300064
     25          6           0        2.696663    1.031872   -0.551605
     26          6           0        3.922034    1.135626   -1.216624
     27          1           0        5.866283    0.259857   -1.547139
     28          1           0        5.460479   -1.657199   -0.015586
     29          1           0        3.268525   -1.855421    1.182800
     30          1           0        1.908812    1.764061   -0.680474
     31          1           0        4.096331    1.974091   -1.884938
     32          7           0        1.206321   -0.174542    1.009604
     33          8           0        0.366120    0.699404    0.807323
     34          8           0        1.057382   -1.140696    1.754589
 ---------------------------------------------------------------------

 SCF Done:  E(RHF) =  -669.535619251     A.U. after   15 cycles
 E2 =    -0.2091863864D+01 EUMP2 =    -0.67162748311455D+03

 The electronic state is 1-A.
 Alpha  occ. eigenvalues --  -20.60938 -20.60927 -15.85957 -11.31297 -11.27864
 Alpha  occ. eigenvalues --  -11.27858 -11.27600 -11.26872 -11.26862 -11.20582
 Alpha  occ. eigenvalues --  -11.20183 -11.20132 -11.20006 -11.19990 -11.19932
 Alpha  occ. eigenvalues --   -1.59995  -1.39552  -1.19467  -1.08870  -1.07157
 Alpha  occ. eigenvalues --   -1.04865  -1.02347  -0.95710  -0.94849  -0.86265
 Alpha  occ. eigenvalues --   -0.85869  -0.82551  -0.78389  -0.77600  -0.76893
 Alpha  occ. eigenvalues --   -0.72166  -0.71304  -0.70575  -0.65122  -0.64868
 Alpha  occ. eigenvalues --   -0.63806  -0.62213  -0.59760  -0.58207  -0.56430
 Alpha  occ. eigenvalues --   -0.55369  -0.54160  -0.53197  -0.52957  -0.51583
 Alpha  occ. eigenvalues --   -0.51256  -0.48991  -0.48959  -0.48787  -0.46680
 Alpha  occ. eigenvalues --   -0.45411  -0.45062  -0.44340  -0.44309  -0.42585
 Alpha  occ. eigenvalues --   -0.37446  -0.36467
 Alpha virt. eigenvalues --    0.04919   0.11187   0.16404   0.21266   0.24020
 Alpha virt. eigenvalues --    0.25312   0.27077   0.27663   0.28169   0.28917
 Alpha virt. eigenvalues --    0.29183   0.30875   0.32012   0.32619   0.32897

 Mulliken charges:
               1
     1  C   -0.299412
     2  C   -0.295945
     3  C   -0.475869
     4  H    0.142126
     5  H    0.144958
     6  H    0.153910
     7  H    0.167510
     8  H    0.151460
     9  H    0.148512
    10  H    0.156393
    11  C   -0.296033
    12  C   -0.299120
    13  C   -0.474603
    14  H    0.146936
    15  H    0.162216
    16  H    0.147050
    17  H    0.149408
    18  H    0.158633
    19  H    0.152107
    20  H    0.155551
    21  C   -0.170637
    22  C   -0.218566
    23  C   -0.170581
    24  C    0.157618
    25  C   -0.170985
    26  C   -0.218530
    27  H    0.226007
    28  H    0.223845
    29  H    0.275902
    30  H    0.275532
    31  H    0.223839
    32  N    0.493048
    33  O   -0.462487
    34  O   -0.459796
 Sum of Mulliken charges =  -0.00000

 Dipole moment (field-independent basis, Debye):
    X=              4.9109    Y=              0.3755    Z=             -2.3152  Tot=              5.4423
 Quadrupole moment (field-independent basis, Debye-Ang):
   XX=            -73.4825   YY=            -93.4839   ZZ=            -95.1053
   XY=             -0.1293   XZ=             -5.1526   YZ=             -2.1790

 Normal termination of Gaussian 16 at Thu May  6 01:16:21 2021.
