 Gaussian 16, Revision A.03,
 Gaussian 16:  EM64L-G16RevA.03 25-Dec-2016

 -------------
 #p 6-31g* mp2
 -------------

 ------------------------------------------------------
 Input file generated by CHIRIPA (05-May-2021 14:55:20)
 ------------------------------------------------------
 Symbolic Z-matrix:
 Charge =  0 Multiplicity = 1

                         Standard orientation:
 ---------------------------------------------------------------------
 Center     Atomic      Atomic             Coordinates (Angstroms)
 Number     Number       Type             X           Y           Z
 ---------------------------------------------------------------------
      1          6           0        1.113753   -2.302490    0.085299
      2          6           0        0.598746   -1.112159   -0.438535
      3          6           0        1.398150    0.031840   -0.520799
      4          6           0        2.714018   -0.050394   -0.068010
      5          6           0        3.256068   -1.221643    0.458913
      6          6           0        2.438435   -2.353343    0.531564
      7          1           0        0.485676   -3.186399    0.145470
      8          1           0       -0.429654   -1.069747   -0.785865
      9          1           0        1.024981    0.966331   -0.921909
     10          1           0        4.285074   -1.233157    0.797192
     11          1           0        2.841072   -3.276410    0.938844
     12          7           0        3.569960    1.154197   -0.150011
     13          8           0        4.725996    1.055775    0.255614
     14          8           0        3.068605    2.173968   -0.618356
     15          6           0       -3.248802   -0.385301    0.362900
     16          6           0       -3.628485   -1.481924   -0.632712
     17          6           0       -3.534389   -2.884594   -0.031499
     18          1           0       -2.226261   -0.563677    0.722809
     19          1           0       -3.905656   -0.453635    1.241120
     20          1           0       -2.972017   -1.410671   -1.509404
     21          1           0       -4.650172   -1.300809   -0.990438
     22          1           0       -4.202075   -2.979664    0.830914
     23          1           0       -2.514385   -3.090151    0.309001
     24          1           0       -3.810098   -3.653110   -0.760354
     25          6           0       -3.337945    1.022549   -0.223393
     26          6           0       -2.958263    2.119173    0.772220
     27          6           0       -3.052359    3.521842    0.171006
     28          1           0       -2.681093    1.090884   -1.101612
     29          1           0       -4.360487    1.200926   -0.583302
     30          1           0       -1.936575    1.938057    1.129945
     31          1           0       -3.614731    2.047920    1.648912
     32          1           0       -4.072363    3.727400   -0.169493
     33          1           0       -2.384673    3.616914   -0.691408
     34          1           0       -2.776651    4.290358    0.899860
 ---------------------------------------------------------------------

 SCF Done:  E(RHF) =  -669.535205913     A.U. after   15 cycles
 E2 =    -0.2092752091D+01 EUMP2 =    -0.67162795800433D+03

 The electronic state is 1-A.
 Alpha  occ. eigenvalues --  -20.60784 -20.60779 -15.85838 -11.31215 -11.27787
 Alpha  occ. eigenvalues --  -11.27783 -11.27524 -11.26797 -11.26760 -11.22657
 Alpha  occ. eigenvalues --  -11.22254 -11.22177 -11.22133 -11.22061 -11.21362
 Alpha  occ. eigenvalues --   -1.59859  -1.39412  -1.19388  -1.09258  -1.08776
 Alpha  occ. eigenvalues --   -1.04794  -1.04285  -0.96726  -0.95613  -0.87744
 Alpha  occ. eigenvalues --   -0.86191  -0.82446  -0.80361  -0.79011  -0.77497
 Alpha  occ. eigenvalues --   -0.72056  -0.71182  -0.70497  -0.66134  -0.65039
 Alpha  occ. eigenvalues --   -0.64663  -0.62166  -0.61612  -0.60108  -0.58311
 Alpha  occ. eigenvalues --   -0.56072  -0.55265  -0.53398  -0.53158  -0.53099
 Alpha  occ. eigenvalues --   -0.52871  -0.50673  -0.48820  -0.48810  -0.48644
 Alpha  occ. eigenvalues --   -0.47434  -0.46530  -0.46479  -0.44815  -0.44533
 Alpha  occ. eigenvalues --   -0.37360  -0.36380
 Alpha virt. eigenvalues --    0.05033   0.11142   0.16455   0.18086   0.22290
 Alpha virt. eigenvalues --    0.23600   0.25074   0.25637   0.27061   0.28191
 Alpha virt. eigenvalues --    0.29518   0.30588   0.30918   0.31620   0.32029

 Mulliken charges:
               1
     1  C   -0.175101
     2  C   -0.224010
     3  C   -0.174136
     4  C    0.158960
     5  C   -0.170694
     6  C   -0.218295
     7  H    0.227694
     8  H    0.234798
     9  H    0.275741
    10  H    0.275762
    11  H    0.223742
    12  N    0.488078
    13  O   -0.460329
    14  O   -0.460385
    15  C   -0.306267
    16  C   -0.304053
    17  C   -0.475587
    18  H    0.148386
    19  H    0.155131
    20  H    0.146171
    21  H    0.158915
    22  H    0.160994
    23  H    0.145560
    24  H    0.163739
    25  C   -0.298486
    26  C   -0.301153
    27  C   -0.476046
    28  H    0.143840
    29  H    0.153489
    30  H    0.153274
    31  H    0.153865
    32  H    0.155581
    33  H    0.156417
    34  H    0.164408
 Sum of Mulliken charges =  -0.00000

 Dipole moment (field-independent basis, Debye):
    X=             -3.1835    Y=             -4.1674    Z=              0.3554  Tot=              5.2563
 Quadrupole moment (field-independent basis, Debye-Ang):
   XX=           -106.5819   YY=            -94.2630   ZZ=            -94.7525
   XY=            -13.8318   XZ=              2.3135   YZ=             -0.5637

 Normal termination of Gaussian 16 at Thu May  6 01:23:06 2021.
