 Gaussian 16, Revision A.03,
 Gaussian 16:  EM64L-G16RevA.03 25-Dec-2016

 -------------
 #p 6-31g* mp2
 -------------

 ------------------------------------------------------
 Input file generated by CHIRIPA (05-May-2021 14:55:24)
 ------------------------------------------------------
 Symbolic Z-matrix:
 Charge =  0 Multiplicity = 1

                         Standard orientation:
 ---------------------------------------------------------------------
 Center     Atomic      Atomic             Coordinates (Angstroms)
 Number     Number       Type             X           Y           Z
 ---------------------------------------------------------------------
      1          6           0       -2.260216    2.090056   -1.031075
      2          6           0       -3.603641    1.822188   -0.748274
      3          6           0       -3.990758    0.570122   -0.261428
      4          6           0       -3.003760   -0.395181   -0.068252
      5          6           0       -1.657217   -0.158731   -0.340655
      6          6           0       -1.292997    1.100487   -0.826724
      7          1           0       -1.968388    3.065469   -1.408967
      8          1           0       -4.356955    2.588793   -0.906011
      9          1           0       -5.023685    0.335892   -0.034234
     10          1           0       -0.929017   -0.943027   -0.173255
     11          1           0       -0.248931    1.305702   -1.045485
     12          7           0       -3.401464   -1.724473    0.446738
     13          8           0       -2.512719   -2.557930    0.608349
     14          8           0       -4.594398   -1.907743    0.679026
     15          6           0        3.402946    0.600926    0.756607
     16          6           0        2.768216    1.914168    0.297805
     17          6           0        2.055821    2.653883    1.430550
     18          1           0        2.624644   -0.044881    1.185704
     19          1           0        4.116832    0.809703    1.565417
     20          1           0        2.056758    1.703138   -0.510841
     21          1           0        3.548087    2.556846   -0.130424
     22          1           0        2.757877    2.893148    2.235827
     23          1           0        1.258073    2.034589    1.853248
     24          1           0        1.609350    3.589814    1.080468
     25          6           0        4.118882   -0.150117   -0.364598
     26          6           0        4.753612   -1.463359    0.094203
     27          6           0        5.466007   -2.203074   -1.038541
     28          1           0        3.404995   -0.358893   -1.173407
     29          1           0        4.897184    0.495690   -0.793695
     30          1           0        3.973741   -2.106037    0.522433
     31          1           0        5.465070   -1.252329    0.902850
     32          1           0        6.263755   -1.583780   -1.461239
     33          1           0        4.763951   -2.442339   -1.843818
     34          1           0        5.912478   -3.139005   -0.688459
 ---------------------------------------------------------------------

 SCF Done:  E(RHF) =  -669.535525630     A.U. after   15 cycles
 E2 =    -0.2091371518D+01 EUMP2 =    -0.67162689714734D+03

 The electronic state is 1-A.
 Alpha  occ. eigenvalues --  -20.60771 -20.60766 -15.85824 -11.31188 -11.27759
 Alpha  occ. eigenvalues --  -11.27754 -11.27492 -11.26769 -11.26745 -11.22494
 Alpha  occ. eigenvalues --  -11.22018 -11.21945 -11.21879 -11.21797 -11.21321
 Alpha  occ. eigenvalues --   -1.59847  -1.39400  -1.19359  -1.09023  -1.08752
 Alpha  occ. eigenvalues --   -1.04764  -1.04091  -0.96514  -0.95589  -0.87529
 Alpha  occ. eigenvalues --   -0.86161  -0.82424  -0.80177  -0.78808  -0.77472
 Alpha  occ. eigenvalues --   -0.72043  -0.71170  -0.70467  -0.65719  -0.65010
 Alpha  occ. eigenvalues --   -0.64752  -0.62178  -0.61419  -0.59903  -0.58123
 Alpha  occ. eigenvalues --   -0.55798  -0.55257  -0.53217  -0.53086  -0.52944
 Alpha  occ. eigenvalues --   -0.52843  -0.50456  -0.48808  -0.48798  -0.48465
 Alpha  occ. eigenvalues --   -0.47219  -0.46341  -0.46261  -0.44806  -0.44342
 Alpha  occ. eigenvalues --   -0.37335  -0.36363
 Alpha virt. eigenvalues --    0.05060   0.11261   0.16511   0.19186   0.22882
 Alpha virt. eigenvalues --    0.23807   0.25301   0.26357   0.27312   0.28484
 Alpha virt. eigenvalues --    0.28952   0.29994   0.31183   0.31224   0.32258

 Mulliken charges:
               1
     1  C   -0.172627
     2  C   -0.218471
     3  C   -0.171044
     4  C    0.158867
     5  C   -0.174168
     6  C   -0.224080
     7  H    0.226166
     8  H    0.223439
     9  H    0.275603
    10  H    0.275147
    11  H    0.233898
    12  N    0.488133
    13  O   -0.460672
    14  O   -0.460409
    15  C   -0.299263
    16  C   -0.303616
    17  C   -0.477136
    18  H    0.150408
    19  H    0.153554
    20  H    0.141461
    21  H    0.155835
    22  H    0.159874
    23  H    0.158367
    24  H    0.157618
    25  C   -0.298089
    26  C   -0.300593
    27  C   -0.476081
    28  H    0.145888
    29  H    0.150804
    30  H    0.154572
    31  H    0.153286
    32  H    0.155072
    33  H    0.155572
    34  H    0.162682
 Sum of Mulliken charges =  -0.00000

 Dipole moment (field-independent basis, Debye):
    X=              1.5497    Y=              4.6728    Z=             -1.7293  Tot=              5.2180
 Quadrupole moment (field-independent basis, Debye-Ang):
   XX=            -97.4344   YY=            -98.6895   ZZ=            -95.7337
   XY=            -15.7385   XZ=              6.0818   YZ=              0.1615

 Normal termination of Gaussian 16 at Thu May  6 12:41:18 2021.
