 Gaussian 16, Revision A.03,
 Gaussian 16:  EM64L-G16RevA.03 25-Dec-2016

 -------------
 #p 6-31g* mp2
 -------------

 ------------------------------------------------------
 Input file generated by CHIRIPA (05-May-2021 14:55:21)
 ------------------------------------------------------
 Symbolic Z-matrix:
 Charge =  0 Multiplicity = 1

                         Standard orientation:
 ---------------------------------------------------------------------
 Center     Atomic      Atomic             Coordinates (Angstroms)
 Number     Number       Type             X           Y           Z
 ---------------------------------------------------------------------
      1          6           0       -5.640794   -0.673450   -0.787118
      2          6           0       -5.444426   -0.478397    0.583982
      3          6           0       -4.170133   -0.197616    1.085868
      4          6           0       -3.109937   -0.118787    0.184170
      5          6           0       -3.273551   -0.308168   -1.187200
      6          6           0       -4.556641   -0.587864   -1.666782
      7          1           0       -6.634112   -0.891146   -1.168332
      8          1           0       -6.284546   -0.544268    1.269478
      9          1           0       -3.989849   -0.042241    2.142643
     10          1           0       -2.416614   -0.236226   -1.845912
     11          1           0       -4.706180   -0.738886   -2.732087
     12          7           0       -1.756244    0.177889    0.703688
     13          8           0       -0.838641    0.242038   -0.111498
     14          8           0       -1.638454    0.340657    1.916234
     15          6           0        4.428908   -0.477114    0.153990
     16          6           0        5.752640   -1.043790   -0.360401
     17          6           0        6.064086   -2.428203    0.208979
     18          1           0        4.461143   -0.425254    1.250902
     19          1           0        3.616612   -1.171267   -0.102372
     20          1           0        6.562011   -0.348106   -0.104357
     21          1           0        5.717322   -1.094128   -1.456227
     22          1           0        5.276906   -3.140640   -0.058195
     23          1           0        6.126395   -2.390379    1.301356
     24          1           0        7.014702   -2.814378   -0.171886
     25          6           0        4.103678    0.906381   -0.406271
     26          6           0        2.779946    1.473056    0.108120
     27          6           0        2.468500    2.857469   -0.461260
     28          1           0        4.915974    1.600534   -0.149908
     29          1           0        4.071443    0.854521   -1.503182
     30          1           0        2.815264    1.523394    1.203947
     31          1           0        1.970574    0.777372   -0.147923
     32          1           0        2.406192    2.819646   -1.553637
     33          1           0        3.255680    3.569907   -0.194086
     34          1           0        1.517884    3.243644   -0.080394
 ---------------------------------------------------------------------

 SCF Done:  E(RHF) =  -669.536157603     A.U. after   15 cycles
 E2 =    -0.2090956023D+01 EUMP2 =    -0.67162711362542D+03

 The electronic state is 1-A.
 Alpha  occ. eigenvalues --  -20.60984 -20.60972 -15.86014 -11.31322 -11.27883
 Alpha  occ. eigenvalues --  -11.27879 -11.27618 -11.26887 -11.26878 -11.20797
 Alpha  occ. eigenvalues --  -11.20401 -11.20334 -11.20161 -11.19850 -11.19697
 Alpha  occ. eigenvalues --   -1.60038  -1.39595  -1.19488  -1.08894  -1.07286
 Alpha  occ. eigenvalues --   -1.04883  -1.02367  -0.95739  -0.94882  -0.86284
 Alpha  occ. eigenvalues --   -0.85912  -0.82574  -0.78460  -0.77628  -0.77020
 Alpha  occ. eigenvalues --   -0.72235  -0.71352  -0.70597  -0.65145  -0.64886
 Alpha  occ. eigenvalues --   -0.63925  -0.62230  -0.59768  -0.58269  -0.56446
 Alpha  occ. eigenvalues --   -0.55386  -0.54199  -0.53215  -0.52974  -0.51592
 Alpha  occ. eigenvalues --   -0.51300  -0.49062  -0.48982  -0.48825  -0.46755
 Alpha  occ. eigenvalues --   -0.45484  -0.45010  -0.44595  -0.44396  -0.42636
 Alpha  occ. eigenvalues --   -0.37467  -0.36483
 Alpha virt. eigenvalues --    0.04905   0.11172   0.16407   0.21304   0.23926
 Alpha virt. eigenvalues --    0.25430   0.27226   0.27756   0.28173   0.28725
 Alpha virt. eigenvalues --    0.29049   0.30876   0.32352   0.32517   0.32871

 Mulliken charges:
               1
     1  C   -0.170547
     2  C   -0.218597
     3  C   -0.170440
     4  C    0.157502
     5  C   -0.170791
     6  C   -0.218526
     7  H    0.226091
     8  H    0.223917
     9  H    0.275954
    10  H    0.275623
    11  H    0.223898
    12  N    0.491440
    13  O   -0.462600
    14  O   -0.458565
    15  C   -0.297473
    16  C   -0.298654
    17  C   -0.474950
    18  H    0.149467
    19  H    0.151597
    20  H    0.149995
    21  H    0.149603
    22  H    0.154337
    23  H    0.154722
    24  H    0.157148
    25  C   -0.297797
    26  C   -0.307663
    27  C   -0.473853
    28  H    0.144165
    29  H    0.144986
    30  H    0.150529
    31  H    0.179533
    32  H    0.149049
    33  H    0.147677
    34  H    0.163226
 Sum of Mulliken charges =  -0.00000

 Dipole moment (field-independent basis, Debye):
    X=             -5.1778    Y=             -1.1187    Z=             -1.7638  Tot=              5.5832
 Quadrupole moment (field-independent basis, Debye-Ang):
   XX=            -66.3425   YY=            -96.8306   ZZ=            -90.7168
   XY=              4.2040   XZ=              3.4575   YZ=              1.0971

 Normal termination of Gaussian 16 at Wed May  5 17:26:44 2021.
