 Gaussian 16, Revision A.03,
 Gaussian 16:  EM64L-G16RevA.03 25-Dec-2016

 -------------
 #p 6-31g* mp2
 -------------

 ------------------------------------------------------
 Input file generated by CHIRIPA (05-May-2021 14:55:21)
 ------------------------------------------------------
 Symbolic Z-matrix:
 Charge =  0 Multiplicity = 1

                         Standard orientation:
 ---------------------------------------------------------------------
 Center     Atomic      Atomic             Coordinates (Angstroms)
 Number     Number       Type             X           Y           Z
 ---------------------------------------------------------------------
      1          6           0       -2.552183    2.391295   -0.192512
      2          6           0       -1.862585    1.189040   -0.381081
      3          6           0       -2.532034   -0.035042   -0.291583
      4          6           0       -3.897393   -0.019860   -0.010772
      5          6           0       -4.612267    1.161251    0.182157
      6          6           0       -3.922407    2.373595    0.088010
      7          1           0       -2.024211    3.337632   -0.263842
      8          1           0       -0.798435    1.199751   -0.599060
      9          1           0       -2.022710   -0.980546   -0.433107
     10          1           0       -5.672898    1.118591    0.398164
     11          1           0       -4.460530    3.305735    0.234923
     12          7           0       -4.616913   -1.309527    0.086436
     13          8           0       -5.819936   -1.269150    0.334916
     14          8           0       -3.964225   -2.336326   -0.087692
     15          6           0        5.550063   -0.390020   -0.198591
     16          6           0        6.592077    0.531320    0.436489
     17          6           0        8.014021    0.232169   -0.039303
     18          1           0        5.803513   -1.433775    0.032240
     19          1           0        5.600483   -0.290533   -1.291730
     20          1           0        6.538763    0.431156    1.528158
     21          1           0        6.336011    1.573014    0.204281
     22          1           0        8.089979    0.351000   -1.124987
     23          1           0        8.293884   -0.797346    0.206412
     24          1           0        8.742786    0.902380    0.427150
     25          6           0        4.123683   -0.103274    0.267181
     26          6           0        3.081670   -1.024614   -0.367898
     27          6           0        1.659725   -0.725463    0.107893
     28          1           0        4.073263   -0.202760    1.360322
     29          1           0        3.870234    0.940481    0.036350
     30          1           0        3.337735   -2.066307   -0.135690
     31          1           0        3.134983   -0.924449   -1.459567
     32          1           0        1.379863    0.304052   -0.137822
     33          1           0        1.583768   -0.844293    1.193578
     34          1           0        0.930961   -1.395674   -0.358560
 ---------------------------------------------------------------------

 SCF Done:  E(RHF) =  -669.535455871     A.U. after   15 cycles
 E2 =    -0.2091082669D+01 EUMP2 =    -0.67162653853973D+03

 The electronic state is 1-A.
 Alpha  occ. eigenvalues --  -20.60701 -20.60696 -15.85753 -11.31098 -11.27669
 Alpha  occ. eigenvalues --  -11.27645 -11.27403 -11.26688 -11.26621 -11.22268
 Alpha  occ. eigenvalues --  -11.22052 -11.21976 -11.21948 -11.21802 -11.21373
 Alpha  occ. eigenvalues --   -1.59777  -1.39331  -1.19266  -1.08956  -1.08668
 Alpha  occ. eigenvalues --   -1.04665  -1.04089  -0.96565  -0.95506  -0.87593
 Alpha  occ. eigenvalues --   -0.86066  -0.82338  -0.80160  -0.78741  -0.77383
 Alpha  occ. eigenvalues --   -0.71972  -0.71099  -0.70383  -0.65593  -0.64918
 Alpha  occ. eigenvalues --   -0.64685  -0.62069  -0.61448  -0.59933  -0.58152
 Alpha  occ. eigenvalues --   -0.55875  -0.55171  -0.53274  -0.53094  -0.52986
 Alpha  occ. eigenvalues --   -0.52655  -0.50480  -0.48732  -0.48728  -0.48458
 Alpha  occ. eigenvalues --   -0.47167  -0.46291  -0.46193  -0.44740  -0.44335
 Alpha  occ. eigenvalues --   -0.37254  -0.36261
 Alpha virt. eigenvalues --    0.05140   0.11378   0.16622   0.20051   0.22530
 Alpha virt. eigenvalues --    0.23799   0.25486   0.25847   0.26510   0.27524
 Alpha virt. eigenvalues --    0.28926   0.29489   0.31277   0.31486   0.32182

 Mulliken charges:
               1
     1  C   -0.172170
     2  C   -0.222481
     3  C   -0.174683
     4  C    0.158879
     5  C   -0.171151
     6  C   -0.218552
     7  H    0.225280
     8  H    0.231262
     9  H    0.276929
    10  H    0.275207
    11  H    0.222945
    12  N    0.488128
    13  O   -0.460789
    14  O   -0.460671
    15  C   -0.298810
    16  C   -0.299939
    17  C   -0.476004
    18  H    0.151564
    19  H    0.150057
    20  H    0.152697
    21  H    0.151285
    22  H    0.155516
    23  H    0.156237
    24  H    0.161122
    25  C   -0.298824
    26  C   -0.299650
    27  C   -0.481530
    28  H    0.151256
    29  H    0.147486
    30  H    0.156922
    31  H    0.153099
    32  H    0.146507
    33  H    0.162117
    34  H    0.160757
 Sum of Mulliken charges =  -0.00000

 Dipole moment (field-independent basis, Debye):
    X=              2.7605    Y=              4.4765    Z=             -0.3072  Tot=              5.2682
 Quadrupole moment (field-independent basis, Debye-Ang):
   XX=           -111.6514   YY=            -93.7457   ZZ=            -94.8899
   XY=            -20.4799   XZ=              0.7686   YZ=             -0.0632

 Normal termination of Gaussian 16 at Thu May  6 06:10:36 2021.
