 Gaussian 16, Revision A.03,
 Gaussian 16:  EM64L-G16RevA.03 25-Dec-2016

 -------------
 #p 6-31g* mp2
 -------------

 ------------------------------------------------------
 Input file generated by CHIRIPA (05-May-2021 14:53:17)
 ------------------------------------------------------
 Symbolic Z-matrix:
 Charge =  0 Multiplicity = 1

                         Standard orientation:
 ---------------------------------------------------------------------
 Center     Atomic      Atomic             Coordinates (Angstroms)
 Number     Number       Type             X           Y           Z
 ---------------------------------------------------------------------
      1          6           0        5.227559    0.449261   -0.034563
      2          6           0        5.916000   -0.915952   -0.019465
      3          6           0        7.397402   -0.835102   -0.389202
      4          1           0        5.333966    0.895450   -1.032830
      5          1           0        5.744832    1.120733    0.664685
      6          1           0        5.396731   -1.585066   -0.717506
      7          1           0        5.807775   -1.359027    0.978828
      8          1           0        7.934959   -0.189387    0.312714
      9          1           0        7.521579   -0.416710   -1.393258
     10          1           0        7.869887   -1.822182   -0.372161
     11          6           0        3.746179    0.384818    0.332982
     12          6           0        3.057738    1.750031    0.317884
     13          6           0        1.576335    1.669181    0.687621
     14          1           0        3.228906   -0.286654   -0.366266
     15          1           0        3.639771   -0.061371    1.331249
     16          1           0        3.165962    2.193106   -0.680409
     17          1           0        3.577006    2.419145    1.015925
     18          1           0        1.452158    1.250790    1.691677
     19          1           0        1.038778    1.023466   -0.014295
     20          1           0        1.103851    2.656262    0.670580
     21          6           0       -5.627529    1.033500    0.004333
     22          6           0       -5.586446   -0.250811    0.556943
     23          6           0       -4.416013   -1.012975    0.495760
     24          6           0       -3.300204   -0.457226   -0.128259
     25          6           0       -3.309786    0.819374   -0.688161
     26          6           0       -4.491071    1.563559   -0.615363
     27          1           0       -6.540964    1.618585    0.056373
     28          1           0       -6.467510   -0.665018    1.038817
     29          1           0       -4.356546   -2.009886    0.915344
     30          1           0       -2.415445    1.205340   -1.162085
     31          1           0       -4.520077    2.560696   -1.045389
     32          7           0       -2.055374   -1.254579   -0.199178
     33          8           0       -1.085896   -0.742221   -0.754370
     34          8           0       -2.072727   -2.376803    0.301769
 ---------------------------------------------------------------------

 SCF Done:  E(RHF) =  -669.536187795     A.U. after   15 cycles
 E2 =    -0.2090784202D+01 EUMP2 =    -0.67162697199671D+03

 The electronic state is 1-A.
 Alpha  occ. eigenvalues --  -20.60904 -20.60897 -15.85938 -11.31249 -11.27816
 Alpha  occ. eigenvalues --  -11.27809 -11.27556 -11.26824 -11.26813 -11.20962
 Alpha  occ. eigenvalues --  -11.20806 -11.20698 -11.20551 -11.20495 -11.20051
 Alpha  occ. eigenvalues --   -1.59961  -1.39519  -1.19420  -1.08826  -1.07675
 Alpha  occ. eigenvalues --   -1.04816  -1.02787  -0.95671  -0.95227  -0.86246
 Alpha  occ. eigenvalues --   -0.86217  -0.82506  -0.78860  -0.77565  -0.77461
 Alpha  occ. eigenvalues --   -0.72169  -0.71272  -0.70531  -0.65079  -0.64821
 Alpha  occ. eigenvalues --   -0.64306  -0.62164  -0.60180  -0.58621  -0.56839
 Alpha  occ. eigenvalues --   -0.55324  -0.54498  -0.53147  -0.52909  -0.51960
 Alpha  occ. eigenvalues --   -0.51637  -0.49175  -0.48922  -0.48887  -0.47173
 Alpha  occ. eigenvalues --   -0.45904  -0.45080  -0.44981  -0.44753  -0.43053
 Alpha  occ. eigenvalues --   -0.37399  -0.36417
 Alpha virt. eigenvalues --    0.04946   0.11237   0.16417   0.21303   0.23606
 Alpha virt. eigenvalues --    0.25008   0.27114   0.27427   0.27860   0.28333
 Alpha virt. eigenvalues --    0.29006   0.30814   0.31910   0.32374   0.32602

 Mulliken charges:
               1
     1  C   -0.297884
     2  C   -0.299468
     3  C   -0.475327
     4  H    0.147952
     5  H    0.146815
     6  H    0.154017
     7  H    0.151773
     8  H    0.153629
     9  H    0.154145
    10  H    0.159160
    11  C   -0.299253
    12  C   -0.298294
    13  C   -0.486301
    14  H    0.158075
    15  H    0.149331
    16  H    0.148716
    17  H    0.147267
    18  H    0.152888
    19  H    0.179824
    20  H    0.149527
    21  C   -0.170603
    22  C   -0.218607
    23  C   -0.170845
    24  C    0.158241
    25  C   -0.170239
    26  C   -0.218622
    27  H    0.225832
    28  H    0.223638
    29  H    0.275699
    30  H    0.276064
    31  H    0.223758
    32  N    0.491022
    33  O   -0.462875
    34  O   -0.459056
 Sum of Mulliken charges =  -0.00000

 Dipole moment (field-independent basis, Debye):
    X=             -4.6203    Y=              2.6583    Z=              0.1908  Tot=              5.3339
 Quadrupole moment (field-independent basis, Debye-Ang):
   XX=            -67.1643   YY=            -95.2408   ZZ=            -93.5314
   XY=             -5.7287   XZ=             -1.2184   YZ=             -2.6761

 Normal termination of Gaussian 16 at Thu May  6 10:41:23 2021.
