 Gaussian 16, Revision A.03,
 Gaussian 16:  EM64L-G16RevA.03 25-Dec-2016

 -------------
 #p 6-31g* mp2
 -------------

 ------------------------------------------------------
 Input file generated by CHIRIPA (05-May-2021 14:53:12)
 ------------------------------------------------------
 Symbolic Z-matrix:
 Charge =  0 Multiplicity = 1

                         Standard orientation:
 ---------------------------------------------------------------------
 Center     Atomic      Atomic             Coordinates (Angstroms)
 Number     Number       Type             X           Y           Z
 ---------------------------------------------------------------------
      1          6           0        3.148753    0.774344   -0.109637
      2          6           0        3.820439    2.130496    0.108704
      3          6           0        2.816152    3.279845    0.199260
      4          1           0        2.549589    0.812961   -1.029667
      5          1           0        2.445907    0.584370    0.713352
      6          1           0        4.522829    2.317233   -0.713727
      7          1           0        4.418227    2.088586    1.028220
      8          1           0        2.122127    3.120377    1.030825
      9          1           0        2.227323    3.350323   -0.721019
     10          1           0        3.317812    4.239957    0.355408
     11          6           0        4.139711   -0.384601   -0.202253
     12          6           0        3.468025   -1.740754   -0.420595
     13          6           0        4.472312   -2.890102   -0.511151
     14          1           0        4.842557   -0.194627   -1.025243
     15          1           0        4.738875   -0.423219    0.717777
     16          1           0        2.870237   -1.698844   -1.340110
     17          1           0        2.765635   -1.927491    0.401837
     18          1           0        5.061141   -2.960581    0.409129
     19          1           0        5.166337   -2.730635   -1.342716
     20          1           0        3.970653   -3.850215   -0.667298
     21          6           0       -0.482615   -0.590095    0.885786
     22          6           0       -1.436151   -1.612061    0.939398
     23          6           0       -2.749201   -1.380784    0.518734
     24          6           0       -3.075641   -0.109913    0.047976
     25          6           0       -2.148207    0.928763   -0.017654
     26          6           0       -0.841054    0.674826    0.408273
     27          1           0        0.535104   -0.778558    1.214612
     28          1           0       -1.160620   -2.595395    1.309778
     29          1           0       -3.507338   -2.153898    0.549460
     30          1           0       -2.452773    1.898669   -0.391740
     31          1           0       -0.102616    1.470390    0.365508
     32          7           0       -4.462588    0.146924   -0.400148
     33          8           0       -4.724937    1.275284   -0.810772
     34          8           0       -5.261065   -0.784990   -0.332277
 ---------------------------------------------------------------------

 SCF Done:  E(RHF) =  -669.535032372     A.U. after   15 cycles
 E2 =    -0.2092828901D+01 EUMP2 =    -0.67162786127377D+03

 The electronic state is 1-A.
 Alpha  occ. eigenvalues --  -20.60675 -20.60670 -15.85727 -11.31063 -11.27634
 Alpha  occ. eigenvalues --  -11.27618 -11.27316 -11.26638 -11.26575 -11.22697
 Alpha  occ. eigenvalues --  -11.22689 -11.22634 -11.22432 -11.22187 -11.21920
 Alpha  occ. eigenvalues --   -1.59751  -1.39305  -1.19228  -1.09567  -1.08622
 Alpha  occ. eigenvalues --   -1.04637  -1.04576  -0.97037  -0.95470  -0.88048
 Alpha  occ. eigenvalues --   -0.86028  -0.82307  -0.80658  -0.79431  -0.77350
 Alpha  occ. eigenvalues --   -0.71945  -0.71074  -0.70364  -0.66190  -0.64877
 Alpha  occ. eigenvalues --   -0.64623  -0.62034  -0.61927  -0.60392  -0.58660
 Alpha  occ. eigenvalues --   -0.56340  -0.55141  -0.53680  -0.53469  -0.52957
 Alpha  occ. eigenvalues --   -0.52719  -0.50974  -0.48977  -0.48703  -0.48686
 Alpha  occ. eigenvalues --   -0.47694  -0.46886  -0.46826  -0.44854  -0.44718
 Alpha  occ. eigenvalues --   -0.37192  -0.36234
 Alpha virt. eigenvalues --    0.05166   0.11383   0.16626   0.19146   0.21830
 Alpha virt. eigenvalues --    0.22726   0.24873   0.25896   0.26103   0.28246
 Alpha virt. eigenvalues --    0.29757   0.30365   0.30782   0.31552   0.31859

 Mulliken charges:
               1
     1  C   -0.304438
     2  C   -0.299313
     3  C   -0.480726
     4  H    0.153966
     5  H    0.140010
     6  H    0.157033
     7  H    0.155015
     8  H    0.151605
     9  H    0.156073
    10  H    0.167264
    11  C   -0.299065
    12  C   -0.301629
    13  C   -0.476245
    14  H    0.154683
    15  H    0.151858
    16  H    0.156686
    17  H    0.142777
    18  H    0.156566
    19  H    0.158809
    20  H    0.162267
    21  C   -0.175272
    22  C   -0.219721
    23  C   -0.171162
    24  C    0.158369
    25  C   -0.172138
    26  C   -0.225741
    27  H    0.232085
    28  H    0.222675
    29  H    0.274992
    30  H    0.275334
    31  H    0.230997
    32  N    0.488037
    33  O   -0.460777
    34  O   -0.460874
 Sum of Mulliken charges =  -0.00000

 Dipole moment (field-independent basis, Debye):
    X=              5.2364    Y=             -0.8613    Z=              1.4626  Tot=              5.5046
 Quadrupole moment (field-independent basis, Debye-Ang):
   XX=           -124.3731   YY=            -90.5333   ZZ=            -94.1342
   XY=              4.3187   XZ=             -5.2983   YZ=             -1.5941

 Normal termination of Gaussian 16 at Wed May  5 18:30:38 2021.
