 Gaussian 16, Revision A.03,
 Gaussian 16:  EM64L-G16RevA.03 25-Dec-2016

 -------------
 #p 6-31g* mp2
 -------------

 ------------------------------------------------------
 Input file generated by CHIRIPA (05-May-2021 14:51:14)
 ------------------------------------------------------
 Symbolic Z-matrix:
 Charge =  0 Multiplicity = 1

                         Standard orientation:
 ---------------------------------------------------------------------
 Center     Atomic      Atomic             Coordinates (Angstroms)
 Number     Number       Type             X           Y           Z
 ---------------------------------------------------------------------
      1          6           0       -2.180638   -0.554575   -0.322178
      2          6           0       -2.463319   -1.517030   -1.476196
      3          6           0       -1.500505   -2.704445   -1.504995
      4          1           0       -1.147736   -0.189072   -0.402595
      5          1           0       -2.245017   -1.103147    0.627727
      6          1           0       -2.399787   -0.966503   -2.423560
      7          1           0       -3.495728   -1.880137   -1.393131
      8          1           0       -1.569022   -3.278602   -0.575345
      9          1           0       -0.466854   -2.359777   -1.611629
     10          1           0       -1.720599   -3.379660   -2.337764
     11          6           0       -3.134898    0.637624   -0.280039
     12          6           0       -2.852217    1.600079    0.873979
     13          6           0       -3.815031    2.787494    0.902778
     14          1           0       -3.070519    1.186196   -1.229944
     15          1           0       -4.167799    0.272120   -0.199622
     16          1           0       -1.819807    1.963186    0.790914
     17          1           0       -2.915749    1.049551    1.821343
     18          1           0       -4.848682    2.442825    1.009412
     19          1           0       -3.746513    3.361651   -0.026872
     20          1           0       -3.594937    3.462709    1.735547
     21          6           0        2.101302   -0.341381    0.729902
     22          6           0        2.270829   -1.839925    0.982111
     23          6           0        1.149805   -2.425303    1.841431
     24          1           0        2.063701    0.184267    1.693866
     25          1           0        1.133256   -0.166232    0.240405
     26          1           0        3.238875   -2.012336    1.469735
     27          1           0        2.308223   -2.362045    0.017430
     28          1           0        0.178453   -2.282489    1.356992
     29          1           0        1.114392   -1.930792    2.817549
     30          1           0        1.290823   -3.497592    2.009267
     31          6           0        3.214234    0.258332   -0.127685
     32          6           0        3.044707    1.756877   -0.379894
     33          6           0        4.165731    2.342254   -1.239214
     34          1           0        4.182279    0.083184    0.361811
     35          1           0        3.251835   -0.267315   -1.091648
     36          1           0        3.007313    2.278996    0.584787
     37          1           0        2.076661    1.929287   -0.867518
     38          1           0        4.201142    1.847744   -2.215332
     39          1           0        5.137083    2.199440   -0.754774
     40          1           0        4.024712    3.414545   -1.407051
 ---------------------------------------------------------------------

 SCF Done:  E(RHF) =  -470.732921371     A.U. after   11 cycles
 E2 =    -0.1584400664D+01 EUMP2 =    -0.47231732203497D+03

 The electronic state is 1-A.
 Alpha  occ. eigenvalues --  -11.21668 -11.21625 -11.21611 -11.21549 -11.21456
 Alpha  occ. eigenvalues --  -11.21393 -11.21389 -11.21315 -11.21143 -11.21088
 Alpha  occ. eigenvalues --  -11.21079 -11.20943  -1.08497  -1.08402  -1.03587
 Alpha  occ. eigenvalues --   -1.03490  -0.96034  -0.95941  -0.87049  -0.86961
 Alpha  occ. eigenvalues --   -0.79672  -0.79544  -0.78429  -0.78107  -0.65219
 Alpha  occ. eigenvalues --   -0.64960  -0.60988  -0.60903  -0.59409  -0.59296
 Alpha  occ. eigenvalues --   -0.57656  -0.57550  -0.55346  -0.55214  -0.52717
 Alpha  occ. eigenvalues --   -0.52644  -0.52477  -0.52351  -0.49981  -0.49908
 Alpha  occ. eigenvalues --   -0.48103  -0.47784  -0.46682  -0.46676  -0.46270
 Alpha  occ. eigenvalues --   -0.45755  -0.45711  -0.45092  -0.43829  -0.43758
 Alpha virt. eigenvalues --    0.20097   0.23006   0.23388   0.24700   0.25122
 Alpha virt. eigenvalues --    0.25998   0.26692   0.27959   0.28723   0.30176
 Alpha virt. eigenvalues --    0.30729   0.31235   0.31549   0.31862   0.32032

 Mulliken charges:
               1
     1  C   -0.308718
     2  C   -0.299050
     3  C   -0.478819
     4  H    0.157463
     5  H    0.151265
     6  H    0.151801
     7  H    0.152370
     8  H    0.157323
     9  H    0.155783
    10  H    0.160792
    11  C   -0.297567
    12  C   -0.300031
    13  C   -0.475739
    14  H    0.149379
    15  H    0.149874
    16  H    0.152500
    17  H    0.152282
    18  H    0.155177
    19  H    0.155119
    20  H    0.160435
    21  C   -0.307525
    22  C   -0.299131
    23  C   -0.482204
    24  H    0.149741
    25  H    0.157305
    26  H    0.151687
    27  H    0.151838
    28  H    0.163435
    29  H    0.154177
    30  H    0.159384
    31  C   -0.297586
    32  C   -0.299445
    33  C   -0.475664
    34  H    0.149751
    35  H    0.149093
    36  H    0.152168
    37  H    0.150572
    38  H    0.155149
    39  H    0.155403
    40  H    0.160213
 Sum of Mulliken charges =  -0.00000

 Dipole moment (field-independent basis, Debye):
    X=             -0.0478    Y=             -0.0008    Z=             -0.0060  Tot=              0.0482
 Quadrupole moment (field-independent basis, Debye-Ang):
   XX=            -85.0015   YY=            -85.6291   ZZ=            -84.1374
   XY=              0.6789   XZ=              0.5933   YZ=              0.1248

 Normal termination of Gaussian 16 at Wed May  5 21:38:16 2021.
