 Gaussian 16, Revision A.03,
 Gaussian 16:  EM64L-G16RevA.03 25-Dec-2016

 -------------
 #p 6-31g* mp2
 -------------

 ------------------------------------------------------
 Input file generated by CHIRIPA (05-May-2021 14:57:26)
 ------------------------------------------------------
 Symbolic Z-matrix:
 Charge =  0 Multiplicity = 1

                         Standard orientation:
 ---------------------------------------------------------------------
 Center     Atomic      Atomic             Coordinates (Angstroms)
 Number     Number       Type             X           Y           Z
 ---------------------------------------------------------------------
      1          6           0        4.712357   -2.101836    0.708377
      2          6           0        3.772467   -1.439364    1.504780
      3          6           0        3.204693   -0.234624    1.079593
      4          6           0        3.601509    0.281484   -0.153070
      5          6           0        4.535482   -0.354877   -0.969176
      6          6           0        5.090199   -1.558437   -0.523887
      7          1           0        5.148346   -3.037248    1.046480
      8          1           0        3.477147   -1.859035    2.462228
      9          1           0        2.474889    0.299132    1.676174
     10          1           0        4.810027    0.088123   -1.918804
     11          1           0        5.819902   -2.070732   -1.144477
     12          7           0        3.007343    1.556263   -0.613837
     13          8           0        3.373693    1.990143   -1.703871
     14          8           0        2.186538    2.097417    0.123772
     15          6           0       -1.522437    0.822703    0.986643
     16          6           0       -2.737972    1.344474    1.441340
     17          6           0       -3.950273    0.856702    0.944399
     18          6           0       -3.909899   -0.157822   -0.010798
     19          6           0       -2.715051   -0.698206   -0.483677
     20          6           0       -1.514869   -0.195177    0.027277
     21          1           0       -0.585399    1.207542    1.378120
     22          1           0       -2.746886    2.135009    2.186337
     23          1           0       -4.905613    1.242524    1.278894
     24          1           0       -2.738166   -1.485877   -1.226952
     25          1           0       -0.572369   -0.602290   -0.327684
     26          7           0       -5.186893   -0.682280   -0.544304
     27          8           0       -5.124305   -1.576394   -1.385305
     28          8           0       -6.226208   -0.189308   -0.111364
 ---------------------------------------------------------------------

 SCF Done:  E(RHF) =  -868.339010836     A.U. after   16 cycles
 E2 =    -0.2599138938D+01 EUMP2 =    -0.87093814977382D+03

 The electronic state is 1-A.
 Alpha  occ. eigenvalues --  -20.61865 -20.61802 -20.60431 -20.60426 -15.86871
 Alpha  occ. eigenvalues --  -15.85484 -11.32132 -11.30747 -11.28732 -11.28613
 Alpha  occ. eigenvalues --  -11.28326 -11.27653 -11.27596 -11.27335 -11.27320
 Alpha  occ. eigenvalues --  -11.26936 -11.26292 -11.26263  -1.60894  -1.59510
 Alpha  occ. eigenvalues --   -1.40457  -1.39066  -1.20272  -1.18909  -1.09674
 Alpha  occ. eigenvalues --   -1.08299  -1.05652  -1.04311  -0.96534  -0.95152
 Alpha  occ. eigenvalues --   -0.87052  -0.85701  -0.83369  -0.82000  -0.78449
 Alpha  occ. eigenvalues --   -0.77083  -0.73091  -0.72217  -0.71703  -0.71357
 Alpha  occ. eigenvalues --   -0.70832  -0.69948  -0.65917  -0.65634  -0.64555
 Alpha  occ. eigenvalues --   -0.64313  -0.63004  -0.61673  -0.56120  -0.54724
 Alpha  occ. eigenvalues --   -0.53989  -0.53729  -0.52630  -0.52401  -0.49857
 Alpha  occ. eigenvalues --   -0.49815  -0.48464  -0.48452  -0.45876  -0.44495
 Alpha  occ. eigenvalues --   -0.38225  -0.37254  -0.36840  -0.35926
 Alpha virt. eigenvalues --    0.04054   0.05470   0.10360   0.11739   0.15585
 Alpha virt. eigenvalues --    0.16995   0.19896   0.21819   0.25532   0.26967
 Alpha virt. eigenvalues --    0.27638   0.28810   0.30458   0.30955   0.32716

 Mulliken charges:
               1
     1  C   -0.170234
     2  C   -0.217990
     3  C   -0.175298
     4  C    0.157569
     5  C   -0.170568
     6  C   -0.217934
     7  H    0.229211
     8  H    0.226014
     9  H    0.270053
    10  H    0.278109
    11  H    0.227097
    12  N    0.489554
    13  O   -0.453352
    14  O   -0.469560
    15  C   -0.172164
    16  C   -0.219597
    17  C   -0.170999
    18  C    0.157616
    19  C   -0.171352
    20  C   -0.218962
    21  H    0.237138
    22  H    0.223458
    23  H    0.274251
    24  H    0.273458
    25  H    0.219803
    26  N    0.488250
    27  O   -0.462093
    28  O   -0.461481
 Sum of Mulliken charges =  -0.00000

 Dipole moment (field-independent basis, Debye):
    X=              7.0145    Y=             -2.6538    Z=              3.4475  Tot=              8.2541
 Quadrupole moment (field-independent basis, Debye-Ang):
   XX=           -122.4720   YY=           -106.7870   ZZ=           -100.7533
   XY=            -26.4025   XZ=             -6.5198   YZ=              3.0561

 Normal termination of Gaussian 16 at Thu May  6 00:23:58 2021.
