 Gaussian 16, Revision A.03,
 Gaussian 16:  EM64L-G16RevA.03 25-Dec-2016

 -------------
 #p 6-31g* mp2
 -------------

 ------------------------------------------------------
 Input file generated by CHIRIPA (05-May-2021 14:55:23)
 ------------------------------------------------------
 Symbolic Z-matrix:
 Charge =  0 Multiplicity = 1

                         Standard orientation:
 ---------------------------------------------------------------------
 Center     Atomic      Atomic             Coordinates (Angstroms)
 Number     Number       Type             X           Y           Z
 ---------------------------------------------------------------------
      1          6           0        5.538882    1.218906    0.402138
      2          6           0        4.313372    1.830564    0.685898
      3          6           0        3.111095    1.201985    0.348307
      4          6           0        3.171559   -0.043473   -0.274966
      5          6           0        4.376756   -0.678500   -0.570821
      6          6           0        5.566614   -0.031470   -0.224211
      7          1           0        6.468016    1.714367    0.667890
      8          1           0        4.288798    2.801592    1.172257
      9          1           0        2.148397    1.652907    0.556392
     10          1           0        4.369254   -1.646783   -1.056403
     11          1           0        6.516899   -0.508861   -0.445798
     12          7           0        1.905336   -0.718688   -0.637132
     13          8           0        1.985619   -1.815673   -1.185599
     14          8           0        0.856563   -0.138151   -0.365674
     15          6           0       -3.974292   -0.691745    0.580951
     16          6           0       -2.498090   -0.441002    0.890693
     17          6           0       -1.806737   -1.660475    1.501194
     18          1           0       -4.491745   -0.984045    1.504936
     19          1           0       -4.057691   -1.544383   -0.107123
     20          1           0       -2.417420    0.411783    1.576892
     21          1           0       -1.984130   -0.149079   -0.034100
     22          1           0       -1.857623   -2.514391    0.817938
     23          1           0       -2.293375   -1.950343    2.438083
     24          1           0       -0.752340   -1.459180    1.714703
     25          6           0       -4.679141    0.518150   -0.029844
     26          6           0       -6.155343    0.267406   -0.339586
     27          6           0       -6.846696    1.486879   -0.950086
     28          1           0       -4.595742    1.370787    0.658232
     29          1           0       -4.161689    0.810449   -0.953829
     30          1           0       -6.669302   -0.024516    0.585208
     31          1           0       -6.236012   -0.585378   -1.025784
     32          1           0       -6.360059    1.776748   -1.886976
     33          1           0       -6.795811    2.340796   -0.266831
     34          1           0       -7.901093    1.285584   -1.163596
 ---------------------------------------------------------------------

 SCF Done:  E(RHF) =  -669.536007048     A.U. after   15 cycles
 E2 =    -0.2091492319D+01 EUMP2 =    -0.67162749936766D+03

 The electronic state is 1-A.
 Alpha  occ. eigenvalues --  -20.60998 -20.60987 -15.86017 -11.31321 -11.27882
 Alpha  occ. eigenvalues --  -11.27878 -11.27617 -11.26885 -11.26875 -11.20870
 Alpha  occ. eigenvalues --  -11.20483 -11.20465 -11.20209 -11.19980 -11.19475
 Alpha  occ. eigenvalues --   -1.60051  -1.39609  -1.19488  -1.08897  -1.07361
 Alpha  occ. eigenvalues --   -1.04881  -1.02391  -0.95745  -0.94874  -0.86282
 Alpha  occ. eigenvalues --   -0.85910  -0.82578  -0.78517  -0.77636  -0.77105
 Alpha  occ. eigenvalues --   -0.72249  -0.71365  -0.70596  -0.65146  -0.64885
 Alpha  occ. eigenvalues --   -0.63996  -0.62228  -0.59784  -0.58296  -0.56447
 Alpha  occ. eigenvalues --   -0.55385  -0.54187  -0.53214  -0.52972  -0.51581
 Alpha  occ. eigenvalues --   -0.51311  -0.49000  -0.48975  -0.48856  -0.46825
 Alpha  occ. eigenvalues --   -0.45557  -0.44997  -0.44670  -0.44508  -0.42660
 Alpha  occ. eigenvalues --   -0.37466  -0.36481
 Alpha virt. eigenvalues --    0.04877   0.11174   0.16366   0.21296   0.23861
 Alpha virt. eigenvalues --    0.25485   0.27230   0.27673   0.28077   0.28638
 Alpha virt. eigenvalues --    0.29094   0.30878   0.32317   0.32464   0.32774

 Mulliken charges:
               1
     1  C   -0.170519
     2  C   -0.218536
     3  C   -0.170931
     4  C    0.157392
     5  C   -0.170419
     6  C   -0.218609
     7  H    0.226111
     8  H    0.223984
     9  H    0.276067
    10  H    0.275942
    11  H    0.223916
    12  N    0.492027
    13  O   -0.458413
    14  O   -0.462353
    15  C   -0.298065
    16  C   -0.302009
    17  C   -0.470943
    18  H    0.144309
    19  H    0.149018
    20  H    0.141774
    21  H    0.173774
    22  H    0.156206
    23  H    0.143103
    24  H    0.163879
    25  C   -0.297348
    26  C   -0.298751
    27  C   -0.475071
    28  H    0.146158
    29  H    0.150602
    30  H    0.150079
    31  H    0.151613
    32  H    0.154695
    33  H    0.153385
    34  H    0.157934
 Sum of Mulliken charges =  -0.00000

 Dipole moment (field-independent basis, Debye):
    X=              4.8634    Y=              2.3767    Z=              1.1203  Tot=              5.5278
 Quadrupole moment (field-independent basis, Debye-Ang):
   XX=            -67.2586   YY=            -92.9787   ZZ=            -95.2444
   XY=              5.6891   XZ=              1.6593   YZ=              1.9384

 Normal termination of Gaussian 16 at Thu May  6 14:15:02 2021.
