 Gaussian 16, Revision A.03,
 Gaussian 16:  EM64L-G16RevA.03 25-Dec-2016

 -------------
 #p 6-31g* mp2
 -------------

 ------------------------------------------------------
 Input file generated by CHIRIPA (05-May-2021 14:55:19)
 ------------------------------------------------------
 Symbolic Z-matrix:
 Charge =  0 Multiplicity = 1

                         Standard orientation:
 ---------------------------------------------------------------------
 Center     Atomic      Atomic             Coordinates (Angstroms)
 Number     Number       Type             X           Y           Z
 ---------------------------------------------------------------------
      1          6           0        5.175888    1.751775   -0.427657
      2          6           0        4.469996    1.812061    0.778412
      3          6           0        3.474846    0.873273    1.066338
      4          6           0        3.210325   -0.116781    0.121292
      5          6           0        3.896264   -0.203283   -1.089201
      6          6           0        4.887278    0.746069   -1.355978
      7          1           0        5.947338    2.485152   -0.643111
      8          1           0        4.692004    2.592001    1.501220
      9          1           0        2.913050    0.896617    1.992221
     10          1           0        3.652512   -0.992418   -1.790108
     11          1           0        5.433878    0.696804   -2.293446
     12          7           0        2.158993   -1.116226    0.414912
     13          8           0        1.944897   -1.978627   -0.434243
     14          8           0        1.568963   -1.018265    1.488646
     15          6           0       -4.032097   -0.760110   -0.169727
     16          6           0       -2.521994   -0.802788    0.066388
     17          6           0       -1.938663   -2.207439   -0.090055
     18          1           0       -4.526248   -1.444323    0.533562
     19          1           0       -4.249310   -1.138107   -1.178355
     20          1           0       -2.307579   -0.423526    1.073762
     21          1           0       -2.031398   -0.118250   -0.637416
     22          1           0       -2.123491   -2.591205   -1.098600
     23          1           0       -2.401242   -2.898215    0.622301
     24          1           0       -0.857994   -2.214931    0.083027
     25          6           0       -4.629910    0.637385   -0.016898
     26          6           0       -6.140014    0.680062   -0.253012
     27          6           0       -6.723345    2.084713   -0.096570
     28          1           0       -4.412698    1.015382    0.991730
     29          1           0       -4.135761    1.321597   -0.720186
     30          1           0       -6.630610   -0.004475    0.450792
     31          1           0       -6.354429    0.300800   -1.260386
     32          1           0       -6.260766    2.775489   -0.808925
     33          1           0       -6.538516    2.468479    0.911975
     34          1           0       -7.804014    2.092205   -0.269652
 ---------------------------------------------------------------------

 SCF Done:  E(RHF) =  -669.536905218     A.U. after   15 cycles
 E2 =    -0.2091529937D+01 EUMP2 =    -0.67162843515429D+03

 The electronic state is 1-A.
 Alpha  occ. eigenvalues --  -20.61091 -20.61083 -15.86078 -11.31363 -11.27912
 Alpha  occ. eigenvalues --  -11.27909 -11.27643 -11.26908 -11.26898 -11.21037
 Alpha  occ. eigenvalues --  -11.20666 -11.20634 -11.20415 -11.20296 -11.19206
 Alpha  occ. eigenvalues --   -1.60122  -1.39678  -1.19520  -1.08934  -1.07552
 Alpha  occ. eigenvalues --   -1.04907  -1.02534  -0.95783  -0.94957  -0.86310
 Alpha  occ. eigenvalues --   -0.85976  -0.82616  -0.78655  -0.77679  -0.77318
 Alpha  occ. eigenvalues --   -0.72281  -0.71429  -0.70628  -0.65174  -0.64911
 Alpha  occ. eigenvalues --   -0.64201  -0.62254  -0.59951  -0.58402  -0.56545
 Alpha  occ. eigenvalues --   -0.55410  -0.54280  -0.53243  -0.52998  -0.51625
 Alpha  occ. eigenvalues --   -0.51409  -0.49059  -0.48987  -0.48945  -0.46909
 Alpha  occ. eigenvalues --   -0.45734  -0.45103  -0.44854  -0.44770  -0.42726
 Alpha  occ. eigenvalues --   -0.37495  -0.36505
 Alpha virt. eigenvalues --    0.04825   0.11152   0.16336   0.21291   0.23653
 Alpha virt. eigenvalues --    0.25408   0.27215   0.27452   0.28155   0.28318
 Alpha virt. eigenvalues --    0.29132   0.30854   0.32310   0.32405   0.32537

 Mulliken charges:
               1
     1  C   -0.170362
     2  C   -0.218645
     3  C   -0.170579
     4  C    0.160299
     5  C   -0.170648
     6  C   -0.218641
     7  H    0.226263
     8  H    0.224103
     9  H    0.276085
    10  H    0.276112
    11  H    0.224081
    12  N    0.487948
    13  O   -0.458798
    14  O   -0.459003
    15  C   -0.296995
    16  C   -0.298070
    17  C   -0.487379
    18  H    0.148247
    19  H    0.146928
    20  H    0.153285
    21  H    0.145382
    22  H    0.146792
    23  H    0.148614
    24  H    0.191989
    25  C   -0.297141
    26  C   -0.298845
    27  C   -0.475105
    28  H    0.148289
    29  H    0.146994
    30  H    0.151464
    31  H    0.150891
    32  H    0.153688
    33  H    0.154279
    34  H    0.158480
 Sum of Mulliken charges =  -0.00000

 Dipole moment (field-independent basis, Debye):
    X=              4.1534    Y=              3.4881    Z=             -0.9711  Tot=              5.5101
 Quadrupole moment (field-independent basis, Debye-Ang):
   XX=            -72.8728   YY=            -96.1970   ZZ=            -90.3269
   XY=             11.3592   XZ=             -4.1653   YZ=              2.5041

 Normal termination of Gaussian 16 at Wed May  5 17:21:31 2021.
