 Gaussian 16, Revision A.03,
 Gaussian 16:  EM64L-G16RevA.03 25-Dec-2016

 -------------
 #p 6-31g* mp2
 -------------

 ------------------------------------------------------
 Input file generated by CHIRIPA (05-May-2021 14:51:13)
 ------------------------------------------------------
 Symbolic Z-matrix:
 Charge =  0 Multiplicity = 1

                         Standard orientation:
 ---------------------------------------------------------------------
 Center     Atomic      Atomic             Coordinates (Angstroms)
 Number     Number       Type             X           Y           Z
 ---------------------------------------------------------------------
      1          6           0       -2.406585   -0.951759    0.789012
      2          6           0       -1.296431   -1.954527    0.472783
      3          6           0       -0.733255   -2.627328    1.724967
      4          1           0       -2.016597   -0.186638    1.474172
      5          1           0       -3.215568   -1.467724    1.324476
      6          1           0       -0.490398   -1.437121   -0.063144
      7          1           0       -1.689053   -2.717242   -0.211855
      8          1           0       -1.521078   -3.168433    2.258952
      9          1           0       -0.315613   -1.881038    2.408508
     10          1           0        0.058970   -3.340195    1.475846
     11          6           0       -2.979675   -0.270897   -0.452649
     12          6           0       -4.089829    0.731870   -0.136420
     13          6           0       -4.653005    1.404671   -1.388604
     14          1           0       -2.170692    0.245067   -0.988113
     15          1           0       -3.369663   -1.036019   -1.137809
     16          1           0       -3.697207    1.494586    0.548218
     17          1           0       -4.895862    0.214464    0.399507
     18          1           0       -5.070647    0.658382   -2.072145
     19          1           0       -3.865182    1.945777   -1.922589
     20          1           0       -5.445230    2.117538   -1.139483
     21          6           0        2.164707    1.152864   -0.063579
     22          6           0        2.702466    2.395727    0.646414
     23          6           0        1.633506    3.470117    0.848418
     24          1           0        1.748640    1.445799   -1.037244
     25          1           0        1.331600    0.737350    0.520094
     26          1           0        3.535211    2.807975    0.062288
     27          1           0        3.117474    2.099771    1.618420
     28          1           0        0.805639    3.081513    1.450268
     29          1           0        1.225750    3.793741   -0.114704
     30          1           0        2.039538    4.349675    1.357706
     31          6           0        3.221552    0.069793   -0.272784
     32          6           0        2.683794   -1.173070   -0.982777
     33          6           0        3.752754   -2.247460   -1.184780
     34          1           0        4.054661    0.485307   -0.856457
     35          1           0        3.637620   -0.223142    0.700880
     36          1           0        2.268786   -0.877114   -1.954782
     37          1           0        1.851049   -1.585318   -0.398652
     38          1           0        4.160510   -2.571084   -0.221659
     39          1           0        4.580621   -1.858856   -1.786631
     40          1           0        3.346722   -3.127018   -1.694070
 ---------------------------------------------------------------------

 SCF Done:  E(RHF) =  -470.733235852     A.U. after   11 cycles
 E2 =    -0.1583485927D+01 EUMP2 =    -0.47231672177927D+03

 The electronic state is 1-A.
 Alpha  occ. eigenvalues --  -11.21658 -11.21599 -11.21583 -11.21568 -11.21463
 Alpha  occ. eigenvalues --  -11.21394 -11.21393 -11.21331 -11.21130 -11.21116
 Alpha  occ. eigenvalues --  -11.21082 -11.21055  -1.08487  -1.08412  -1.03580
 Alpha  occ. eigenvalues --   -1.03518  -0.96019  -0.95982  -0.87035  -0.86997
 Alpha  occ. eigenvalues --   -0.79687  -0.79548  -0.78359  -0.78167  -0.65233
 Alpha  occ. eigenvalues --   -0.64943  -0.61066  -0.60845  -0.59435  -0.59299
 Alpha  occ. eigenvalues --   -0.57656  -0.57563  -0.55305  -0.55272  -0.52714
 Alpha  occ. eigenvalues --   -0.52673  -0.52444  -0.52406  -0.49965  -0.49926
 Alpha  occ. eigenvalues --   -0.48068  -0.47844  -0.46853  -0.46538  -0.46034
 Alpha  occ. eigenvalues --   -0.45788  -0.45742  -0.45287  -0.43823  -0.43777
 Alpha virt. eigenvalues --    0.20193   0.23132   0.23701   0.24419   0.25861
 Alpha virt. eigenvalues --    0.26642   0.27165   0.27512   0.28088   0.29619
 Alpha virt. eigenvalues --    0.30556   0.31563   0.31603   0.31881   0.31960

 Mulliken charges:
               1
     1  C   -0.297532
     2  C   -0.308333
     3  C   -0.476535
     4  H    0.148914
     5  H    0.149419
     6  H    0.160128
     7  H    0.152044
     8  H    0.155760
     9  H    0.154364
    10  H    0.160462
    11  C   -0.298666
    12  C   -0.299638
    13  C   -0.475698
    14  H    0.150489
    15  H    0.149543
    16  H    0.152041
    17  H    0.151786
    18  H    0.155072
    19  H    0.155261
    20  H    0.160219
    21  C   -0.300894
    22  C   -0.299674
    23  C   -0.475657
    24  H    0.149412
    25  H    0.150942
    26  H    0.152377
    27  H    0.152199
    28  H    0.154655
    29  H    0.155167
    30  H    0.160632
    31  C   -0.297818
    32  C   -0.307803
    33  C   -0.475298
    34  H    0.149704
    35  H    0.149747
    36  H    0.151526
    37  H    0.161001
    38  H    0.155170
    39  H    0.155164
    40  H    0.160347
 Sum of Mulliken charges =  -0.00000

 Dipole moment (field-independent basis, Debye):
    X=              0.0182    Y=              0.0005    Z=             -0.0108  Tot=              0.0212
 Quadrupole moment (field-independent basis, Debye-Ang):
   XX=            -84.9437   YY=            -85.1151   ZZ=            -84.6815
   XY=              1.5103   XZ=             -0.3990   YZ=             -0.0278

 Normal termination of Gaussian 16 at Wed May  5 21:36:39 2021.
