 Gaussian 16, Revision A.03,
 Gaussian 16:  EM64L-G16RevA.03 25-Dec-2016

 -------------
 #p 6-31g* mp2
 -------------

 ------------------------------------------------------
 Input file generated by CHIRIPA (05-May-2021 14:55:22)
 ------------------------------------------------------
 Symbolic Z-matrix:
 Charge =  0 Multiplicity = 1

                         Standard orientation:
 ---------------------------------------------------------------------
 Center     Atomic      Atomic             Coordinates (Angstroms)
 Number     Number       Type             X           Y           Z
 ---------------------------------------------------------------------
      1          6           0        2.670513   -2.449643    0.303405
      2          6           0        3.373344   -1.932551   -0.789831
      3          6           0        3.611868   -0.559037   -0.895258
      4          6           0        3.131116    0.272256    0.115246
      5          6           0        2.427636   -0.212642    1.216736
      6          6           0        2.200731   -1.589555    1.301440
      7          1           0        2.489735   -3.517941    0.377255
      8          1           0        3.739357   -2.598136   -1.566411
      9          1           0        4.153124   -0.131992   -1.730778
     10          1           0        2.075149    0.475828    1.975142
     11          1           0        1.654604   -1.988333    2.151597
     12          7           0        3.377480    1.728132    0.014604
     13          8           0        2.943490    2.439410    0.918138
     14          8           0        3.999907    2.130402   -0.965906
     15          6           0       -3.372198   -0.531431   -0.219775
     16          6           0       -2.017824    0.155180   -0.399269
     17          6           0       -0.860040   -0.838415   -0.499773
     18          1           0       -3.342970   -1.155232    0.684085
     19          1           0       -3.544818   -1.212806   -1.064361
     20          1           0       -1.848429    0.836092    0.444699
     21          1           0       -2.050342    0.777570   -1.302701
     22          1           0       -1.002093   -1.510530   -1.352231
     23          1           0       -0.799034   -1.451675    0.405098
     24          1           0        0.098648   -0.326156   -0.627706
     25          6           0       -4.539511    0.448719   -0.117718
     26          6           0       -5.893887   -0.237893    0.061776
     27          6           0       -7.051669    0.755703    0.162281
     28          1           0       -4.366892    1.130093    0.726868
     29          1           0       -4.568739    1.072519   -1.021579
     30          1           0       -5.861368   -0.860282    0.965209
     31          1           0       -6.063280   -0.918805   -0.782192
     32          1           0       -7.112676    1.368962   -0.742590
     33          1           0       -6.909616    1.427817    1.014738
     34          1           0       -8.010359    0.243443    0.290214
 ---------------------------------------------------------------------

 SCF Done:  E(RHF) =  -669.534345225     A.U. after   15 cycles
 E2 =    -0.2092956375D+01 EUMP2 =    -0.67162730160019D+03

 The electronic state is 1-A.
 Alpha  occ. eigenvalues --  -20.60790 -20.60785 -15.85844 -11.31211 -11.27777
 Alpha  occ. eigenvalues --  -11.27735 -11.27495 -11.26793 -11.26751 -11.21679
 Alpha  occ. eigenvalues --  -11.21646 -11.21503 -11.21421 -11.21137 -11.21115
 Alpha  occ. eigenvalues --   -1.59867  -1.39419  -1.19386  -1.08773  -1.08511
 Alpha  occ. eigenvalues --   -1.04784  -1.03603  -0.96062  -0.95607  -0.87083
 Alpha  occ. eigenvalues --   -0.86177  -0.82438  -0.79670  -0.78324  -0.77490
 Alpha  occ. eigenvalues --   -0.72060  -0.71196  -0.70476  -0.65149  -0.65027
 Alpha  occ. eigenvalues --   -0.64783  -0.62129  -0.61015  -0.59471  -0.57686
 Alpha  occ. eigenvalues --   -0.55398  -0.55268  -0.53618  -0.52874  -0.52501
 Alpha  occ. eigenvalues --   -0.52160  -0.50005  -0.48820  -0.48815  -0.47988
 Alpha  occ. eigenvalues --   -0.46710  -0.45869  -0.45795  -0.44823  -0.43831
 Alpha  occ. eigenvalues --   -0.37344  -0.36302
 Alpha virt. eigenvalues --    0.05042   0.11207   0.16507   0.21205   0.22800
 Alpha virt. eigenvalues --    0.24196   0.26404   0.27016   0.27446   0.28143
 Alpha virt. eigenvalues --    0.28332   0.30419   0.31355   0.31821   0.31870

 Mulliken charges:
               1
     1  C   -0.170066
     2  C   -0.217393
     3  C   -0.172422
     4  C    0.158869
     5  C   -0.173353
     6  C   -0.211594
     7  H    0.225744
     8  H    0.223629
     9  H    0.275725
    10  H    0.275294
    11  H    0.222894
    12  N    0.487870
    13  O   -0.460356
    14  O   -0.460375
    15  C   -0.297939
    16  C   -0.300578
    17  C   -0.475274
    18  H    0.146566
    19  H    0.148736
    20  H    0.152625
    21  H    0.154393
    22  H    0.151981
    23  H    0.146078
    24  H    0.167356
    25  C   -0.298386
    26  C   -0.299533
    27  C   -0.475767
    28  H    0.150353
    29  H    0.151014
    30  H    0.150814
    31  H    0.151488
    32  H    0.155899
    33  H    0.155680
    34  H    0.160026
 Sum of Mulliken charges =  -0.00000

 Dipole moment (field-independent basis, Debye):
    X=             -0.8084    Y=             -5.1195    Z=              0.3455  Tot=              5.1945
 Quadrupole moment (field-independent basis, Debye-Ang):
   XX=           -100.6184   YY=            -98.4548   ZZ=            -90.1266
   XY=            -16.5641   XZ=             -1.1827   YZ=              0.1699

 Normal termination of Gaussian 16 at Thu May  6 03:01:18 2021.
