 Gaussian 16, Revision A.03,
 Gaussian 16:  EM64L-G16RevA.03 25-Dec-2016

 -------------
 #p 6-31g* mp2
 -------------

 ------------------------------------------------------
 Input file generated by CHIRIPA (05-May-2021 14:55:24)
 ------------------------------------------------------
 Symbolic Z-matrix:
 Charge =  0 Multiplicity = 1

                         Standard orientation:
 ---------------------------------------------------------------------
 Center     Atomic      Atomic             Coordinates (Angstroms)
 Number     Number       Type             X           Y           Z
 ---------------------------------------------------------------------
      1          6           0       -1.320262   -2.306578   -0.704742
      2          6           0       -2.647440   -2.574209   -0.353327
      3          6           0       -3.508468   -1.535200    0.012238
      4          6           0       -3.006795   -0.234583    0.015486
      5          6           0       -1.689589    0.064107   -0.329536
      6          6           0       -0.846407   -0.990594   -0.691748
      7          1           0       -0.658327   -3.119801   -0.987419
      8          1           0       -3.018176   -3.595246   -0.362521
      9          1           0       -4.540420   -1.714116    0.288793
     10          1           0       -1.348829    1.092190   -0.310919
     11          1           0        0.183826   -0.779785   -0.964190
     12          7           0       -3.908880    0.873676    0.400719
     13          8           0       -3.442584    2.010856    0.395601
     14          8           0       -5.065150    0.584165    0.700487
     15          6           0        3.011417    0.925163    0.170499
     16          6           0        2.967679    2.249714   -0.592151
     17          6           0        1.667147    3.020624   -0.363881
     18          1           0        2.157507    0.305114   -0.134988
     19          1           0        2.885366    1.123752    1.243844
     20          1           0        3.095160    2.048811   -1.663600
     21          1           0        3.821900    2.866605   -0.284955
     22          1           0        1.536682    3.249964    0.698654
     23          1           0        0.805813    2.427523   -0.687823
     24          1           0        1.657161    3.964202   -0.918335
     25          6           0        4.305373    0.142964   -0.047608
     26          6           0        4.349110   -1.181586    0.715043
     27          6           0        5.649642   -1.952495    0.486772
     28          1           0        4.431424   -0.055624   -1.120952
     29          1           0        5.159283    0.763014    0.257879
     30          1           0        3.494889   -1.798476    0.407847
     31          1           0        4.221629   -0.980682    1.786492
     32          1           0        6.510977   -1.359396    0.810714
     33          1           0        5.780107   -2.181836   -0.575764
     34          1           0        5.659628   -2.896073    1.041227
 ---------------------------------------------------------------------

 SCF Done:  E(RHF) =  -669.535138034     A.U. after   15 cycles
 E2 =    -0.2092057020D+01 EUMP2 =    -0.67162719505421D+03

 The electronic state is 1-A.
 Alpha  occ. eigenvalues --  -20.60724 -20.60717 -15.85775 -11.31145 -11.27723
 Alpha  occ. eigenvalues --  -11.27706 -11.27471 -11.26739 -11.26717 -11.22283
 Alpha  occ. eigenvalues --  -11.22254 -11.22189 -11.22058 -11.21678 -11.21642
 Alpha  occ. eigenvalues --   -1.59798  -1.39351  -1.19322  -1.09142  -1.08718
 Alpha  occ. eigenvalues --   -1.04730  -1.04177  -0.96625  -0.95551  -0.87636
 Alpha  occ. eigenvalues --   -0.86128  -0.82389  -0.80237  -0.78973  -0.77424
 Alpha  occ. eigenvalues --   -0.71995  -0.71121  -0.70439  -0.65825  -0.64976
 Alpha  occ. eigenvalues --   -0.64732  -0.62146  -0.61518  -0.59978  -0.58235
 Alpha  occ. eigenvalues --   -0.55941  -0.55237  -0.53282  -0.53167  -0.53051
 Alpha  occ. eigenvalues --   -0.52711  -0.50555  -0.48761  -0.48748  -0.48542
 Alpha  occ. eigenvalues --   -0.47281  -0.46498  -0.46409  -0.44756  -0.44443
 Alpha  occ. eigenvalues --   -0.37305  -0.36325
 Alpha virt. eigenvalues --    0.05104   0.11298   0.16551   0.18667   0.22606
 Alpha virt. eigenvalues --    0.23499   0.24955   0.25534   0.26558   0.28527
 Alpha virt. eigenvalues --    0.29252   0.30782   0.31225   0.31461   0.31566

 Mulliken charges:
               1
     1  C   -0.171755
     2  C   -0.218872
     3  C   -0.170304
     4  C    0.159726
     5  C   -0.180082
     6  C   -0.224611
     7  H    0.225652
     8  H    0.223309
     9  H    0.275518
    10  H    0.283471
    11  H    0.229996
    12  N    0.487722
    13  O   -0.459899
    14  O   -0.460744
    15  C   -0.302825
    16  C   -0.300981
    17  C   -0.477335
    18  H    0.140941
    19  H    0.154757
    20  H    0.151777
    21  H    0.156213
    22  H    0.161234
    23  H    0.147017
    24  H    0.166653
    25  C   -0.298621
    26  C   -0.298674
    27  C   -0.476113
    28  H    0.149005
    29  H    0.153475
    30  H    0.145482
    31  H    0.154902
    32  H    0.157600
    33  H    0.155020
    34  H    0.161345
 Sum of Mulliken charges =  -0.00000

 Dipole moment (field-independent basis, Debye):
    X=              3.3646    Y=             -3.7772    Z=             -1.2846  Tot=              5.2190
 Quadrupole moment (field-independent basis, Debye-Ang):
   XX=           -111.2458   YY=            -90.8047   ZZ=            -94.9024
   XY=             15.0160   XZ=              4.1439   YZ=              0.1341

 Normal termination of Gaussian 16 at Wed May  5 17:36:08 2021.
