 Gaussian 16, Revision A.03,
 Gaussian 16:  EM64L-G16RevA.03 25-Dec-2016

 -------------
 #p 6-31g* mp2
 -------------

 ------------------------------------------------------
 Input file generated by CHIRIPA (05-May-2021 14:51:07)
 ------------------------------------------------------
 Symbolic Z-matrix:
 Charge =  0 Multiplicity = 1

                         Standard orientation:
 ---------------------------------------------------------------------
 Center     Atomic      Atomic             Coordinates (Angstroms)
 Number     Number       Type             X           Y           Z
 ---------------------------------------------------------------------
      1          6           0       -2.962373    0.871717   -0.464842
      2          6           0       -1.817360    1.880496   -0.368424
      3          6           0       -2.299287    3.329979   -0.435794
      4          1           0       -3.508187    1.034862   -1.404212
      5          1           0       -3.676868    1.059717    0.348514
      6          1           0       -1.104532    1.689767   -1.180898
      7          1           0       -1.274091    1.714806    0.570736
      8          1           0       -2.993792    3.543498    0.383152
      9          1           0       -2.823269    3.518317   -1.378435
     10          1           0       -1.464539    4.034289   -0.365057
     11          6           0       -2.496465   -0.581664   -0.398967
     12          6           0       -3.641478   -1.590442   -0.495385
     13          6           0       -3.159551   -3.039925   -0.428015
     14          1           0       -1.781970   -0.769664   -1.212323
     15          1           0       -1.950651   -0.744808    0.540403
     16          1           0       -4.184747   -1.424752   -1.434545
     17          1           0       -4.354306   -1.399714    0.317089
     18          1           0       -2.635568   -3.228263    0.514626
     19          1           0       -2.465045   -3.253444   -1.246961
     20          1           0       -3.994299   -3.744236   -0.498752
     21          6           0        2.868821   -0.059434   -0.314201
     22          6           0        4.314810   -0.372073   -0.700666
     23          6           0        4.578138   -0.196272   -2.196509
     24          1           0        2.194079   -0.711279   -0.885836
     25          1           0        2.632276    0.971938   -0.610363
     26          1           0        4.548989   -1.402093   -0.402614
     27          1           0        4.986198    0.280459   -0.127904
     28          1           0        4.371810    0.833538   -2.505573
     29          1           0        3.932119   -0.858575   -2.781843
     30          1           0        5.617828   -0.424930   -2.450716
     31          6           0        2.590017   -0.230620    1.178009
     32          6           0        1.144028    0.082020    1.564476
     33          6           0        0.880700   -0.093781    3.060319
     34          1           0        2.826562   -1.261992    1.474173
     35          1           0        3.264759    0.421226    1.749644
     36          1           0        0.472640   -0.570513    0.991714
     37          1           0        0.909848    1.112039    1.266423
     38          1           0        1.526719    0.568521    3.645653
     39          1           0        1.087028   -1.123591    3.369382
     40          1           0       -0.158990    0.134876    3.314526
 ---------------------------------------------------------------------

 SCF Done:  E(RHF) =  -470.732435235     A.U. after   11 cycles
 E2 =    -0.1584125524D+01 EUMP2 =    -0.47231656075907D+03

 The electronic state is 1-A.
 Alpha  occ. eigenvalues --  -11.21606 -11.21590 -11.21509 -11.21507 -11.21388
 Alpha  occ. eigenvalues --  -11.21379 -11.21328 -11.21318 -11.21099 -11.21094
 Alpha  occ. eigenvalues --  -11.21069 -11.21044  -1.08455  -1.08373  -1.03547
 Alpha  occ. eigenvalues --   -1.03491  -0.95983  -0.95968  -0.86997  -0.86982
 Alpha  occ. eigenvalues --   -0.79710  -0.79512  -0.78444  -0.77980  -0.65065
 Alpha  occ. eigenvalues --   -0.65039  -0.61034  -0.60824  -0.59425  -0.59265
 Alpha  occ. eigenvalues --   -0.57611  -0.57567  -0.55313  -0.55214  -0.52697
 Alpha  occ. eigenvalues --   -0.52643  -0.52409  -0.52395  -0.49990  -0.49854
 Alpha  occ. eigenvalues --   -0.48157  -0.47834  -0.46798  -0.46407  -0.46167
 Alpha  occ. eigenvalues --   -0.45710  -0.45606  -0.45162  -0.43784  -0.43742
 Alpha virt. eigenvalues --    0.21367   0.23124   0.23796   0.24045   0.25769
 Alpha virt. eigenvalues --    0.26031   0.26419   0.27998   0.28408   0.29662
 Alpha virt. eigenvalues --    0.30221   0.31453   0.31679   0.31832   0.32108

 Mulliken charges:
               1
     1  C   -0.297797
     2  C   -0.305726
     3  C   -0.475427
     4  H    0.149390
     5  H    0.148946
     6  H    0.151780
     7  H    0.160297
     8  H    0.154817
     9  H    0.154986
    10  H    0.159491
    11  C   -0.302988
    12  C   -0.299122
    13  C   -0.475839
    14  H    0.149086
    15  H    0.154769
    16  H    0.152014
    17  H    0.151878
    18  H    0.154877
    19  H    0.154881
    20  H    0.160462
    21  C   -0.298369
    22  C   -0.299609
    23  C   -0.475677
    24  H    0.149640
    25  H    0.149578
    26  H    0.151943
    27  H    0.151908
    28  H    0.155091
    29  H    0.155017
    30  H    0.160243
    31  C   -0.297407
    32  C   -0.308085
    33  C   -0.477299
    34  H    0.149148
    35  H    0.149176
    36  H    0.158462
    37  H    0.155428
    38  H    0.155492
    39  H    0.155363
    40  H    0.159184
 Sum of Mulliken charges =  -0.00000

 Dipole moment (field-independent basis, Debye):
    X=              0.0013    Y=             -0.0041    Z=              0.0007  Tot=              0.0043
 Quadrupole moment (field-independent basis, Debye-Ang):
   XX=            -85.0018   YY=            -85.1108   ZZ=            -84.9133
   XY=              0.4818   XZ=              0.2657   YZ=              0.3238

 Normal termination of Gaussian 16 at Thu May  6 02:03:10 2021.
