 Gaussian 16, Revision A.03,
 Gaussian 16:  EM64L-G16RevA.03 25-Dec-2016

 -------------
 #p 6-31g* mp2
 -------------

 ------------------------------------------------------
 Input file generated by CHIRIPA (05-May-2021 14:55:21)
 ------------------------------------------------------
 Symbolic Z-matrix:
 Charge =  0 Multiplicity = 1

                         Standard orientation:
 ---------------------------------------------------------------------
 Center     Atomic      Atomic             Coordinates (Angstroms)
 Number     Number       Type             X           Y           Z
 ---------------------------------------------------------------------
      1          6           0        0.311333   -1.813869    0.909908
      2          6           0        0.613593   -1.758022   -0.454658
      3          6           0        1.694675   -0.998595   -0.911912
      4          6           0        2.455784   -0.304375    0.027270
      5          6           0        2.179930   -0.340080    1.393257
      6          6           0        1.094086   -1.105968    1.827892
      7          1           0       -0.530327   -2.406319    1.256328
      8          1           0        0.007433   -2.306762   -1.169849
      9          1           0        1.950994   -0.937769   -1.962634
     10          1           0        2.802471    0.217730    2.082248
     11          1           0        0.861687   -1.147495    2.888227
     12          7           0        3.602797    0.503016   -0.444831
     13          8           0        4.257893    1.105509    0.402806
     14          8           0        3.825012    0.518068   -1.653562
     15          6           0       -3.122563   -0.108314    0.162124
     16          6           0       -3.180223   -1.238682   -0.865945
     17          6           0       -3.624237   -2.569196   -0.257357
     18          1           0       -2.434458   -0.391194    0.970477
     19          1           0       -4.113328    0.010354    0.622231
     20          1           0       -2.189994   -1.354261   -1.324968
     21          1           0       -3.868125   -0.952997   -1.672042
     22          1           0       -4.621718   -2.476970    0.184373
     23          1           0       -2.934052   -2.880514    0.533419
     24          1           0       -3.658497   -3.363274   -1.009769
     25          6           0       -2.680296    1.228167   -0.431125
     26          6           0       -2.622636    2.358535    0.596946
     27          6           0       -2.178622    3.689049   -0.011643
     28          1           0       -1.689531    1.109500   -0.891231
     29          1           0       -3.368402    1.511048   -1.239477
     30          1           0       -1.934734    2.072851    1.403042
     31          1           0       -3.612866    2.474115    1.055969
     32          1           0       -2.868807    4.000368   -0.802419
     33          1           0       -1.181141    3.596823   -0.453373
     34          1           0       -2.144363    4.483128    0.740769
 ---------------------------------------------------------------------

 SCF Done:  E(RHF) =  -669.534687292     A.U. after   15 cycles
 E2 =    -0.2094188326D+01 EUMP2 =    -0.67162887561814D+03

 The electronic state is 1-A.
 Alpha  occ. eigenvalues --  -20.60836 -20.60831 -15.85891 -11.31286 -11.27862
 Alpha  occ. eigenvalues --  -11.27857 -11.27597 -11.26878 -11.26861 -11.22462
 Alpha  occ. eigenvalues --  -11.22179 -11.22029 -11.21911 -11.21769 -11.21232
 Alpha  occ. eigenvalues --   -1.59911  -1.39464  -1.19470  -1.09051  -1.08822
 Alpha  occ. eigenvalues --   -1.04877  -1.04136  -0.96578  -0.95685  -0.87595
 Alpha  occ. eigenvalues --   -0.86273  -0.82521  -0.80223  -0.78778  -0.77556
 Alpha  occ. eigenvalues --   -0.72109  -0.71236  -0.70605  -0.65778  -0.65109
 Alpha  occ. eigenvalues --   -0.64807  -0.62272  -0.61463  -0.59987  -0.58174
 Alpha  occ. eigenvalues --   -0.55913  -0.55362  -0.53285  -0.53186  -0.53022
 Alpha  occ. eigenvalues --   -0.52942  -0.50527  -0.48878  -0.48861  -0.48516
 Alpha  occ. eigenvalues --   -0.47240  -0.46323  -0.46207  -0.44863  -0.44351
 Alpha  occ. eigenvalues --   -0.37399  -0.36453
 Alpha virt. eigenvalues --    0.04947   0.11047   0.16317   0.19115   0.22944
 Alpha virt. eigenvalues --    0.24021   0.25055   0.25902   0.27020   0.28111
 Alpha virt. eigenvalues --    0.28975   0.29690   0.31024   0.31687   0.32061

 Mulliken charges:
               1
     1  C   -0.171609
     2  C   -0.220141
     3  C   -0.172542
     4  C    0.158376
     5  C   -0.170273
     6  C   -0.220761
     7  H    0.231333
     8  H    0.226305
     9  H    0.276222
    10  H    0.276068
    11  H    0.224424
    12  N    0.488012
    13  O   -0.460085
    14  O   -0.460104
    15  C   -0.298023
    16  C   -0.304826
    17  C   -0.478081
    18  H    0.145790
    19  H    0.150903
    20  H    0.147986
    21  H    0.157093
    22  H    0.161619
    23  H    0.144445
    24  H    0.162295
    25  C   -0.299444
    26  C   -0.299926
    27  C   -0.476441
    28  H    0.152902
    29  H    0.150494
    30  H    0.151311
    31  H    0.151358
    32  H    0.155543
    33  H    0.158397
    34  H    0.161381
 Sum of Mulliken charges =  -0.00000

 Dipole moment (field-independent basis, Debye):
    X=             -4.0535    Y=             -2.7550    Z=              1.6321  Tot=              5.1657
 Quadrupole moment (field-independent basis, Debye-Ang):
   XX=           -114.0314   YY=            -94.3190   ZZ=            -90.3142
   XY=             -6.1086   XZ=              5.5168   YZ=              1.1247

 Normal termination of Gaussian 16 at Thu May  6 15:50:50 2021.
