 Gaussian 16, Revision A.03,
 Gaussian 16:  EM64L-G16RevA.03 25-Dec-2016

 -------------
 #p 6-31g* mp2
 -------------

 ------------------------------------------------------
 Input file generated by CHIRIPA (05-May-2021 14:53:12)
 ------------------------------------------------------
 Symbolic Z-matrix:
 Charge =  0 Multiplicity = 1

                         Standard orientation:
 ---------------------------------------------------------------------
 Center     Atomic      Atomic             Coordinates (Angstroms)
 Number     Number       Type             X           Y           Z
 ---------------------------------------------------------------------
      1          6           0       -3.117249    0.695865   -0.346450
      2          6           0       -3.437776   -0.638938    0.327011
      3          6           0       -4.787455   -1.211184   -0.107381
      4          1           0       -3.913933    1.416310   -0.115802
      5          1           0       -3.125022    0.559693   -1.436768
      6          1           0       -3.428039   -0.500600    1.415764
      7          1           0       -2.640140   -1.356232    0.094890
      8          1           0       -4.805092   -1.377597   -1.189322
      9          1           0       -5.597467   -0.517103    0.139057
     10          1           0       -4.996478   -2.165463    0.386097
     11          6           0       -1.771178    1.280603    0.077698
     12          6           0       -1.450650    2.615406   -0.595763
     13          6           0       -0.100972    3.187652   -0.161371
     14          1           0       -1.763405    1.416775    1.168015
     15          1           0       -0.974494    0.560158   -0.152950
     16          1           0       -2.248287    3.332700   -0.363643
     17          1           0       -1.460388    2.477068   -1.684517
     18          1           0        0.709040    2.493571   -0.407809
     19          1           0       -0.083335    3.354065    0.920570
     20          1           0        0.108051    4.141931   -0.654850
     21          6           0        3.514161    1.174147    0.163352
     22          6           0        2.527975    1.050240    1.147530
     23          6           0        1.633519   -0.024001    1.125100
     24          6           0        1.754413   -0.960210    0.099338
     25          6           0        2.726244   -0.864336   -0.895469
     26          6           0        3.609979    0.218149   -0.853214
     27          1           0        4.204832    2.011846    0.188476
     28          1           0        2.451210    1.791175    1.938205
     29          1           0        0.860579   -0.144262    1.874447
     30          1           0        2.777986   -1.618801   -1.671051
     31          1           0        4.374871    0.311827   -1.618858
     32          7           0        0.813168   -2.101825    0.065100
     33          8           0        0.940598   -2.913234   -0.849239
     34          8           0       -0.034189   -2.163597    0.953248
 ---------------------------------------------------------------------

 SCF Done:  E(RHF) =  -669.533848096     A.U. after   15 cycles
 E2 =    -0.2096338538D+01 EUMP2 =    -0.67163018663393D+03

 The electronic state is 1-A.
 Alpha  occ. eigenvalues --  -20.61025 -20.60988 -15.86011 -11.31308 -11.27872
 Alpha  occ. eigenvalues --  -11.27809 -11.27580 -11.26881 -11.26805 -11.21516
 Alpha  occ. eigenvalues --  -11.21126 -11.21120 -11.20833 -11.20548 -11.20244
 Alpha  occ. eigenvalues --   -1.60061  -1.39616  -1.19493  -1.08896  -1.08016
 Alpha  occ. eigenvalues --   -1.04874  -1.03069  -0.95735  -0.95594  -0.86657
 Alpha  occ. eigenvalues --   -0.86233  -0.82565  -0.79205  -0.77869  -0.77509
 Alpha  occ. eigenvalues --   -0.72236  -0.71383  -0.70572  -0.65136  -0.64862
 Alpha  occ. eigenvalues --   -0.64649  -0.62206  -0.60491  -0.59016  -0.57190
 Alpha  occ. eigenvalues --   -0.55365  -0.54951  -0.53323  -0.52961  -0.52276
 Alpha  occ. eigenvalues --   -0.51954  -0.49573  -0.49012  -0.48999  -0.47448
 Alpha  occ. eigenvalues --   -0.46200  -0.45718  -0.45262  -0.44454  -0.43338
 Alpha  occ. eigenvalues --   -0.37431  -0.36330
 Alpha virt. eigenvalues --    0.04853   0.11103   0.16283   0.21008   0.23254
 Alpha virt. eigenvalues --    0.24721   0.26084   0.27209   0.27450   0.28512
 Alpha virt. eigenvalues --    0.28957   0.30674   0.31795   0.32179   0.32541

 Mulliken charges:
               1
     1  C   -0.298360
     2  C   -0.306463
     3  C   -0.475600
     4  H    0.146184
     5  H    0.148353
     6  H    0.148593
     7  H    0.175443
     8  H    0.153546
     9  H    0.149879
    10  H    0.162224
    11  C   -0.299192
    12  C   -0.297787
    13  C   -0.482196
    14  H    0.143673
    15  H    0.150223
    16  H    0.151329
    17  H    0.152136
    18  H    0.164252
    19  H    0.145763
    20  H    0.157096
    21  C   -0.171111
    22  C   -0.217231
    23  C   -0.168955
    24  C    0.156861
    25  C   -0.171952
    26  C   -0.218478
    27  H    0.226743
    28  H    0.225292
    29  H    0.277521
    30  H    0.275815
    31  H    0.224083
    32  N    0.488475
    33  O   -0.458883
    34  O   -0.457279
 Sum of Mulliken charges =  -0.00000

 Dipole moment (field-independent basis, Debye):
    X=              3.5037    Y=              3.7775    Z=              0.1426  Tot=              5.1542
 Quadrupole moment (field-independent basis, Debye-Ang):
   XX=            -83.7587   YY=           -103.0375   ZZ=            -91.0527
   XY=              2.8389   XZ=             -2.1238   YZ=              2.1718

 Normal termination of Gaussian 16 at Thu May  6 04:06:53 2021.
