 Gaussian 16, Revision A.03,
 Gaussian 16:  EM64L-G16RevA.03 25-Dec-2016

 -------------
 #p 6-31g* mp2
 -------------

 ------------------------------------------------------
 Input file generated by CHIRIPA (05-May-2021 14:51:10)
 ------------------------------------------------------
 Symbolic Z-matrix:
 Charge =  0 Multiplicity = 1

                         Standard orientation:
 ---------------------------------------------------------------------
 Center     Atomic      Atomic             Coordinates (Angstroms)
 Number     Number       Type             X           Y           Z
 ---------------------------------------------------------------------
      1          6           0        3.500440    0.980900   -0.285659
      2          6           0        2.536915    2.051016    0.228593
      3          6           0        3.100956    3.466173    0.098275
      4          1           0        4.446874    1.052324    0.267611
      5          1           0        3.737669    1.186536   -1.338669
      6          1           0        2.300490    1.842635    1.279924
      7          1           0        1.592597    1.976911   -0.325834
      8          1           0        3.320066    3.698634   -0.948890
      9          1           0        4.031980    3.563595    0.665992
     10          1           0        2.395886    4.215342    0.471749
     11          6           0        2.950742   -0.439060   -0.162065
     12          6           0        3.914268   -1.509176   -0.676317
     13          6           0        3.350227   -2.924333   -0.545999
     14          1           0        2.713514   -0.644696    0.890945
     15          1           0        2.004309   -0.510485   -0.715335
     16          1           0        4.858585   -1.435071   -0.121890
     17          1           0        4.150693   -1.300796   -1.727648
     18          1           0        2.419202   -3.021756   -1.113716
     19          1           0        3.131117   -3.156794    0.501166
     20          1           0        4.055297   -3.673503   -0.919472
     21          6           0       -2.733801   -0.824817    0.410333
     22          6           0       -1.402254   -0.298200    0.946655
     23          6           0       -0.428942   -1.418259    1.315334
     24          1           0       -3.193105   -1.478077    1.164810
     25          1           0       -2.543622   -1.451724   -0.471832
     26          1           0       -1.595003    0.328651    1.826724
     27          1           0       -0.946158    0.354035    0.190889
     28          1           0       -0.207447   -2.039339    0.441376
     29          1           0       -0.859978   -2.064867    2.086507
     30          1           0        0.516328   -1.019422    1.696459
     31          6           0       -3.717382    0.282978    0.037391
     32          6           0       -5.048929   -0.243639   -0.498931
     33          6           0       -6.022241    0.876419   -0.867610
     34          1           0       -3.907561    0.909885    0.919556
     35          1           0       -3.258078    0.936238   -0.717086
     36          1           0       -5.505025   -0.895874    0.256835
     37          1           0       -4.856181   -0.870491   -1.379000
     38          1           0       -5.591205    1.523026   -1.638782
     39          1           0       -6.243736    1.497499    0.006347
     40          1           0       -6.967510    0.477582   -1.248734
 ---------------------------------------------------------------------

 SCF Done:  E(RHF) =  -470.732626151     A.U. after   11 cycles
 E2 =    -0.1583750960D+01 EUMP2 =    -0.47231637711072D+03

 The electronic state is 1-A.
 Alpha  occ. eigenvalues --  -11.21618 -11.21588 -11.21587 -11.21539 -11.21386
 Alpha  occ. eigenvalues --  -11.21378 -11.21317 -11.21316 -11.21081 -11.21062
 Alpha  occ. eigenvalues --  -11.21052 -11.20916  -1.08445  -1.08380  -1.03532
 Alpha  occ. eigenvalues --   -1.03477  -0.95998  -0.95908  -0.87023  -0.86921
 Alpha  occ. eigenvalues --   -0.79657  -0.79488  -0.78246  -0.78208  -0.65103
 Alpha  occ. eigenvalues --   -0.64994  -0.60930  -0.60884  -0.59382  -0.59287
 Alpha  occ. eigenvalues --   -0.57708  -0.57425  -0.55272  -0.55217  -0.52774
 Alpha  occ. eigenvalues --   -0.52632  -0.52437  -0.52224  -0.49920  -0.49885
 Alpha  occ. eigenvalues --   -0.47955  -0.47828  -0.46675  -0.46526  -0.45854
 Alpha  occ. eigenvalues --   -0.45725  -0.45677  -0.45589  -0.43785  -0.43660
 Alpha virt. eigenvalues --    0.20939   0.23169   0.23585   0.24123   0.24805
 Alpha virt. eigenvalues --    0.26200   0.26927   0.27363   0.28177   0.29531
 Alpha virt. eigenvalues --    0.30864   0.31262   0.31646   0.31808   0.32256

 Mulliken charges:
               1
     1  C   -0.298156
     2  C   -0.301170
     3  C   -0.475681
     4  H    0.149462
     5  H    0.149213
     6  H    0.151825
     7  H    0.153130
     8  H    0.155166
     9  H    0.155246
    10  H    0.160437
    11  C   -0.301306
    12  C   -0.299535
    13  C   -0.475961
    14  H    0.152260
    15  H    0.152264
    16  H    0.151705
    17  H    0.151529
    18  H    0.154891
    19  H    0.156256
    20  H    0.160027
    21  C   -0.298296
    22  C   -0.301785
    23  C   -0.478110
    24  H    0.149704
    25  H    0.149034
    26  H    0.151596
    27  H    0.153073
    28  H    0.155335
    29  H    0.153433
    30  H    0.164821
    31  C   -0.298124
    32  C   -0.299593
    33  C   -0.475671
    34  H    0.149529
    35  H    0.149241
    36  H    0.151966
    37  H    0.151798
    38  H    0.155069
    39  H    0.155179
    40  H    0.160199
 Sum of Mulliken charges =  -0.00000

 Dipole moment (field-independent basis, Debye):
    X=              0.0350    Y=              0.0006    Z=              0.0063  Tot=              0.0356
 Quadrupole moment (field-independent basis, Debye-Ang):
   XX=            -85.2981   YY=            -86.4780   ZZ=            -83.0986
   XY=              0.2089   XZ=             -0.1697   YZ=              0.1639

 Normal termination of Gaussian 16 at Wed May  5 18:14:16 2021.
