 Gaussian 16, Revision A.03,
 Gaussian 16:  EM64L-G16RevA.03 25-Dec-2016

 -------------
 #p 6-31g* mp2
 -------------

 ------------------------------------------------------
 Input file generated by CHIRIPA (05-May-2021 14:51:10)
 ------------------------------------------------------
 Symbolic Z-matrix:
 Charge =  0 Multiplicity = 1

                         Standard orientation:
 ---------------------------------------------------------------------
 Center     Atomic      Atomic             Coordinates (Angstroms)
 Number     Number       Type             X           Y           Z
 ---------------------------------------------------------------------
      1          6           0        2.211096   -1.576175   -0.029324
      2          6           0        1.200404   -1.959260    1.052219
      3          6           0        0.745320   -3.415153    0.947016
      4          1           0        1.765046   -1.751889   -1.017812
      5          1           0        3.083675   -2.240151    0.042348
      6          1           0        0.330599   -1.293863    0.979412
      7          1           0        1.648843   -1.782433    2.038247
      8          1           0        1.599382   -4.093538    1.041742
      9          1           0        0.273647   -3.602192   -0.023109
     10          1           0        0.023116   -3.667581    1.729680
     11          6           0        2.675520   -0.123737    0.062657
     12          6           0        3.686212    0.259348   -1.018885
     13          6           0        4.141296    1.715241   -0.913682
     14          1           0        1.802941    0.540239   -0.009015
     15          1           0        3.121570    0.051977    1.051145
     16          1           0        3.237773    0.082521   -2.004913
     17          1           0        4.556017   -0.406049   -0.946079
     18          1           0        4.612969    1.902280    0.056442
     19          1           0        3.287234    2.393626   -1.008408
     20          1           0        4.863499    1.967670   -1.696346
     21          6           0       -2.515301    0.112839   -0.203502
     22          6           0       -3.924136   -0.260755   -0.665669
     23          6           0       -4.052345   -1.738674   -1.035952
     24          1           0       -1.798482   -0.130690   -0.999623
     25          1           0       -2.244172   -0.507767    0.661791
     26          1           0       -4.193065    0.361336   -1.528975
     27          1           0       -4.637708   -0.016131    0.131571
     28          1           0       -3.810185   -2.373340   -0.177374
     29          1           0       -3.363015   -1.993729   -1.847354
     30          1           0       -5.067451   -1.983884   -1.363507
     31          6           0       -2.371314    1.587073    0.170169
     32          6           0       -0.962479    1.960666    0.632335
     33          6           0       -0.834271    3.438585    1.002619
     34          1           0       -2.642445    2.207679   -0.695124
     35          1           0       -3.088134    1.830601    0.966289
     36          1           0       -0.248908    1.716043   -0.164904
     37          1           0       -0.693551    1.338576    1.495642
     38          1           0       -1.523602    3.693640    1.814020
     39          1           0       -1.076432    4.073251    0.144039
     40          1           0        0.180836    3.683795    1.330173
 ---------------------------------------------------------------------

 SCF Done:  E(RHF) =  -470.732935935     A.U. after   11 cycles
 E2 =    -0.1584350649D+01 EUMP2 =    -0.47231728658464D+03

 The electronic state is 1-A.
 Alpha  occ. eigenvalues --  -11.21671 -11.21663 -11.21559 -11.21493 -11.21487
 Alpha  occ. eigenvalues --  -11.21426 -11.21319 -11.21244 -11.21124 -11.21112
 Alpha  occ. eigenvalues --  -11.21053 -11.21012  -1.08521  -1.08351  -1.03597
 Alpha  occ. eigenvalues --   -1.03471  -0.96043  -0.95922  -0.87059  -0.86938
 Alpha  occ. eigenvalues --   -0.79688  -0.79531  -0.78470  -0.78036  -0.65159
 Alpha  occ. eigenvalues --   -0.64988  -0.61016  -0.60856  -0.59416  -0.59293
 Alpha  occ. eigenvalues --   -0.57690  -0.57500  -0.55328  -0.55215  -0.52739
 Alpha  occ. eigenvalues --   -0.52619  -0.52471  -0.52347  -0.50002  -0.49861
 Alpha  occ. eigenvalues --   -0.48056  -0.47857  -0.46784  -0.46629  -0.46258
 Alpha  occ. eigenvalues --   -0.45721  -0.45677  -0.45053  -0.43843  -0.43715
 Alpha virt. eigenvalues --    0.20735   0.22695   0.23642   0.24119   0.25649
 Alpha virt. eigenvalues --    0.26116   0.27239   0.27346   0.28277   0.29662
 Alpha virt. eigenvalues --    0.31072   0.31517   0.31754   0.31942   0.32199

 Mulliken charges:
               1
     1  C   -0.297170
     2  C   -0.307348
     3  C   -0.475322
     4  H    0.148667
     5  H    0.149105
     6  H    0.160410
     7  H    0.150906
     8  H    0.154920
     9  H    0.155426
    10  H    0.159224
    11  C   -0.307625
    12  C   -0.299082
    13  C   -0.475644
    14  H    0.159721
    15  H    0.148945
    16  H    0.151122
    17  H    0.151800
    18  H    0.155175
    19  H    0.154568
    20  H    0.160123
    21  C   -0.301446
    22  C   -0.299569
    23  C   -0.475815
    24  H    0.149187
    25  H    0.152480
    26  H    0.152125
    27  H    0.152222
    28  H    0.155732
    29  H    0.154950
    30  H    0.160524
    31  C   -0.297515
    32  C   -0.306310
    33  C   -0.476021
    34  H    0.149602
    35  H    0.149961
    36  H    0.155257
    37  H    0.154801
    38  H    0.155558
    39  H    0.155149
    40  H    0.161210
 Sum of Mulliken charges =  -0.00000

 Dipole moment (field-independent basis, Debye):
    X=             -0.0684    Y=              0.0404    Z=              0.0141  Tot=              0.0807
 Quadrupole moment (field-independent basis, Debye-Ang):
   XX=            -84.4339   YY=            -86.8576   ZZ=            -83.5680
   XY=             -0.8207   XZ=              0.1672   YZ=             -0.5853

 Normal termination of Gaussian 16 at Thu May  6 00:35:56 2021.
