 Gaussian 16, Revision A.03,
 Gaussian 16:  EM64L-G16RevA.03 25-Dec-2016

 -------------
 #p 6-31g* mp2
 -------------

 ------------------------------------------------------
 Input file generated by CHIRIPA (05-May-2021 14:51:11)
 ------------------------------------------------------
 Symbolic Z-matrix:
 Charge =  0 Multiplicity = 1

                         Standard orientation:
 ---------------------------------------------------------------------
 Center     Atomic      Atomic             Coordinates (Angstroms)
 Number     Number       Type             X           Y           Z
 ---------------------------------------------------------------------
      1          6           0       -3.271741    0.621154    0.082092
      2          6           0       -2.991851    1.942359   -0.634888
      3          6           0       -1.751950    2.656384   -0.095807
      4          1           0       -3.395780    0.813519    1.156595
      5          1           0       -2.396447   -0.035394   -0.018907
      6          1           0       -3.867946    2.595692   -0.533745
      7          1           0       -2.868654    1.746852   -1.707835
      8          1           0       -0.863962    2.026507   -0.211281
      9          1           0       -1.868931    2.880170    0.969480
     10          1           0       -1.570445    3.598491   -0.622446
     11          6           0       -4.508158   -0.104431   -0.445666
     12          6           0       -4.788049   -1.425637    0.271315
     13          6           0       -6.027950   -2.139661   -0.267767
     14          1           0       -5.383452    0.552116   -0.344666
     15          1           0       -4.384120   -0.296797   -1.520168
     16          1           0       -4.911245   -1.230130    1.344262
     17          1           0       -3.911954   -2.078969    0.170172
     18          1           0       -5.910968   -2.363448   -1.333054
     19          1           0       -6.915938   -1.509785   -0.152293
     20          1           0       -6.209455   -3.081769    0.258873
     21          6           0        4.623938   -0.049240    0.212786
     22          6           0        5.522325   -0.847550   -0.732511
     23          6           0        6.987782   -0.417627   -0.659058
     24          1           0        4.706561    1.019399   -0.028321
     25          1           0        4.990329   -0.166682    1.242038
     26          1           0        5.153527   -0.729755   -1.759511
     27          1           0        5.437406   -1.914428   -0.489250
     28          1           0        7.378193   -0.551589    0.354961
     29          1           0        7.092700    0.639815   -0.922516
     30          1           0        7.612120   -1.001178   -1.342819
     31          6           0        3.155961   -0.467483    0.150789
     32          6           0        2.257575    0.330829    1.096084
     33          6           0        0.792118   -0.099096    1.022631
     34          1           0        2.789571   -0.350041   -0.878464
     35          1           0        3.073339   -1.536121    0.391896
     36          1           0        2.342493    1.397706    0.852824
     37          1           0        2.626374    0.213033    2.123084
     38          1           0        0.687200   -1.156537    1.286091
     39          1           0        0.401706    0.034867    0.008613
     40          1           0        0.167779    0.484455    1.706393
 ---------------------------------------------------------------------

 SCF Done:  E(RHF) =  -470.732511012     A.U. after   11 cycles
 E2 =    -0.1583196950D+01 EUMP2 =    -0.47231570796182D+03

 The electronic state is 1-A.
 Alpha  occ. eigenvalues --  -11.21616 -11.21612 -11.21554 -11.21532 -11.21420
 Alpha  occ. eigenvalues --  -11.21360 -11.21335 -11.21265 -11.21078 -11.21072
 Alpha  occ. eigenvalues --  -11.21036 -11.20932  -1.08449  -1.08363  -1.03567
 Alpha  occ. eigenvalues --   -1.03450  -0.96026  -0.95892  -0.87052  -0.86906
 Alpha  occ. eigenvalues --   -0.79679  -0.79475  -0.78273  -0.78153  -0.65120
 Alpha  occ. eigenvalues --   -0.64970  -0.61106  -0.60750  -0.59432  -0.59221
 Alpha  occ. eigenvalues --   -0.57643  -0.57495  -0.55461  -0.55054  -0.52736
 Alpha  occ. eigenvalues --   -0.52602  -0.52444  -0.52289  -0.50104  -0.49725
 Alpha  occ. eigenvalues --   -0.47940  -0.47823  -0.46761  -0.46441  -0.45856
 Alpha  occ. eigenvalues --   -0.45744  -0.45699  -0.45488  -0.43771  -0.43710
 Alpha virt. eigenvalues --    0.21646   0.22986   0.23593   0.24983   0.25914
 Alpha virt. eigenvalues --    0.26669   0.26969   0.27481   0.28002   0.29351
 Alpha virt. eigenvalues --    0.30054   0.31418   0.31538   0.31808   0.32317

 Mulliken charges:
               1
     1  C   -0.302227
     2  C   -0.299191
     3  C   -0.481647
     4  H    0.148981
     5  H    0.155118
     6  H    0.151435
     7  H    0.150965
     8  H    0.164077
     9  H    0.153826
    10  H    0.158881
    11  C   -0.298118
    12  C   -0.299568
    13  C   -0.475653
    14  H    0.149281
    15  H    0.149265
    16  H    0.151826
    17  H    0.152083
    18  H    0.155053
    19  H    0.155075
    20  H    0.160076
    21  C   -0.298292
    22  C   -0.299653
    23  C   -0.475719
    24  H    0.149803
    25  H    0.149617
    26  H    0.151878
    27  H    0.151921
    28  H    0.155216
    29  H    0.155238
    30  H    0.160266
    31  C   -0.298425
    32  C   -0.301865
    33  C   -0.478559
    34  H    0.149340
    35  H    0.149673
    36  H    0.152967
    37  H    0.152331
    38  H    0.155380
    39  H    0.155041
    40  H    0.164304
 Sum of Mulliken charges =  -0.00000

 Dipole moment (field-independent basis, Debye):
    X=              0.0446    Y=             -0.0205    Z=              0.0225  Tot=              0.0540
 Quadrupole moment (field-independent basis, Debye-Ang):
   XX=            -86.5796   YY=            -84.6592   ZZ=            -83.8371
   XY=             -1.0786   XZ=             -0.4749   YZ=             -0.3191

 Normal termination of Gaussian 16 at Thu May  6 02:16:12 2021.
