 Gaussian 16, Revision A.03,
 Gaussian 16:  EM64L-G16RevA.03 25-Dec-2016

 -------------
 #p 6-31g* mp2
 -------------

 ------------------------------------------------------
 Input file generated by CHIRIPA (05-May-2021 14:55:25)
 ------------------------------------------------------
 Symbolic Z-matrix:
 Charge =  0 Multiplicity = 1

                         Standard orientation:
 ---------------------------------------------------------------------
 Center     Atomic      Atomic             Coordinates (Angstroms)
 Number     Number       Type             X           Y           Z
 ---------------------------------------------------------------------
      1          6           0       -0.851352   -0.636002   -0.093213
      2          6           0       -1.662683   -0.928626   -1.194409
      3          6           0       -3.046442   -0.741116   -1.126589
      4          6           0       -3.587830   -0.257253    0.063396
      5          6           0       -2.805978    0.043465    1.177652
      6          6           0       -1.424578   -0.151744    1.087222
      7          1           0        0.222668   -0.784654   -0.154679
      8          1           0       -1.220258   -1.304836   -2.112435
      9          1           0       -3.697927   -0.959567   -1.964004
     10          1           0       -3.275984    0.417138    2.079251
     11          1           0       -0.796939    0.076360    1.944008
     12          7           0       -5.051505   -0.054669    0.147163
     13          8           0       -5.504006    0.372755    1.206968
     14          8           0       -5.718517   -0.327145   -0.848573
     15          6           0        3.670532    0.741303    0.203269
     16          6           0        2.859090    1.437752   -0.889665
     17          6           0        1.635683    2.172174   -0.340398
     18          1           0        3.023067    0.031033    0.735482
     19          1           0        3.991290    1.487166    0.943673
     20          1           0        2.541130    0.691016   -1.628517
     21          1           0        3.508613    2.146307   -1.419463
     22          1           0        1.937929    2.937857    0.381391
     23          1           0        0.964949    1.474295    0.171150
     24          1           0        1.070104    2.662844   -1.138661
     25          6           0        4.896761    0.002739   -0.330221
     26          6           0        5.708203   -0.693711    0.762713
     27          6           0        6.931609   -1.428134    0.213446
     28          1           0        4.576003   -0.743125   -1.070626
     29          1           0        5.544227    0.713007   -0.862435
     30          1           0        5.058680   -1.402266    1.292511
     31          1           0        6.026163    0.053025    1.501564
     32          1           0        7.602344   -0.730255   -0.298103
     33          1           0        6.629365   -2.193816   -0.508344
     34          1           0        7.497190   -1.918803    1.011708
 ---------------------------------------------------------------------

 SCF Done:  E(RHF) =  -669.534371193     A.U. after   15 cycles
 E2 =    -0.2092570433D+01 EUMP2 =    -0.67162694162667D+03

 The electronic state is 1-A.
 Alpha  occ. eigenvalues --  -20.60765 -20.60760 -15.85820 -11.31194 -11.27778
 Alpha  occ. eigenvalues --  -11.27772 -11.27511 -11.26785 -11.26775 -11.22545
 Alpha  occ. eigenvalues --  -11.22369 -11.22294 -11.22170 -11.21866 -11.21646
 Alpha  occ. eigenvalues --   -1.59841  -1.39394  -1.19380  -1.09294  -1.08778
 Alpha  occ. eigenvalues --   -1.04784  -1.04328  -0.96771  -0.95606  -0.87778
 Alpha  occ. eigenvalues --   -0.86185  -0.82439  -0.80391  -0.79098  -0.77476
 Alpha  occ. eigenvalues --   -0.72039  -0.71164  -0.70549  -0.65941  -0.65037
 Alpha  occ. eigenvalues --   -0.64791  -0.62137  -0.61734  -0.60127  -0.58372
 Alpha  occ. eigenvalues --   -0.56170  -0.55215  -0.53446  -0.53282  -0.52985
 Alpha  occ. eigenvalues --   -0.52873  -0.50692  -0.48798  -0.48794  -0.48691
 Alpha  occ. eigenvalues --   -0.47449  -0.46631  -0.46566  -0.44798  -0.44584
 Alpha  occ. eigenvalues --   -0.37295  -0.36379
 Alpha virt. eigenvalues --    0.05038   0.11158   0.16461   0.18917   0.22649
 Alpha virt. eigenvalues --    0.23900   0.25422   0.26069   0.27033   0.27817
 Alpha virt. eigenvalues --    0.29237   0.30444   0.31002   0.31173   0.32039

 Mulliken charges:
               1
     1  C   -0.170594
     2  C   -0.220724
     3  C   -0.170670
     4  C    0.158217
     5  C   -0.170978
     6  C   -0.218217
     7  H    0.229595
     8  H    0.223504
     9  H    0.275715
    10  H    0.275874
    11  H    0.224000
    12  N    0.488107
    13  O   -0.460343
    14  O   -0.460445
    15  C   -0.298597
    16  C   -0.302108
    17  C   -0.478703
    18  H    0.140363
    19  H    0.153583
    20  H    0.146342
    21  H    0.157356
    22  H    0.157824
    23  H    0.150683
    24  H    0.165175
    25  C   -0.298233
    26  C   -0.300031
    27  C   -0.476105
    28  H    0.148156
    29  H    0.152815
    30  H    0.150658
    31  H    0.153568
    32  H    0.156665
    33  H    0.155343
    34  H    0.162205
 Sum of Mulliken charges =  -0.00000

 Dipole moment (field-independent basis, Debye):
    X=              5.2837    Y=             -0.6480    Z=             -0.3175  Tot=              5.3328
 Quadrupole moment (field-independent basis, Debye-Ang):
   XX=           -132.0682   YY=            -94.0595   ZZ=            -90.4664
   XY=              2.6020   XZ=              2.2024   YZ=              1.7207

 Normal termination of Gaussian 16 at Thu May  6 12:43:49 2021.
