 Gaussian 16, Revision A.03,
 Gaussian 16:  EM64L-G16RevA.03 25-Dec-2016

 -------------
 #p 6-31g* mp2
 -------------

 ------------------------------------------------------
 Input file generated by CHIRIPA (05-May-2021 14:57:22)
 ------------------------------------------------------
 Symbolic Z-matrix:
 Charge =  0 Multiplicity = 1

                         Standard orientation:
 ---------------------------------------------------------------------
 Center     Atomic      Atomic             Coordinates (Angstroms)
 Number     Number       Type             X           Y           Z
 ---------------------------------------------------------------------
      1          6           0        1.545599   -2.195346    0.278268
      2          6           0        1.434997   -1.262162   -0.757809
      3          6           0        2.398030   -0.261402   -0.917790
      4          6           0        3.463374   -0.223103   -0.019533
      5          6           0        3.601365   -1.138494    1.022728
      6          6           0        2.626524   -2.130648    1.163669
      7          1           0        0.792905   -2.969418    0.395149
      8          1           0        0.596609   -1.309988   -1.446913
      9          1           0        2.336932    0.473712   -1.711070
     10          1           0        4.448425   -1.065323    1.693960
     11          1           0        2.714990   -2.854042    1.969224
     12          7           0        4.489144    0.831802   -0.178819
     13          8           0        5.418161    0.844018    0.625803
     14          8           0        4.344703    1.626444   -1.105272
     15          6           0       -1.830099    2.431228    0.282711
     16          6           0       -3.079741    2.373455    0.908472
     17          6           0       -3.899399    1.251319    0.755100
     18          6           0       -3.435869    0.200299   -0.034700
     19          6           0       -2.195860    0.228057   -0.671015
     20          6           0       -1.392918    1.360232   -0.503649
     21          1           0       -1.199862    3.306828    0.407289
     22          1           0       -3.421848    3.203720    1.519757
     23          1           0       -4.871277    1.180297    1.228203
     24          1           0       -1.882075   -0.615223   -1.274203
     25          1           0       -0.422895    1.402343   -0.990814
     26          7           0       -4.294756   -0.992971   -0.204477
     27          8           0       -3.863385   -1.905725   -0.905501
     28          8           0       -5.383059   -0.992905    0.366692
 ---------------------------------------------------------------------

 SCF Done:  E(RHF) =  -868.337256236     A.U. after   16 cycles
 E2 =    -0.2600865661D+01 EUMP2 =    -0.87093812189663D+03

 The electronic state is 1-A.
 Alpha  occ. eigenvalues --  -20.61355 -20.61342 -20.61327 -20.61323 -15.86395
 Alpha  occ. eigenvalues --  -15.86392 -11.31791 -11.31724 -11.28444 -11.28365
 Alpha  occ. eigenvalues --  -11.28312 -11.28219 -11.28018 -11.27916 -11.27450
 Alpha  occ. eigenvalues --  -11.27285 -11.27277 -11.27208  -1.60418  -1.60412
 Alpha  occ. eigenvalues --   -1.39975  -1.39965  -1.19963  -1.19867  -1.09324
 Alpha  occ. eigenvalues --   -1.09251  -1.05427  -1.05245  -0.96159  -0.96105
 Alpha  occ. eigenvalues --   -0.86778  -0.86658  -0.83066  -0.82899  -0.78171
 Alpha  occ. eigenvalues --   -0.77932  -0.72619  -0.72599  -0.71741  -0.71739
 Alpha  occ. eigenvalues --   -0.71022  -0.70956  -0.65633  -0.65583  -0.65397
 Alpha  occ. eigenvalues --   -0.65208  -0.62982  -0.62402  -0.55811  -0.55701
 Alpha  occ. eigenvalues --   -0.53787  -0.53611  -0.53445  -0.53263  -0.49386
 Alpha  occ. eigenvalues --   -0.49366  -0.49360  -0.49352  -0.45390  -0.45364
 Alpha  occ. eigenvalues --   -0.37912  -0.37810  -0.37197  -0.36619
 Alpha virt. eigenvalues --    0.04436   0.04527   0.10574   0.10822   0.15728
 Alpha virt. eigenvalues --    0.16169   0.18530   0.22193   0.24783   0.25611
 Alpha virt. eigenvalues --    0.28264   0.29146   0.30559   0.30998   0.32267

 Mulliken charges:
               1
     1  C   -0.170401
     2  C   -0.219406
     3  C   -0.177156
     4  C    0.158958
     5  C   -0.170128
     6  C   -0.218143
     7  H    0.233532
     8  H    0.220853
     9  H    0.271861
    10  H    0.277506
    11  H    0.227157
    12  N    0.487968
    13  O   -0.457953
    14  O   -0.462132
    15  C   -0.171491
    16  C   -0.218003
    17  C   -0.170771
    18  C    0.159783
    19  C   -0.176082
    20  C   -0.214388
    21  H    0.230735
    22  H    0.226091
    23  H    0.276844
    24  H    0.267086
    25  H    0.221509
    26  N    0.488220
    27  O   -0.464422
    28  O   -0.457625
 Sum of Mulliken charges =  -0.00000

 Dipole moment (field-independent basis, Debye):
    X=             -0.5401    Y=              0.4855    Z=              1.4178  Tot=              1.5930
 Quadrupole moment (field-independent basis, Debye-Ang):
   XX=           -147.3392   YY=           -100.3604   ZZ=           -100.9596
   XY=            -29.3720   XZ=             -0.1901   YZ=             -0.4011

 Normal termination of Gaussian 16 at Thu May  6 01:45:07 2021.
