 Gaussian 16, Revision A.03,
 Gaussian 16:  EM64L-G16RevA.03 25-Dec-2016

 -------------
 #p 6-31g* mp2
 -------------

 ------------------------------------------------------
 Input file generated by CHIRIPA (05-May-2021 14:51:08)
 ------------------------------------------------------
 Symbolic Z-matrix:
 Charge =  0 Multiplicity = 1

                         Standard orientation:
 ---------------------------------------------------------------------
 Center     Atomic      Atomic             Coordinates (Angstroms)
 Number     Number       Type             X           Y           Z
 ---------------------------------------------------------------------
      1          6           0        3.504813   -0.269765    0.397254
      2          6           0        2.916707    0.615846    1.496258
      3          6           0        1.410904    0.417712    1.672597
      4          1           0        2.991968   -0.056259   -0.550560
      5          1           0        3.297857   -1.322540    0.634382
      6          1           0        3.125914    1.666561    1.257833
      7          1           0        3.431142    0.400343    2.441525
      8          1           0        1.187149   -0.621483    1.934531
      9          1           0        0.880187    0.651929    0.744113
     10          1           0        1.011270    1.060448    2.463193
     11          6           0        5.009287   -0.083068    0.209023
     12          6           0        5.597393   -0.968679   -0.889981
     13          6           0        7.103195   -0.770544   -1.066320
     14          1           0        5.216242    0.969707   -0.028105
     15          1           0        5.522131   -0.296574    1.156837
     16          1           0        5.082957   -0.753176   -1.835248
     17          1           0        5.388185   -2.019393   -0.651555
     18          1           0        7.633912   -1.004762   -0.137836
     19          1           0        7.326950    0.268650   -1.328254
     20          1           0        7.502829   -1.413281   -1.856916
     21          6           0       -4.796227   -0.299568   -0.560353
     22          6           0       -5.628475   -0.932713    0.555208
     23          6           0       -6.702952   -1.882452    0.024843
     24          1           0       -5.463283    0.243952   -1.243408
     25          1           0       -4.323573   -1.095418   -1.152480
     26          1           0       -6.098307   -0.135872    1.145903
     27          1           0       -4.959339   -1.474628    1.235795
     28          1           0       -6.248230   -2.697486   -0.547475
     29          1           0       -7.393670   -1.351123   -0.637878
     30          1           0       -7.286028   -2.323837    0.839129
     31          6           0       -3.717873    0.652401   -0.045925
     32          6           0       -2.885624    1.285545   -1.161486
     33          6           0       -1.811147    2.235285   -0.631120
     34          1           0       -4.190527    1.448251    0.546204
     35          1           0       -3.050816    0.108880    0.637131
     36          1           0       -3.554761    1.827461   -1.842071
     37          1           0       -2.415793    0.488704   -1.752180
     38          1           0       -1.120430    1.703956    0.031601
     39          1           0       -2.265870    3.050319   -0.058802
     40          1           0       -1.228072    2.676670   -1.445405
 ---------------------------------------------------------------------

 SCF Done:  E(RHF) =  -470.733287690     A.U. after   11 cycles
 E2 =    -0.1582253663D+01 EUMP2 =    -0.47231554135295D+03

 The electronic state is 1-A.
 Alpha  occ. eigenvalues --  -11.21617 -11.21609 -11.21576 -11.21569 -11.21416
 Alpha  occ. eigenvalues --  -11.21371 -11.21357 -11.21310 -11.21093 -11.21077
 Alpha  occ. eigenvalues --  -11.21052 -11.21009  -1.08443  -1.08397  -1.03549
 Alpha  occ. eigenvalues --   -1.03495  -0.96014  -0.95933  -0.87048  -0.86937
 Alpha  occ. eigenvalues --   -0.79641  -0.79532  -0.78258  -0.78206  -0.65090
 Alpha  occ. eigenvalues --   -0.65015  -0.61043  -0.60817  -0.59362  -0.59315
 Alpha  occ. eigenvalues --   -0.57630  -0.57543  -0.55474  -0.55077  -0.52705
 Alpha  occ. eigenvalues --   -0.52645  -0.52484  -0.52305  -0.50138  -0.49695
 Alpha  occ. eigenvalues --   -0.47983  -0.47819  -0.46741  -0.46467  -0.45822
 Alpha  occ. eigenvalues --   -0.45743  -0.45710  -0.45627  -0.43797  -0.43755
 Alpha virt. eigenvalues --    0.22105   0.22999   0.23623   0.24735   0.26120
 Alpha virt. eigenvalues --    0.26735   0.27123   0.27574   0.27750   0.28870
 Alpha virt. eigenvalues --    0.30527   0.31665   0.31738   0.31896   0.32003

 Mulliken charges:
               1
     1  C   -0.298621
     2  C   -0.299229
     3  C   -0.481877
     4  H    0.149918
     5  H    0.149381
     6  H    0.152455
     7  H    0.152004
     8  H    0.154955
     9  H    0.160598
    10  H    0.160828
    11  C   -0.298339
    12  C   -0.299673
    13  C   -0.475717
    14  H    0.149672
    15  H    0.149678
    16  H    0.151967
    17  H    0.151878
    18  H    0.155190
    19  H    0.155238
    20  H    0.160266
    21  C   -0.298291
    22  C   -0.299652
    23  C   -0.475688
    24  H    0.149510
    25  H    0.149472
    26  H    0.151877
    27  H    0.152051
    28  H    0.155142
    29  H    0.155114
    30  H    0.160176
    31  C   -0.298568
    32  C   -0.299106
    33  C   -0.483570
    34  H    0.149417
    35  H    0.150467
    36  H    0.151739
    37  H    0.151541
    38  H    0.163319
    39  H    0.155204
    40  H    0.159275
 Sum of Mulliken charges =  -0.00000

 Dipole moment (field-independent basis, Debye):
    X=              0.0221    Y=             -0.0021    Z=              0.0158  Tot=              0.0273
 Quadrupole moment (field-independent basis, Debye-Ang):
   XX=            -86.2175   YY=            -84.1768   ZZ=            -84.4494
   XY=             -1.2487   XZ=              0.2078   YZ=             -0.6829

 Normal termination of Gaussian 16 at Wed May  5 21:19:25 2021.
