 Gaussian 16, Revision A.03,
 Gaussian 16:  EM64L-G16RevA.03 25-Dec-2016

 -------------
 #p 6-31g* mp2
 -------------

 ------------------------------------------------------
 Input file generated by CHIRIPA (05-May-2021 14:55:21)
 ------------------------------------------------------
 Symbolic Z-matrix:
 Charge =  0 Multiplicity = 1

                         Standard orientation:
 ---------------------------------------------------------------------
 Center     Atomic      Atomic             Coordinates (Angstroms)
 Number     Number       Type             X           Y           Z
 ---------------------------------------------------------------------
      1          6           0        1.295039    2.335763    1.347829
      2          6           0        1.839327    1.182933    1.923375
      3          6           0        2.365809    0.168226    1.118556
      4          6           0        2.331549    0.340107   -0.264402
      5          6           0        1.796078    1.477000   -0.867756
      6          6           0        1.275187    2.478865   -0.043446
      7          1           0        0.888226    3.119024    1.980603
      8          1           0        1.856084    1.069088    3.003562
      9          1           0        2.793194   -0.734581    1.537721
     10          1           0        1.793487    1.561927   -1.947663
     11          1           0        0.853116    3.373087   -0.493191
     12          7           0        2.885953   -0.727320   -1.126745
     13          8           0        2.843856   -0.551781   -2.342497
     14          8           0        3.352095   -1.719297   -0.570570
     15          6           0       -3.353711   -0.502436   -0.410906
     16          6           0       -4.307786    0.648240   -0.088925
     17          6           0       -5.274467    0.952612   -1.233774
     18          1           0       -2.784465   -0.255575   -1.317528
     19          1           0       -3.940509   -1.401380   -0.645354
     20          1           0       -3.719344    1.544382    0.146194
     21          1           0       -4.874690    0.398694    0.817144
     22          1           0       -5.886350    0.074701   -1.465014
     23          1           0       -4.724441    1.226900   -2.139776
     24          1           0       -5.947295    1.778392   -0.982282
     25          6           0       -2.381141   -0.818606    0.723937
     26          6           0       -1.427067   -1.969283    0.401957
     27          6           0       -0.460385   -2.273654    1.546806
     28          1           0       -1.794344    0.080337    0.958385
     29          1           0       -2.950387   -1.065467    1.630559
     30          1           0       -0.860162   -1.719737   -0.504113
     31          1           0       -2.015508   -2.865426    0.166836
     32          1           0       -1.010412   -2.547942    2.452807
     33          1           0        0.151498   -1.395743    1.778045
     34          1           0        0.212443   -3.099435    1.295313
 ---------------------------------------------------------------------

 SCF Done:  E(RHF) =  -669.535132815     A.U. after   15 cycles
 E2 =    -0.2093425906D+01 EUMP2 =    -0.67162855872064D+03

 The electronic state is 1-A.
 Alpha  occ. eigenvalues --  -20.60845 -20.60837 -15.85900 -11.31292 -11.27884
 Alpha  occ. eigenvalues --  -11.27860 -11.27637 -11.26892 -11.26879 -11.21793
 Alpha  occ. eigenvalues --  -11.21532 -11.21471 -11.21400 -11.21242 -11.20931
 Alpha  occ. eigenvalues --   -1.59918  -1.39470  -1.19490  -1.08868  -1.08491
 Alpha  occ. eigenvalues --   -1.04903  -1.03579  -0.96040  -0.95693  -0.87060
 Alpha  occ. eigenvalues --   -0.86279  -0.82528  -0.79657  -0.78304  -0.77565
 Alpha  occ. eigenvalues --   -0.72116  -0.71246  -0.70587  -0.65147  -0.65123
 Alpha  occ. eigenvalues --   -0.64880  -0.62242  -0.61005  -0.59392  -0.57640
 Alpha  occ. eigenvalues --   -0.55443  -0.55343  -0.53229  -0.52979  -0.52706
 Alpha  occ. eigenvalues --   -0.52424  -0.49984  -0.48877  -0.48867  -0.47960
 Alpha  occ. eigenvalues --   -0.46699  -0.45838  -0.45767  -0.44864  -0.43829
 Alpha  occ. eigenvalues --   -0.37457  -0.36405
 Alpha virt. eigenvalues --    0.04943   0.11139   0.16368   0.21224   0.22724
 Alpha virt. eigenvalues --    0.24189   0.26478   0.26864   0.27377   0.27923
 Alpha virt. eigenvalues --    0.28635   0.30792   0.31369   0.31720   0.31955

 Mulliken charges:
               1
     1  C   -0.170688
     2  C   -0.218588
     3  C   -0.171959
     4  C    0.160516
     5  C   -0.171469
     6  C   -0.218941
     7  H    0.226591
     8  H    0.225074
     9  H    0.278137
    10  H    0.276084
    11  H    0.224029
    12  N    0.488005
    13  O   -0.460426
    14  O   -0.459832
    15  C   -0.298285
    16  C   -0.298864
    17  C   -0.475625
    18  H    0.150329
    19  H    0.150981
    20  H    0.147697
    21  H    0.151797
    22  H    0.156723
    23  H    0.155014
    24  H    0.159334
    25  C   -0.299273
    26  C   -0.298416
    27  C   -0.484057
    28  H    0.147930
    29  H    0.147984
    30  H    0.153508
    31  H    0.153443
    32  H    0.151908
    33  H    0.153999
    34  H    0.167337
 Sum of Mulliken charges =  -0.00000

 Dipole moment (field-independent basis, Debye):
    X=             -1.8495    Y=              3.7559    Z=              2.9969  Tot=              5.1487
 Quadrupole moment (field-independent basis, Debye-Ang):
   XX=           -104.5366   YY=            -90.7791   ZZ=            -93.7741
   XY=              8.2279   XZ=              8.1246   YZ=             -2.2875

 Normal termination of Gaussian 16 at Thu May  6 20:44:29 2021.
