 Gaussian 16, Revision A.03,
 Gaussian 16:  EM64L-G16RevA.03 25-Dec-2016

 -------------
 #p 6-31g* mp2
 -------------

 ------------------------------------------------------
 Input file generated by CHIRIPA (05-May-2021 14:51:11)
 ------------------------------------------------------
 Symbolic Z-matrix:
 Charge =  0 Multiplicity = 1

                         Standard orientation:
 ---------------------------------------------------------------------
 Center     Atomic      Atomic             Coordinates (Angstroms)
 Number     Number       Type             X           Y           Z
 ---------------------------------------------------------------------
      1          6           0       -3.299821    0.331724    0.844036
      2          6           0       -1.803978    0.547315    0.611748
      3          6           0       -1.119876    1.254453    1.782113
      4          1           0       -3.781076    1.303704    1.018943
      5          1           0       -3.440296   -0.256238    1.761621
      6          1           0       -1.666313    1.133516   -0.305876
      7          1           0       -1.326261   -0.425274    0.437183
      8          1           0       -1.227696    0.669983    2.701553
      9          1           0       -1.569681    2.237630    1.954273
     10          1           0       -0.051176    1.398377    1.594958
     11          6           0       -3.997689   -0.374082   -0.317234
     12          6           0       -5.493532   -0.589673   -0.084945
     13          6           0       -6.177634   -1.296811   -1.255310
     14          1           0       -3.857213    0.213880   -1.234819
     15          1           0       -3.516434   -1.346063   -0.492141
     16          1           0       -5.971249    0.382916    0.089620
     17          1           0       -5.631197   -1.175875    0.832678
     18          1           0       -5.727829   -2.279989   -1.427470
     19          1           0       -6.069814   -0.712341   -2.174750
     20          1           0       -7.246333   -1.440735   -1.068155
     21          6           0        3.689699   -0.608450    0.167090
     22          6           0        4.657499   -1.656907   -0.382531
     23          6           0        4.728456   -2.910737    0.489633
     24          1           0        3.997814   -0.332010    1.184730
     25          1           0        2.688647   -1.053210    0.253562
     26          1           0        5.656134   -1.209890   -0.469243
     27          1           0        4.347156   -1.930743   -1.399053
     28          1           0        3.743566   -3.382587    0.566781
     29          1           0        5.059981   -2.657637    1.501875
     30          1           0        5.426068   -3.646947    0.078303
     31          6           0        3.607811    0.650808   -0.693893
     32          6           0        2.640010    1.699266   -0.144271
     33          6           0        2.569054    2.953096   -1.016436
     34          1           0        4.608863    1.095568   -0.780364
     35          1           0        3.299696    0.374367   -1.711532
     36          1           0        2.950353    1.973102    0.872251
     37          1           0        1.641375    1.252248   -0.057559
     38          1           0        2.237529    2.699995   -2.028677
     39          1           0        3.553944    3.424945   -1.093584
     40          1           0        1.871442    3.689305   -0.605105
 ---------------------------------------------------------------------

 SCF Done:  E(RHF) =  -470.733266775     A.U. after   11 cycles
 E2 =    -0.1582649215D+01 EUMP2 =    -0.47231591599033D+03

 The electronic state is 1-A.
 Alpha  occ. eigenvalues --  -11.21616 -11.21609 -11.21609 -11.21608 -11.21414
 Alpha  occ. eigenvalues --  -11.21414 -11.21355 -11.21355 -11.21084 -11.21079
 Alpha  occ. eigenvalues --  -11.21078 -11.21000  -1.08451  -1.08428  -1.03565
 Alpha  occ. eigenvalues --   -1.03509  -0.96001  -0.95962  -0.87022  -0.86975
 Alpha  occ. eigenvalues --   -0.79637  -0.79571  -0.78270  -0.78243  -0.65078
 Alpha  occ. eigenvalues --   -0.65066  -0.60971  -0.60919  -0.59518  -0.59208
 Alpha  occ. eigenvalues --   -0.57705  -0.57477  -0.55279  -0.55251  -0.52739
 Alpha  occ. eigenvalues --   -0.52637  -0.52445  -0.52366  -0.49925  -0.49913
 Alpha  occ. eigenvalues --   -0.48033  -0.47795  -0.46637  -0.46617  -0.45798
 Alpha  occ. eigenvalues --   -0.45785  -0.45718  -0.45707  -0.43820  -0.43731
 Alpha virt. eigenvalues --    0.21482   0.23101   0.23506   0.24809   0.26309
 Alpha virt. eigenvalues --    0.26645   0.26806   0.27565   0.27943   0.28952
 Alpha virt. eigenvalues --    0.30706   0.31236   0.31424   0.31744   0.32103

 Mulliken charges:
               1
     1  C   -0.298241
     2  C   -0.299760
     3  C   -0.482781
     4  H    0.149837
     5  H    0.149701
     6  H    0.151832
     7  H    0.151007
     8  H    0.155002
     9  H    0.154808
    10  H    0.167742
    11  C   -0.298308
    12  C   -0.299667
    13  C   -0.475711
    14  H    0.149482
    15  H    0.149465
    16  H    0.152002
    17  H    0.151972
    18  H    0.155134
    19  H    0.155175
    20  H    0.160301
    21  C   -0.298502
    22  C   -0.299653
    23  C   -0.475695
    24  H    0.149710
    25  H    0.149430
    26  H    0.151994
    27  H    0.151985
    28  H    0.155104
    29  H    0.155231
    30  H    0.160279
    31  C   -0.297570
    32  C   -0.306801
    33  C   -0.475698
    34  H    0.149576
    35  H    0.149723
    36  H    0.151866
    37  H    0.158955
    38  H    0.155152
    39  H    0.155340
    40  H    0.160580
 Sum of Mulliken charges =  -0.00000

 Dipole moment (field-independent basis, Debye):
    X=              0.0173    Y=              0.0063    Z=             -0.0044  Tot=              0.0190
 Quadrupole moment (field-independent basis, Debye-Ang):
   XX=            -84.5959   YY=            -84.9684   ZZ=            -85.1859
   XY=             -0.0115   XZ=             -0.0496   YZ=             -0.0514

 Normal termination of Gaussian 16 at Wed May  5 18:16:18 2021.
