 Gaussian 16, Revision A.03,
 Gaussian 16:  EM64L-G16RevA.03 25-Dec-2016

 -------------
 #p 6-31g* mp2
 -------------

 ------------------------------------------------------
 Input file generated by CHIRIPA (05-May-2021 14:55:24)
 ------------------------------------------------------
 Symbolic Z-matrix:
 Charge =  0 Multiplicity = 1

                         Standard orientation:
 ---------------------------------------------------------------------
 Center     Atomic      Atomic             Coordinates (Angstroms)
 Number     Number       Type             X           Y           Z
 ---------------------------------------------------------------------
      1          6           0        3.319407    1.585895    0.328803
      2          6           0        3.621437    0.709327   -0.718540
      3          6           0        2.944965   -0.507799   -0.843190
      4          6           0        1.967867   -0.817844    0.101501
      5          6           0        1.644314    0.034454    1.156106
      6          6           0        2.333548    1.246260    1.261139
      7          1           0        3.849863    2.529322    0.418016
      8          1           0        4.386593    0.970471   -1.444064
      9          1           0        3.158816   -1.204982   -1.644204
     10          1           0        0.876562   -0.253488    1.863964
     11          1           0        2.096894    1.925068    2.075547
     12          7           0        1.244962   -2.103545   -0.020078
     13          8           0        0.388364   -2.353375    0.825181
     14          8           0        1.548634   -2.837102   -0.958328
     15          6           0       -2.044378    1.169106   -0.343899
     16          6           0       -2.186313    2.676042   -0.127142
     17          6           0       -0.923779    3.449625   -0.508414
     18          1           0       -1.193960    0.798897    0.244897
     19          1           0       -1.800984    0.978704   -1.398366
     20          1           0       -2.430729    2.863458    0.926306
     21          1           0       -3.036611    3.042673   -0.716372
     22          1           0       -0.679466    3.292089   -1.563921
     23          1           0       -0.070143    3.111856    0.088091
     24          1           0       -1.047226    4.524849   -0.345576
     25          6           0       -3.298370    0.382113    0.032761
     26          6           0       -3.156434   -1.124823   -0.183997
     27          6           0       -4.418968   -1.898406    0.197275
     28          1           0       -3.541763    0.572515    1.087228
     29          1           0       -4.148788    0.752322   -0.556034
     30          1           0       -2.306136   -1.491454    0.405234
     31          1           0       -2.912017   -1.312238   -1.237445
     32          1           0       -5.272604   -1.560636   -0.399229
     33          1           0       -4.663281   -1.740870    1.252782
     34          1           0       -4.295521   -2.973629    0.034438
 ---------------------------------------------------------------------

 SCF Done:  E(RHF) =  -669.536092263     A.U. after   15 cycles
 E2 =    -0.2093786285D+01 EUMP2 =    -0.67162987854842D+03

 The electronic state is 1-A.
 Alpha  occ. eigenvalues --  -20.60968 -20.60963 -15.85989 -11.31322 -11.27908
 Alpha  occ. eigenvalues --  -11.27882 -11.27628 -11.26912 -11.26879 -11.21586
 Alpha  occ. eigenvalues --  -11.21202 -11.21157 -11.20906 -11.20634 -11.20290
 Alpha  occ. eigenvalues --   -1.60016  -1.39575  -1.19498  -1.08893  -1.08072
 Alpha  occ. eigenvalues --   -1.04902  -1.03126  -0.95736  -0.95629  -0.86659
 Alpha  occ. eigenvalues --   -0.86292  -0.82574  -0.79236  -0.77852  -0.77585
 Alpha  occ. eigenvalues --   -0.72218  -0.71320  -0.70603  -0.65157  -0.64908
 Alpha  occ. eigenvalues --   -0.64716  -0.62248  -0.60531  -0.59032  -0.57196
 Alpha  occ. eigenvalues --   -0.55395  -0.54951  -0.53232  -0.52989  -0.52326
 Alpha  occ. eigenvalues --   -0.52042  -0.49609  -0.48983  -0.48974  -0.47529
 Alpha  occ. eigenvalues --   -0.46290  -0.45610  -0.45318  -0.44593  -0.43391
 Alpha  occ. eigenvalues --   -0.37445  -0.36444
 Alpha virt. eigenvalues --    0.04854   0.11011   0.16296   0.20863   0.23179
 Alpha virt. eigenvalues --    0.24647   0.26144   0.27348   0.27424   0.28345
 Alpha virt. eigenvalues --    0.29017   0.30683   0.31724   0.31918   0.32539

 Mulliken charges:
               1
     1  C   -0.170075
     2  C   -0.218079
     3  C   -0.170349
     4  C    0.160369
     5  C   -0.170523
     6  C   -0.218354
     7  H    0.226794
     8  H    0.224152
     9  H    0.276041
    10  H    0.275385
    11  H    0.224634
    12  N    0.489347
    13  O   -0.460522
    14  O   -0.458369
    15  C   -0.300655
    16  C   -0.298915
    17  C   -0.477407
    18  H    0.147681
    19  H    0.149816
    20  H    0.149068
    21  H    0.152934
    22  H    0.155724
    23  H    0.150990
    24  H    0.157649
    25  C   -0.297481
    26  C   -0.310468
    27  C   -0.475243
    28  H    0.146156
    29  H    0.147325
    30  H    0.174797
    31  H    0.150657
    32  H    0.150529
    33  H    0.152219
    34  H    0.164173
 Sum of Mulliken charges =  -0.00000

 Dipole moment (field-independent basis, Debye):
    X=              2.7735    Y=              4.3207    Z=              0.4161  Tot=              5.1511
 Quadrupole moment (field-independent basis, Debye-Ang):
   XX=            -84.7063   YY=           -103.2942   ZZ=            -90.7282
   XY=              5.9917   XZ=             -0.9190   YZ=              1.2345

 Normal termination of Gaussian 16 at Wed May  5 16:06:05 2021.
