 Gaussian 16, Revision A.03,
 Gaussian 16:  EM64L-G16RevA.03 25-Dec-2016

 -------------
 #p 6-31g* mp2
 -------------

 ------------------------------------------------------
 Input file generated by CHIRIPA (05-May-2021 14:55:18)
 ------------------------------------------------------
 Symbolic Z-matrix:
 Charge =  0 Multiplicity = 1

                         Standard orientation:
 ---------------------------------------------------------------------
 Center     Atomic      Atomic             Coordinates (Angstroms)
 Number     Number       Type             X           Y           Z
 ---------------------------------------------------------------------
      1          6           0       -1.729098   -2.429640    1.117106
      2          6           0       -2.852959   -2.538222    0.291474
      3          6           0       -3.401592   -1.403679   -0.313804
      4          6           0       -2.798245   -0.170751   -0.070596
      5          6           0       -1.677905   -0.030122    0.746933
      6          6           0       -1.146186   -1.178143    1.341804
      7          1           0       -1.309476   -3.316215    1.583258
      8          1           0       -3.307745   -3.508859    0.115183
      9          1           0       -4.271110   -1.459111   -0.957452
     10          1           0       -1.246555    0.951071    0.903825
     11          1           0       -0.273324   -1.090816    1.982531
     12          7           0       -3.370105    1.037473   -0.705868
     13          8           0       -2.819979    2.112191   -0.475691
     14          8           0       -4.357626    0.886884   -1.421942
     15          6           0        4.160896    0.184184   -0.143970
     16          6           0        4.155690   -1.218522   -0.752553
     17          6           0        5.562984   -1.783724   -0.947128
     18          1           0        4.741006    0.855781   -0.791562
     19          1           0        4.682185    0.154891    0.822878
     20          1           0        3.633354   -1.186866   -1.717323
     21          1           0        3.575363   -1.886814   -0.103536
     22          1           0        6.089682   -1.844199    0.010752
     23          1           0        6.148003   -1.140273   -1.612204
     24          1           0        5.535858   -2.787149   -1.383319
     25          6           0        2.761332    0.762711    0.056661
     26          6           0        2.766539    2.165416    0.665244
     27          6           0        1.359243    2.730619    0.859819
     28          1           0        2.240043    0.792004   -0.910187
     29          1           0        2.181222    0.091114    0.704253
     30          1           0        3.346865    2.833709    0.016227
     31          1           0        3.288874    2.133761    1.630014
     32          1           0        0.774225    2.087168    1.524895
     33          1           0        0.832546    2.791094   -0.098061
     34          1           0        1.386370    3.734044    1.296010
 ---------------------------------------------------------------------

 SCF Done:  E(RHF) =  -669.535482903     A.U. after   15 cycles
 E2 =    -0.2091909941D+01 EUMP2 =    -0.67162739284474D+03

 The electronic state is 1-A.
 Alpha  occ. eigenvalues --  -20.60721 -20.60716 -15.85770 -11.31109 -11.27704
 Alpha  occ. eigenvalues --  -11.27638 -11.27452 -11.26715 -11.26703 -11.21982
 Alpha  occ. eigenvalues --  -11.21953 -11.21837 -11.21743 -11.21426 -11.21395
 Alpha  occ. eigenvalues --   -1.59794  -1.39348  -1.19295  -1.08825  -1.08698
 Alpha  occ. eigenvalues --   -1.04699  -1.03897  -0.96348  -0.95531  -0.87364
 Alpha  occ. eigenvalues --   -0.86096  -0.82368  -0.79963  -0.78652  -0.77402
 Alpha  occ. eigenvalues --   -0.71990  -0.71117  -0.70415  -0.65463  -0.64949
 Alpha  occ. eigenvalues --   -0.64715  -0.62095  -0.61270  -0.59699  -0.57957
 Alpha  occ. eigenvalues --   -0.55650  -0.55207  -0.53047  -0.53012  -0.52992
 Alpha  occ. eigenvalues --   -0.52539  -0.50287  -0.48750  -0.48741  -0.48259
 Alpha  occ. eigenvalues --   -0.46992  -0.46192  -0.46094  -0.44757  -0.44149
 Alpha  occ. eigenvalues --   -0.37284  -0.36289
 Alpha virt. eigenvalues --    0.05107   0.11326   0.16539   0.19655   0.22714
 Alpha virt. eigenvalues --    0.23819   0.25228   0.26196   0.26903   0.28401
 Alpha virt. eigenvalues --    0.29529   0.30487   0.31459   0.31594   0.31823

 Mulliken charges:
               1
     1  C   -0.170644
     2  C   -0.219127
     3  C   -0.170204
     4  C    0.158013
     5  C   -0.177672
     6  C   -0.221534
     7  H    0.225264
     8  H    0.223164
     9  H    0.275328
    10  H    0.286857
    11  H    0.223048
    12  N    0.487590
    13  O   -0.460459
    14  O   -0.460736
    15  C   -0.298594
    16  C   -0.299106
    17  C   -0.475905
    18  H    0.152390
    19  H    0.149085
    20  H    0.154014
    21  H    0.147785
    22  H    0.154963
    23  H    0.156904
    24  H    0.160466
    25  C   -0.298491
    26  C   -0.300587
    27  C   -0.479342
    28  H    0.154080
    29  H    0.140175
    30  H    0.155861
    31  H    0.151177
    32  H    0.141765
    33  H    0.168036
    34  H    0.166437
 Sum of Mulliken charges =  -0.00000

 Dipole moment (field-independent basis, Debye):
    X=              2.1207    Y=             -4.1204    Z=              2.1248  Tot=              5.0981
 Quadrupole moment (field-independent basis, Debye-Ang):
   XX=           -104.6636   YY=            -91.7954   ZZ=            -94.0617
   XY=             14.7293   XZ=             -4.7396   YZ=              0.7091

 Normal termination of Gaussian 16 at Thu May  6 10:46:27 2021.
