 Gaussian 16, Revision A.03,
 Gaussian 16:  EM64L-G16RevA.03 25-Dec-2016

 -------------
 #p 6-31g* mp2
 -------------

 ------------------------------------------------------
 Input file generated by CHIRIPA (05-May-2021 14:51:13)
 ------------------------------------------------------
 Symbolic Z-matrix:
 Charge =  0 Multiplicity = 1

                         Standard orientation:
 ---------------------------------------------------------------------
 Center     Atomic      Atomic             Coordinates (Angstroms)
 Number     Number       Type             X           Y           Z
 ---------------------------------------------------------------------
      1          6           0       -3.518107   -0.093931   -0.082885
      2          6           0       -2.684934    0.834194    0.801644
      3          6           0       -1.202525    0.834258    0.427134
      4          1           0       -3.119832   -1.115164   -0.009355
      5          1           0       -3.404102    0.211223   -1.132303
      6          1           0       -2.801573    0.528237    1.849213
      7          1           0       -3.085357    1.853300    0.726149
      8          1           0       -1.066991    1.160504   -0.609107
      9          1           0       -0.781594   -0.172088    0.520339
     10          1           0       -0.625554    1.504400    1.072017
     11          6           0       -5.002181   -0.104850    0.279240
     12          6           0       -5.835355   -1.032975   -0.605289
     13          6           0       -7.317764   -1.033039   -0.230779
     14          1           0       -5.116186   -0.410004    1.328658
     15          1           0       -5.400456    0.916383    0.205710
     16          1           0       -5.434931   -2.052081   -0.529794
     17          1           0       -5.718716   -0.727017   -1.652858
     18          1           0       -7.738694   -0.026693   -0.323984
     19          1           0       -7.453297   -1.359285    0.805462
     20          1           0       -7.894734   -1.703181   -0.875662
     21          6           0        3.791894    0.615093    0.215230
     22          6           0        3.316810    1.681764   -0.771936
     23          6           0        2.380765    2.706278   -0.130079
     24          1           0        2.918063    0.100966    0.638358
     25          1           0        4.303535    1.104815    1.055344
     26          1           0        2.807431    1.190080   -1.610624
     27          1           0        4.191881    2.193282   -1.192907
     28          1           0        2.882544    3.223165    0.694326
     29          1           0        1.490229    2.214264    0.274237
     30          1           0        2.053278    3.459445   -0.853510
     31          6           0        4.728394   -0.416313   -0.411584
     32          6           0        5.203478   -1.482982    0.575581
     33          6           0        6.139524   -2.507497   -0.066276
     34          1           0        4.216754   -0.906034   -1.251699
     35          1           0        5.602225    0.097815   -0.834713
     36          1           0        4.328407   -1.994501    0.996552
     37          1           0        5.712857   -0.991300    1.414269
     38          1           0        7.030059   -2.015484   -0.470591
     39          1           0        5.637743   -3.024385   -0.890682
     40          1           0        6.467011   -3.260664    0.657154
 ---------------------------------------------------------------------

 SCF Done:  E(RHF) =  -470.733096703     A.U. after   11 cycles
 E2 =    -0.1582460901D+01 EUMP2 =    -0.47231555760442D+03

 The electronic state is 1-A.
 Alpha  occ. eigenvalues --  -11.21646 -11.21623 -11.21566 -11.21510 -11.21437
 Alpha  occ. eigenvalues --  -11.21377 -11.21345 -11.21282 -11.21141 -11.21087
 Alpha  occ. eigenvalues --  -11.21045 -11.20906  -1.08465  -1.08365  -1.03575
 Alpha  occ. eigenvalues --   -1.03454  -0.96044  -0.95891  -0.87084  -0.86892
 Alpha  occ. eigenvalues --   -0.79669  -0.79495  -0.78277  -0.78177  -0.65093
 Alpha  occ. eigenvalues --   -0.64997  -0.60979  -0.60868  -0.59423  -0.59265
 Alpha  occ. eigenvalues --   -0.57667  -0.57490  -0.55359  -0.55167  -0.52829
 Alpha  occ. eigenvalues --   -0.52598  -0.52453  -0.52237  -0.50005  -0.49773
 Alpha  occ. eigenvalues --   -0.47958  -0.47830  -0.46669  -0.46546  -0.45825
 Alpha  occ. eigenvalues --   -0.45740  -0.45717  -0.45645  -0.43771  -0.43717
 Alpha virt. eigenvalues --    0.22118   0.22958   0.23677   0.24729   0.26202
 Alpha virt. eigenvalues --    0.26592   0.27165   0.27482   0.27789   0.28912
 Alpha virt. eigenvalues --    0.30227   0.31233   0.31613   0.31805   0.32121

 Mulliken charges:
               1
     1  C   -0.298747
     2  C   -0.299631
     3  C   -0.479107
     4  H    0.149550
     5  H    0.149637
     6  H    0.152115
     7  H    0.152530
     8  H    0.156488
     9  H    0.154831
    10  H    0.162946
    11  C   -0.298342
    12  C   -0.299641
    13  C   -0.475722
    14  H    0.149605
    15  H    0.149791
    16  H    0.151926
    17  H    0.151968
    18  H    0.155243
    19  H    0.155219
    20  H    0.160317
    21  C   -0.298648
    22  C   -0.298648
    23  C   -0.484432
    24  H    0.150144
    25  H    0.149162
    26  H    0.151669
    27  H    0.151289
    28  H    0.153912
    29  H    0.166004
    30  H    0.159173
    31  C   -0.298257
    32  C   -0.299572
    33  C   -0.475663
    34  H    0.149455
    35  H    0.149506
    36  H    0.151771
    37  H    0.151830
    38  H    0.155137
    39  H    0.155109
    40  H    0.160081
 Sum of Mulliken charges =  -0.00000

 Dipole moment (field-independent basis, Debye):
    X=             -0.0601    Y=             -0.0064    Z=              0.0096  Tot=              0.0612
 Quadrupole moment (field-independent basis, Debye-Ang):
   XX=            -85.9354   YY=            -84.6196   ZZ=            -84.4378
   XY=              0.6956   XZ=              0.7036   YZ=             -0.5924

 Normal termination of Gaussian 16 at Thu May  6 02:22:53 2021.
