 Gaussian 16, Revision A.03,
 Gaussian 16:  EM64L-G16RevA.03 25-Dec-2016

 -------------
 #p 6-31g* mp2
 -------------

 ------------------------------------------------------
 Input file generated by CHIRIPA (05-May-2021 14:55:21)
 ------------------------------------------------------
 Symbolic Z-matrix:
 Charge =  0 Multiplicity = 1

                         Standard orientation:
 ---------------------------------------------------------------------
 Center     Atomic      Atomic             Coordinates (Angstroms)
 Number     Number       Type             X           Y           Z
 ---------------------------------------------------------------------
      1          6           0       -2.469646    2.373808    0.048684
      2          6           0       -1.394928    1.555421   -0.314285
      3          6           0       -1.545035    0.166299   -0.362818
      4          6           0       -2.789411   -0.373200   -0.040701
      5          6           0       -3.879162    0.415634    0.324639
      6          6           0       -3.706153    1.802310    0.366427
      7          1           0       -2.344143    3.451961    0.083765
      8          1           0       -0.433492    1.996489   -0.561561
      9          1           0       -0.729775   -0.490691   -0.640547
     10          1           0       -4.825472   -0.053182    0.565735
     11          1           0       -4.542549    2.435424    0.648655
     12          7           0       -2.960446   -1.842506   -0.088511
     13          8           0       -4.066956   -2.293204    0.199835
     14          8           0       -1.984754   -2.515628   -0.413424
     15          6           0        3.633011   -0.513925   -0.288208
     16          6           0        4.216562   -1.566068    0.655427
     17          6           0        4.408073   -2.924480   -0.019728
     18          1           0        2.669075   -0.871858   -0.675064
     19          1           0        4.296478   -0.402344   -1.156975
     20          1           0        3.552902   -1.674634    1.522829
     21          1           0        5.179130   -1.205506    1.040232
     22          1           0        5.087372   -2.837774   -0.873915
     23          1           0        3.451903   -3.309567   -0.388575
     24          1           0        4.826240   -3.661614    0.672826
     25          6           0        3.435719    0.849388    0.372231
     26          6           0        2.852168    1.901531   -0.571405
     27          6           0        2.660656    3.259943    0.103750
     28          1           0        2.772252    0.737806    1.240998
     29          1           0        4.399655    1.207321    0.759087
     30          1           0        1.889600    1.540968   -0.956208
     31          1           0        3.515828    2.010096   -1.438806
     32          1           0        3.616826    3.645031    0.472598
     33          1           0        1.981358    3.173237    0.957938
     34          1           0        2.242490    3.997077   -0.588803
 ---------------------------------------------------------------------

 SCF Done:  E(RHF) =  -669.535549464     A.U. after   15 cycles
 E2 =    -0.2091565607D+01 EUMP2 =    -0.67162711507135D+03

 The electronic state is 1-A.
 Alpha  occ. eigenvalues --  -20.60770 -20.60764 -15.85823 -11.31181 -11.27747
 Alpha  occ. eigenvalues --  -11.27743 -11.27477 -11.26759 -11.26716 -11.22531
 Alpha  occ. eigenvalues --  -11.22008 -11.21978 -11.21803 -11.21744 -11.21063
 Alpha  occ. eigenvalues --   -1.59845  -1.39399  -1.19348  -1.08966  -1.08742
 Alpha  occ. eigenvalues --   -1.04752  -1.04041  -0.96472  -0.95581  -0.87488
 Alpha  occ. eigenvalues --   -0.86148  -0.82418  -0.80144  -0.78713  -0.77465
 Alpha  occ. eigenvalues --   -0.72041  -0.71168  -0.70457  -0.65670  -0.64997
 Alpha  occ. eigenvalues --   -0.64740  -0.62176  -0.61352  -0.59888  -0.58064
 Alpha  occ. eigenvalues --   -0.55760  -0.55241  -0.53182  -0.53080  -0.52899
 Alpha  occ. eigenvalues --   -0.52812  -0.50421  -0.48802  -0.48797  -0.48424
 Alpha  occ. eigenvalues --   -0.47189  -0.46256  -0.46146  -0.44806  -0.44282
 Alpha  occ. eigenvalues --   -0.37327  -0.36353
 Alpha virt. eigenvalues --    0.05068   0.11283   0.16549   0.18678   0.22917
 Alpha virt. eigenvalues --    0.23455   0.24758   0.26504   0.26956   0.28695
 Alpha virt. eigenvalues --    0.29684   0.30232   0.31146   0.31206   0.32153

 Mulliken charges:
               1
     1  C   -0.171837
     2  C   -0.226670
     3  C   -0.173986
     4  C    0.158738
     5  C   -0.171066
     6  C   -0.218443
     7  H    0.226313
     8  H    0.234957
     9  H    0.275242
    10  H    0.275538
    11  H    0.223357
    12  N    0.488095
    13  O   -0.460405
    14  O   -0.460810
    15  C   -0.299038
    16  C   -0.300199
    17  C   -0.477062
    18  H    0.148515
    19  H    0.151017
    20  H    0.154097
    21  H    0.151813
    22  H    0.154552
    23  H    0.160383
    24  H    0.161879
    25  C   -0.299191
    26  C   -0.303075
    27  C   -0.479316
    28  H    0.150666
    29  H    0.152752
    30  H    0.141829
    31  H    0.157568
    32  H    0.161537
    33  H    0.154185
    34  H    0.158066
 Sum of Mulliken charges =  -0.00000

 Dipole moment (field-independent basis, Debye):
    X=              0.7856    Y=              5.1325    Z=              0.2137  Tot=              5.1966
 Quadrupole moment (field-independent basis, Debye-Ang):
   XX=            -91.9279   YY=            -99.9679   ZZ=            -95.2707
   XY=            -14.9570   XZ=             -2.1992   YZ=             -0.4914

 Normal termination of Gaussian 16 at Thu May  6 06:10:03 2021.
