 Gaussian 16, Revision A.03,
 Gaussian 16:  EM64L-G16RevA.03 25-Dec-2016

 -------------
 #p 6-31g* mp2
 -------------

 ------------------------------------------------------
 Input file generated by CHIRIPA (05-May-2021 14:55:25)
 ------------------------------------------------------
 Symbolic Z-matrix:
 Charge =  0 Multiplicity = 1

                         Standard orientation:
 ---------------------------------------------------------------------
 Center     Atomic      Atomic             Coordinates (Angstroms)
 Number     Number       Type             X           Y           Z
 ---------------------------------------------------------------------
      1          6           0       -5.324666    0.115545   -0.532663
      2          6           0       -4.798536    0.658616    0.644105
      3          6           0       -3.479952    0.389369    1.022774
      4          6           0       -2.712207   -0.430726    0.197363
      5          6           0       -3.207733   -0.986668   -0.981056
      6          6           0       -4.528988   -0.703920   -1.340064
      7          1           0       -6.350011    0.329946   -0.819186
      8          1           0       -5.414157    1.295359    1.273083
      9          1           0       -3.047342    0.796679    1.928514
     10          1           0       -2.569679   -1.617856   -1.587610
     11          1           0       -4.934936   -1.127051   -2.254510
     12          7           0       -1.314868   -0.722912    0.587836
     13          8           0       -0.659061   -1.448414   -0.156611
     14          8           0       -0.901899   -0.220894    1.630943
     15          6           0        4.123980   -0.093639    0.169310
     16          6           0        5.480340   -0.420421   -0.456381
     17          6           0        6.183454   -1.589627    0.233820
     18          1           0        4.264724    0.138109    1.233936
     19          1           0        3.483434   -0.985368    0.125556
     20          1           0        6.117658    0.472068   -0.412708
     21          1           0        5.336376   -0.651230   -1.519686
     22          1           0        5.570375   -2.494963    0.178128
     23          1           0        6.356095   -1.365282    1.291395
     24          1           0        7.151125   -1.806163   -0.229414
     25          6           0        3.408834    1.073018   -0.509812
     26          6           0        2.052476    1.399800    0.115879
     27          6           0        1.349360    2.569006   -0.574322
     28          1           0        4.049380    1.964747   -0.466058
     29          1           0        3.268091    0.841269   -1.574438
     30          1           0        2.196439    1.630609    1.179184
     31          1           0        1.415158    0.507311    0.072207
     32          1           0        1.176719    2.344662   -1.631897
     33          1           0        1.962441    3.474342   -0.518630
     34          1           0        0.381690    2.785541   -0.111088
 ---------------------------------------------------------------------

 SCF Done:  E(RHF) =  -669.536565698     A.U. after   15 cycles
 E2 =    -0.2092099095D+01 EUMP2 =    -0.67162866479303D+03

 The electronic state is 1-A.
 Alpha  occ. eigenvalues --  -20.61072 -20.61063 -15.86058 -11.31351 -11.27904
 Alpha  occ. eigenvalues --  -11.27900 -11.27634 -11.26900 -11.26890 -11.20658
 Alpha  occ. eigenvalues --  -11.20243 -11.20189 -11.20130 -11.20073 -11.19965
 Alpha  occ. eigenvalues --   -1.60107  -1.39662  -1.19510  -1.08922  -1.07234
 Alpha  occ. eigenvalues --   -1.04899  -1.02408  -0.95770  -0.94924  -0.86301
 Alpha  occ. eigenvalues --   -0.85944  -0.82608  -0.78456  -0.77669  -0.77001
 Alpha  occ. eigenvalues --   -0.72274  -0.71421  -0.70619  -0.65165  -0.64904
 Alpha  occ. eigenvalues --   -0.63863  -0.62247  -0.59809  -0.58287  -0.56511
 Alpha  occ. eigenvalues --   -0.55406  -0.54232  -0.53232  -0.52990  -0.51657
 Alpha  occ. eigenvalues --   -0.51339  -0.49179  -0.49050  -0.48817  -0.46744
 Alpha  occ. eigenvalues --   -0.45446  -0.45080  -0.44561  -0.44367  -0.42657
 Alpha  occ. eigenvalues --   -0.37480  -0.36497
 Alpha virt. eigenvalues --    0.04817   0.11157   0.16322   0.21293   0.24029
 Alpha virt. eigenvalues --    0.25309   0.27217   0.27855   0.28152   0.28790
 Alpha virt. eigenvalues --    0.29048   0.30863   0.32256   0.32456   0.32903

 Mulliken charges:
               1
     1  C   -0.170344
     2  C   -0.218573
     3  C   -0.170871
     4  C    0.161089
     5  C   -0.170617
     6  C   -0.218581
     7  H    0.226251
     8  H    0.224081
     9  H    0.276011
    10  H    0.275801
    11  H    0.224026
    12  N    0.487038
    13  O   -0.460763
    14  O   -0.457331
    15  C   -0.299345
    16  C   -0.298736
    17  C   -0.475109
    18  H    0.148425
    19  H    0.159349
    20  H    0.148545
    21  H    0.149832
    22  H    0.156250
    23  H    0.154174
    24  H    0.156492
    25  C   -0.297232
    26  C   -0.307849
    27  C   -0.476399
    28  H    0.143021
    29  H    0.145894
    30  H    0.151372
    31  H    0.178264
    32  H    0.150277
    33  H    0.150370
    34  H    0.155187
 Sum of Mulliken charges =  -0.00000

 Dipole moment (field-independent basis, Debye):
    X=             -5.2736    Y=              0.8283    Z=             -1.2604  Tot=              5.4850
 Quadrupole moment (field-independent basis, Debye-Ang):
   XX=            -69.8131   YY=            -95.5397   ZZ=            -92.0094
   XY=             -0.6422   XZ=              2.6564   YZ=              4.4674

 Normal termination of Gaussian 16 at Thu May  6 16:05:42 2021.
