 Gaussian 16, Revision A.03,
 Gaussian 16:  EM64L-G16RevA.03 25-Dec-2016

 -------------
 #p 6-31g* mp2
 -------------

 ------------------------------------------------------
 Input file generated by CHIRIPA (05-May-2021 14:53:18)
 ------------------------------------------------------
 Symbolic Z-matrix:
 Charge =  0 Multiplicity = 1

                         Standard orientation:
 ---------------------------------------------------------------------
 Center     Atomic      Atomic             Coordinates (Angstroms)
 Number     Number       Type             X           Y           Z
 ---------------------------------------------------------------------
      1          6           0        4.249671    0.637304    0.029319
      2          6           0        3.582059    2.007900    0.146550
      3          6           0        4.565893    3.162840   -0.043133
      4          1           0        5.052953    0.562808    0.775062
      5          1           0        4.729063    0.553771   -0.955873
      6          1           0        3.102889    2.088292    1.130699
      7          1           0        2.780147    2.079069   -0.599432
      8          1           0        5.035489    3.110615   -1.030733
      9          1           0        5.360065    3.119891    0.709228
     10          1           0        4.067514    4.133288    0.044662
     11          6           0        3.279007   -0.527370    0.216597
     12          6           0        3.946620   -1.897967    0.099366
     13          6           0        2.962786   -3.052906    0.289049
     14          1           0        2.799616   -0.443837    1.201788
     15          1           0        2.475725   -0.452875   -0.529147
     16          1           0        4.748532   -1.969136    0.845347
     17          1           0        4.425789   -1.978359   -0.884784
     18          1           0        2.168614   -3.009958   -0.463312
     19          1           0        2.493190   -3.000682    1.276649
     20          1           0        3.461164   -4.023355    0.201254
     21          6           0       -0.899227   -1.456255   -0.543368
     22          6           0       -2.106222   -2.064310   -0.182878
     23          6           0       -3.243824   -1.291126    0.067310
     24          6           0       -3.138270    0.093691   -0.052817
     25          6           0       -1.950013    0.729022   -0.410153
     26          6           0       -0.825106   -0.063985   -0.655656
     27          1           0       -0.020441   -2.064582   -0.735900
     28          1           0       -2.166718   -3.145350   -0.094911
     29          1           0       -4.190859   -1.735822    0.348002
     30          1           0       -1.920605    1.808933   -0.489802
     31          1           0        0.110940    0.410969   -0.935448
     32          7           0       -4.335880    0.922719    0.209567
     33          8           0       -4.216800    2.140822    0.096946
     34          8           0       -5.370969    0.338711    0.522875
 ---------------------------------------------------------------------

 SCF Done:  E(RHF) =  -669.535176287     A.U. after   15 cycles
 E2 =    -0.2092224104D+01 EUMP2 =    -0.67162740039061D+03

 The electronic state is 1-A.
 Alpha  occ. eigenvalues --  -20.60690 -20.60684 -15.85742 -11.31084 -11.27654
 Alpha  occ. eigenvalues --  -11.27646 -11.27348 -11.26657 -11.26628 -11.22661
 Alpha  occ. eigenvalues --  -11.22527 -11.22452 -11.22316 -11.22265 -11.21702
 Alpha  occ. eigenvalues --   -1.59766  -1.39320  -1.19252  -1.09429  -1.08647
 Alpha  occ. eigenvalues --   -1.04653  -1.04485  -0.96944  -0.95490  -0.87958
 Alpha  occ. eigenvalues --   -0.86053  -0.82326  -0.80562  -0.79252  -0.77374
 Alpha  occ. eigenvalues --   -0.71961  -0.71089  -0.70378  -0.66078  -0.64901
 Alpha  occ. eigenvalues --   -0.64645  -0.62010  -0.61879  -0.60313  -0.58564
 Alpha  occ. eigenvalues --   -0.56292  -0.55139  -0.53605  -0.53341  -0.52984
 Alpha  occ. eigenvalues --   -0.52745  -0.50878  -0.48863  -0.48718  -0.48714
 Alpha  occ. eigenvalues --   -0.47589  -0.46774  -0.46666  -0.44740  -0.44731
 Alpha  occ. eigenvalues --   -0.37219  -0.36258
 Alpha virt. eigenvalues --    0.05155   0.11374   0.16638   0.18718   0.22103
 Alpha virt. eigenvalues --    0.22832   0.24670   0.25634   0.26249   0.28379
 Alpha virt. eigenvalues --    0.29194   0.30648   0.31019   0.31420   0.31909

 Mulliken charges:
               1
     1  C   -0.298921
     2  C   -0.300800
     3  C   -0.476319
     4  H    0.153768
     5  H    0.151361
     6  H    0.154931
     7  H    0.145876
     8  H    0.156406
     9  H    0.157621
    10  H    0.163208
    11  C   -0.301639
    12  C   -0.300233
    13  C   -0.479895
    14  H    0.154255
    15  H    0.140097
    16  H    0.157309
    17  H    0.154569
    18  H    0.145746
    19  H    0.159132
    20  H    0.166346
    21  C   -0.175913
    22  C   -0.221364
    23  C   -0.171023
    24  C    0.158368
    25  C   -0.171523
    26  C   -0.224658
    27  H    0.234927
    28  H    0.223544
    29  H    0.275152
    30  H    0.275351
    31  H    0.227878
    32  N    0.487944
    33  O   -0.460739
    34  O   -0.460760
 Sum of Mulliken charges =  -0.00000

 Dipole moment (field-independent basis, Debye):
    X=              4.5462    Y=             -2.9061    Z=             -0.8104  Tot=              5.4562
 Quadrupole moment (field-independent basis, Debye-Ang):
   XX=           -119.4769   YY=            -92.5835   ZZ=            -94.2893
   XY=             11.6029   XZ=              2.6612   YZ=             -0.8401

 Normal termination of Gaussian 16 at Wed May  5 18:48:50 2021.
