 Gaussian 16, Revision A.03,
 Gaussian 16:  EM64L-G16RevA.03 25-Dec-2016

 -------------
 #p 6-31g* mp2
 -------------

 ------------------------------------------------------
 Input file generated by CHIRIPA (05-May-2021 14:53:18)
 ------------------------------------------------------
 Symbolic Z-matrix:
 Charge =  0 Multiplicity = 1

                         Standard orientation:
 ---------------------------------------------------------------------
 Center     Atomic      Atomic             Coordinates (Angstroms)
 Number     Number       Type             X           Y           Z
 ---------------------------------------------------------------------
      1          6           0       -3.724756    0.850168    0.443435
      2          6           0       -2.385565    1.585372    0.506885
      3          6           0       -2.482998    2.930060    1.228076
      4          1           0       -4.461964    1.487397   -0.063919
      5          1           0       -4.097708    0.693205    1.465035
      6          1           0       -2.014581    1.739675   -0.514475
      7          1           0       -1.651409    0.946241    1.013978
      8          1           0       -2.829426    2.791007    2.257276
      9          1           0       -3.194661    3.588949    0.720138
     10          1           0       -1.514430    3.438579    1.261915
     11          6           0       -3.643517   -0.495790   -0.274567
     12          6           0       -4.982709   -1.230994   -0.338017
     13          6           0       -4.885276   -2.575682   -1.059207
     14          1           0       -3.270565   -0.338827   -1.296166
     15          1           0       -2.906309   -1.133019    0.232788
     16          1           0       -5.716864   -0.591863   -0.845109
     17          1           0       -5.353693   -1.385297    0.683344
     18          1           0       -4.173612   -3.234571   -0.551270
     19          1           0       -4.538847   -2.436629   -2.088407
     20          1           0       -5.853843   -3.084201   -1.093046
     21          6           0        2.394024    2.148858   -1.014534
     22          6           0        1.375729    1.419170   -0.392317
     23          6           0        1.632601    0.150876    0.136829
     24          6           0        2.925043   -0.359556    0.025740
     25          6           0        3.960708    0.342972   -0.588380
     26          6           0        3.680994    1.609381   -1.110411
     27          1           0        2.185607    3.133366   -1.422823
     28          1           0        0.375307    1.835632   -0.316418
     29          1           0        0.862901   -0.435623    0.623656
     30          1           0        4.948035   -0.098553   -0.648871
     31          1           0        4.473767    2.173802   -1.593095
     32          7           0        3.209073   -1.701244    0.582156
     33          8           0        4.356111   -2.128668    0.471480
     34          8           0        2.279279   -2.300030    1.118416
 ---------------------------------------------------------------------

 SCF Done:  E(RHF) =  -669.535233210     A.U. after   15 cycles
 E2 =    -0.2091980121D+01 EUMP2 =    -0.67162721333136D+03

 The electronic state is 1-A.
 Alpha  occ. eigenvalues --  -20.60707 -20.60702 -15.85758 -11.31097 -11.27663
 Alpha  occ. eigenvalues --  -11.27639 -11.27385 -11.26680 -11.26566 -11.22718
 Alpha  occ. eigenvalues --  -11.22084 -11.22026 -11.21929 -11.21851 -11.21240
 Alpha  occ. eigenvalues --   -1.59782  -1.39337  -1.19259  -1.09086  -1.08660
 Alpha  occ. eigenvalues --   -1.04662  -1.04169  -0.96577  -0.95503  -0.87594
 Alpha  occ. eigenvalues --   -0.86060  -0.82349  -0.80327  -0.78859  -0.77363
 Alpha  occ. eigenvalues --   -0.71978  -0.71104  -0.70378  -0.65711  -0.64908
 Alpha  occ. eigenvalues --   -0.64680  -0.62073  -0.61556  -0.59957  -0.58188
 Alpha  occ. eigenvalues --   -0.55827  -0.55159  -0.53306  -0.53018  -0.52967
 Alpha  occ. eigenvalues --   -0.52735  -0.50509  -0.48757  -0.48735  -0.48540
 Alpha  occ. eigenvalues --   -0.47339  -0.46371  -0.46264  -0.44748  -0.44406
 Alpha  occ. eigenvalues --   -0.37245  -0.36253
 Alpha virt. eigenvalues --    0.05138   0.11369   0.16614   0.19841   0.22595
 Alpha virt. eigenvalues --    0.23783   0.24415   0.25891   0.26720   0.28517
 Alpha virt. eigenvalues --    0.29533   0.30086   0.30996   0.31346   0.32082

 Mulliken charges:
               1
     1  C   -0.296547
     2  C   -0.310661
     3  C   -0.477294
     4  H    0.151998
     5  H    0.153651
     6  H    0.147115
     7  H    0.150917
     8  H    0.161749
     9  H    0.159013
    10  H    0.156454
    11  C   -0.300228
    12  C   -0.300275
    13  C   -0.476594
    14  H    0.149308
    15  H    0.151895
    16  H    0.151978
    17  H    0.153571
    18  H    0.158602
    19  H    0.155335
    20  H    0.161575
    21  C   -0.173146
    22  C   -0.227626
    23  C   -0.176947
    24  C    0.159228
    25  C   -0.171392
    26  C   -0.218432
    27  H    0.225441
    28  H    0.240915
    29  H    0.275771
    30  H    0.275157
    31  H    0.222881
    32  N    0.488337
    33  O   -0.460756
    34  O   -0.460996
 Sum of Mulliken charges =  -0.00000

 Dipole moment (field-independent basis, Debye):
    X=             -1.2682    Y=              4.6973    Z=             -1.9207  Tot=              5.2309
 Quadrupole moment (field-independent basis, Debye-Ang):
   XX=            -95.3201   YY=            -99.4301   ZZ=            -94.5745
   XY=             14.5689   XZ=             -7.5076   YZ=             -0.1477

 Normal termination of Gaussian 16 at Thu May  6 10:44:11 2021.
