 Gaussian 16, Revision A.03,
 Gaussian 16:  EM64L-G16RevA.03 25-Dec-2016

 -------------
 #p 6-31g* mp2
 -------------

 ------------------------------------------------------
 Input file generated by CHIRIPA (05-May-2021 14:51:12)
 ------------------------------------------------------
 Symbolic Z-matrix:
 Charge =  0 Multiplicity = 1

                         Standard orientation:
 ---------------------------------------------------------------------
 Center     Atomic      Atomic             Coordinates (Angstroms)
 Number     Number       Type             X           Y           Z
 ---------------------------------------------------------------------
      1          6           0       -3.208265    0.699661    0.093773
      2          6           0       -3.418652    2.181878   -0.217282
      3          6           0       -2.161004    3.019336    0.016771
      4          1           0       -2.884152    0.593105    1.138063
      5          1           0       -2.388881    0.314248   -0.528690
      6          1           0       -4.238314    2.564040    0.404587
      7          1           0       -3.742487    2.284903   -1.260897
      8          1           0       -1.339550    2.665520   -0.614600
      9          1           0       -1.838194    2.946243    1.060347
     10          1           0       -2.333793    4.075650   -0.211710
     11          6           0       -4.456598   -0.150567   -0.135365
     12          6           0       -4.246212   -1.632784    0.175690
     13          6           0       -5.503860   -2.470242   -0.058363
     14          1           0       -5.275982    0.234846    0.487098
     15          1           0       -4.780712   -0.044011   -1.179655
     16          1           0       -3.922377   -1.735810    1.219305
     17          1           0       -3.426549   -2.014947   -0.446179
     18          1           0       -5.826669   -2.397149   -1.101939
     19          1           0       -6.325314   -2.116426    0.573008
     20          1           0       -5.331070   -3.526557    0.170118
     21          6           0        4.499307    0.062279    0.179723
     22          6           0        5.710681   -0.724062   -0.322495
     23          6           0        7.037495   -0.037472    0.003009
     24          1           0        4.512533    1.067005   -0.264457
     25          1           0        4.585108    0.199835    1.266513
     26          1           0        5.621926   -0.861290   -1.407809
     27          1           0        5.694465   -1.727098    0.122783
     28          1           0        7.152379    0.085550    1.084798
     29          1           0        7.079429    0.956278   -0.454492
     30          1           0        7.890124   -0.616642   -0.365019
     31          6           0        3.165557   -0.611373   -0.138132
     32          6           0        1.954182    0.174969    0.364087
     33          6           0        0.627369   -0.511622    0.038584
     34          1           0        3.079756   -0.748928   -1.224921
     35          1           0        3.152331   -1.616098    0.306049
     36          1           0        1.970399    1.178005   -0.081192
     37          1           0        2.042937    0.312196    1.449401
     38          1           0        0.585435   -1.505371    0.496084
     39          1           0        0.512485   -0.634643   -1.043206
     40          1           0       -0.225261    0.067548    0.406610
 ---------------------------------------------------------------------

 SCF Done:  E(RHF) =  -470.732855400     A.U. after   11 cycles
 E2 =    -0.1583078360D+01 EUMP2 =    -0.47231593376053D+03

 The electronic state is 1-A.
 Alpha  occ. eigenvalues --  -11.21597 -11.21582 -11.21563 -11.21548 -11.21372
 Alpha  occ. eigenvalues --  -11.21369 -11.21312 -11.21304 -11.21087 -11.21055
 Alpha  occ. eigenvalues --  -11.21045 -11.20947  -1.08424  -1.08386  -1.03530
 Alpha  occ. eigenvalues --   -1.03478  -0.95980  -0.95929  -0.87016  -0.86934
 Alpha  occ. eigenvalues --   -0.79625  -0.79523  -0.78257  -0.78182  -0.65063
 Alpha  occ. eigenvalues --   -0.65011  -0.60942  -0.60864  -0.59484  -0.59187
 Alpha  occ. eigenvalues --   -0.57596  -0.57531  -0.55264  -0.55223  -0.52791
 Alpha  occ. eigenvalues --   -0.52624  -0.52379  -0.52302  -0.49929  -0.49868
 Alpha  occ. eigenvalues --   -0.47974  -0.47788  -0.46628  -0.46574  -0.45770
 Alpha  occ. eigenvalues --   -0.45760  -0.45703  -0.45650  -0.43775  -0.43621
 Alpha virt. eigenvalues --    0.21782   0.23063   0.23501   0.25035   0.26171
 Alpha virt. eigenvalues --    0.26665   0.26730   0.27251   0.28034   0.29300
 Alpha virt. eigenvalues --    0.30679   0.31267   0.31448   0.31749   0.32196

 Mulliken charges:
               1
     1  C   -0.304493
     2  C   -0.299043
     3  C   -0.477697
     4  H    0.149016
     5  H    0.157068
     6  H    0.151775
     7  H    0.151779
     8  H    0.156569
     9  H    0.155067
    10  H    0.160494
    11  C   -0.297610
    12  C   -0.299843
    13  C   -0.475685
    14  H    0.149197
    15  H    0.149419
    16  H    0.151817
    17  H    0.152766
    18  H    0.155068
    19  H    0.155034
    20  H    0.160200
    21  C   -0.298193
    22  C   -0.299580
    23  C   -0.475674
    24  H    0.149601
    25  H    0.149459
    26  H    0.151819
    27  H    0.151875
    28  H    0.155156
    29  H    0.155157
    30  H    0.160161
    31  C   -0.298380
    32  C   -0.299491
    33  C   -0.483394
    34  H    0.149180
    35  H    0.149517
    36  H    0.151835
    37  H    0.151665
    38  H    0.154659
    39  H    0.152830
    40  H    0.170902
 Sum of Mulliken charges =  -0.00000

 Dipole moment (field-independent basis, Debye):
    X=             -0.0279    Y=              0.0076    Z=              0.0008  Tot=              0.0290
 Quadrupole moment (field-independent basis, Debye-Ang):
   XX=            -86.6420   YY=            -85.2231   ZZ=            -83.0702
   XY=             -1.0440   XZ=             -0.4709   YZ=             -0.4691

 Normal termination of Gaussian 16 at Wed May  5 18:19:22 2021.
