 Gaussian 16, Revision A.03,
 Gaussian 16:  EM64L-G16RevA.03 25-Dec-2016

 -------------
 #p 6-31g* mp2
 -------------

 ------------------------------------------------------
 Input file generated by CHIRIPA (05-May-2021 14:57:25)
 ------------------------------------------------------
 Symbolic Z-matrix:
 Charge =  0 Multiplicity = 1

                         Standard orientation:
 ---------------------------------------------------------------------
 Center     Atomic      Atomic             Coordinates (Angstroms)
 Number     Number       Type             X           Y           Z
 ---------------------------------------------------------------------
      1          6           0        2.059088    2.751535    0.732221
      2          6           0        1.564545    1.698529    1.508833
      3          6           0        1.871088    0.373270    1.185925
      4          6           0        2.678588    0.136185    0.074609
      5          6           0        3.186525    1.163768   -0.718715
      6          6           0        2.867075    2.481270   -0.377119
      7          1           0        1.815946    3.778015    0.990322
      8          1           0        0.936822    1.905443    2.370921
      9          1           0        1.501651   -0.460949    1.769888
     10          1           0        3.809851    0.926138   -1.572187
     11          1           0        3.252551    3.297055   -0.982056
     12          7           0        3.009943   -1.262702   -0.277132
     13          8           0        3.723394   -1.445092   -1.261184
     14          8           0        2.549933   -2.150270    0.437886
     15          6           0       -4.614693    1.150513   -0.450257
     16          6           0       -4.505457    0.372028    0.706700
     17          6           0       -3.406821   -0.472201    0.893312
     18          6           0       -2.431522   -0.513421   -0.101868
     19          6           0       -2.511908    0.249966   -1.265513
     20          6           0       -3.619326    1.087109   -1.430943
     21          1           0       -5.471551    1.803578   -0.586994
     22          1           0       -5.276955    0.419239    1.469986
     23          1           0       -3.297153   -1.085675    1.779336
     24          1           0       -1.726847    0.181510   -2.008757
     25          1           0       -3.701528    1.690558   -2.330463
     26          7           0       -1.263796   -1.403417    0.084476
     27          8           0       -0.418059   -1.421670   -0.807168
     28          8           0       -1.216382   -2.065891    1.118651
 ---------------------------------------------------------------------

 SCF Done:  E(RHF) =  -868.336835270     A.U. after   16 cycles
 E2 =    -0.2602550788D+01 EUMP2 =    -0.87093938605752D+03

 The electronic state is 1-A.
 Alpha  occ. eigenvalues --  -20.60875 -20.60863 -20.59398 -20.59262 -15.85907
 Alpha  occ. eigenvalues --  -15.84391 -11.31370 -11.30174 -11.27958 -11.27932
 Alpha  occ. eigenvalues --  -11.27708 -11.26985 -11.26968 -11.26865 -11.26734
 Alpha  occ. eigenvalues --  -11.26725 -11.26007 -11.25969  -1.59926  -1.58376
 Alpha  occ. eigenvalues --   -1.39483  -1.37924  -1.19551  -1.18418  -1.08926
 Alpha  occ. eigenvalues --   -1.07743  -1.04965  -1.03907  -0.95743  -0.94507
 Alpha  occ. eigenvalues --   -0.86357  -0.85277  -0.82578  -0.81356  -0.77610
 Alpha  occ. eigenvalues --   -0.76300  -0.72149  -0.71322  -0.70662  -0.70632
 Alpha  occ. eigenvalues --   -0.69611  -0.69540  -0.65199  -0.64961  -0.64078
 Alpha  occ. eigenvalues --   -0.63933  -0.62306  -0.61232  -0.55457  -0.54433
 Alpha  occ. eigenvalues --   -0.53297  -0.53053  -0.52210  -0.52008  -0.48886
 Alpha  occ. eigenvalues --   -0.48855  -0.47440  -0.47331  -0.44896  -0.43184
 Alpha  occ. eigenvalues --   -0.37548  -0.36580  -0.36403  -0.35539
 Alpha virt. eigenvalues --    0.04870   0.06284   0.11077   0.12113   0.16355
 Alpha virt. eigenvalues --    0.17664   0.21223   0.22140   0.27132   0.27971
 Alpha virt. eigenvalues --    0.28146   0.29120   0.30772   0.31659   0.32360

 Mulliken charges:
               1
     1  C   -0.173099
     2  C   -0.222737
     3  C   -0.175899
     4  C    0.168833
     5  C   -0.172680
     6  C   -0.220270
     7  H    0.219851
     8  H    0.218813
     9  H    0.286059
    10  H    0.273350
    11  H    0.218526
    12  N    0.491880
    13  O   -0.469681
    14  O   -0.446201
    15  C   -0.171323
    16  C   -0.218952
    17  C   -0.172869
    18  C    0.158008
    19  C   -0.170254
    20  C   -0.219062
    21  H    0.225606
    22  H    0.223447
    23  H    0.275418
    24  H    0.277081
    25  H    0.223564
    26  N    0.486438
    27  O   -0.455510
    28  O   -0.458340
 Sum of Mulliken charges =  -0.00000

 Dipole moment (field-independent basis, Debye):
    X=             -5.4313    Y=              7.6229    Z=              0.5568  Tot=              9.3765
 Quadrupole moment (field-independent basis, Debye-Ang):
   XX=            -90.8187   YY=           -107.3808   ZZ=            -98.2153
   XY=              8.4048   XZ=              1.2279   YZ=             -2.6843

 Normal termination of Gaussian 16 at Thu May  6 08:16:25 2021.
