 Gaussian 16, Revision A.03,
 Gaussian 16:  EM64L-G16RevA.03 25-Dec-2016

 -------------
 #p 6-31g* mp2
 -------------

 ------------------------------------------------------
 Input file generated by CHIRIPA (05-May-2021 14:53:14)
 ------------------------------------------------------
 Symbolic Z-matrix:
 Charge =  0 Multiplicity = 1

                         Standard orientation:
 ---------------------------------------------------------------------
 Center     Atomic      Atomic             Coordinates (Angstroms)
 Number     Number       Type             X           Y           Z
 ---------------------------------------------------------------------
      1          6           0       -3.364931   -0.448905   -0.014327
      2          6           0       -2.907543   -1.654100    0.808040
      3          6           0       -1.401395   -1.898790    0.710887
      4          1           0       -3.083961   -0.602235   -1.065275
      5          1           0       -2.824544    0.445099    0.326457
      6          1           0       -3.449642   -2.545311    0.466738
      7          1           0       -3.189804   -1.497969    1.857119
      8          1           0       -0.845470   -1.026864    1.070462
      9          1           0       -1.106783   -2.080157   -0.327820
     10          1           0       -1.096150   -2.764926    1.306282
     11          6           0       -4.868220   -0.191453    0.072678
     12          6           0       -5.325608    1.013741   -0.749688
     13          6           0       -6.831756    1.258432   -0.652536
     14          1           0       -5.408606   -1.085457   -0.268105
     15          1           0       -5.149190   -0.038123    1.123626
     16          1           0       -5.043347    0.857611   -1.798768
     17          1           0       -4.783509    1.904953   -0.408387
     18          1           0       -7.126367    1.439798    0.386171
     19          1           0       -7.387681    0.386506   -1.012110
     20          1           0       -7.137000    2.124567   -1.247930
     21          6           0        2.895972    2.684447    0.558248
     22          6           0        1.987546    1.728271    1.024097
     23          6           0        2.155029    0.376677    0.708364
     24          6           0        3.247021    0.014800   -0.078966
     25          6           0        4.169260    0.943848   -0.558168
     26          6           0        3.982014    2.289878   -0.230008
     27          1           0        2.758191    3.732237    0.808344
     28          1           0        1.143192    2.031809    1.636449
     29          1           0        1.466892   -0.384397    1.055716
     30          1           0        5.001268    0.610820   -1.166670
     31          1           0        4.689096    3.030272   -0.593186
     32          7           0        3.434789   -1.413128   -0.419797
     33          8           0        4.405014   -1.706236   -1.115058
     34          8           0        2.608180   -2.212192    0.014775
 ---------------------------------------------------------------------

 SCF Done:  E(RHF) =  -669.535420318     A.U. after   15 cycles
 E2 =    -0.2091153349D+01 EUMP2 =    -0.67162657366645D+03

 The electronic state is 1-A.
 Alpha  occ. eigenvalues --  -20.60723 -20.60713 -15.85770 -11.31132 -11.27718
 Alpha  occ. eigenvalues --  -11.27673 -11.27468 -11.26735 -11.26724 -11.21752
 Alpha  occ. eigenvalues --  -11.21657 -11.21541 -11.21481 -11.21201 -11.21085
 Alpha  occ. eigenvalues --   -1.59794  -1.39346  -1.19314  -1.08712  -1.08551
 Alpha  occ. eigenvalues --   -1.04721  -1.03627  -0.96073  -0.95543  -0.87087
 Alpha  occ. eigenvalues --   -0.86116  -0.82377  -0.79692  -0.78372  -0.77415
 Alpha  occ. eigenvalues --   -0.71988  -0.71116  -0.70433  -0.65191  -0.64968
 Alpha  occ. eigenvalues --   -0.64732  -0.62103  -0.61014  -0.59426  -0.57680
 Alpha  occ. eigenvalues --   -0.55423  -0.55186  -0.53052  -0.52904  -0.52713
 Alpha  occ. eigenvalues --   -0.52417  -0.50017  -0.48750  -0.48739  -0.47998
 Alpha  occ. eigenvalues --   -0.46731  -0.45906  -0.45840  -0.44748  -0.43871
 Alpha  occ. eigenvalues --   -0.37301  -0.36320
 Alpha virt. eigenvalues --    0.05101   0.11319   0.16585   0.20668   0.22791
 Alpha virt. eigenvalues --    0.24076   0.25574   0.26720   0.27446   0.27868
 Alpha virt. eigenvalues --    0.29161   0.30613   0.31505   0.31696   0.32104

 Mulliken charges:
               1
     1  C   -0.297375
     2  C   -0.301220
     3  C   -0.472991
     4  H    0.151763
     5  H    0.143834
     6  H    0.154764
     7  H    0.150181
     8  H    0.138204
     9  H    0.164559
    10  H    0.168098
    11  C   -0.298272
    12  C   -0.299401
    13  C   -0.475729
    14  H    0.151111
    15  H    0.148986
    16  H    0.152804
    17  H    0.149698
    18  H    0.154865
    19  H    0.156177
    20  H    0.160147
    21  C   -0.170591
    22  C   -0.221027
    23  C   -0.177489
    24  C    0.157697
    25  C   -0.170395
    26  C   -0.218961
    27  H    0.225349
    28  H    0.222586
    29  H    0.287383
    30  H    0.275423
    31  H    0.223243
    32  N    0.487335
    33  O   -0.460817
    34  O   -0.459936
 Sum of Mulliken charges =  -0.00000

 Dipole moment (field-independent basis, Debye):
    X=             -0.7064    Y=              4.8955    Z=              1.1456  Tot=              5.0771
 Quadrupole moment (field-independent basis, Debye-Ang):
   XX=            -97.0966   YY=            -94.3131   ZZ=            -93.6638
   XY=             18.2592   XZ=              1.7009   YZ=             -0.5361

 Normal termination of Gaussian 16 at Wed May  5 23:27:30 2021.
