 Gaussian 16, Revision A.03,
 Gaussian 16:  EM64L-G16RevA.03 25-Dec-2016

 -------------
 #p 6-31g* mp2
 -------------

 ------------------------------------------------------
 Input file generated by CHIRIPA (05-May-2021 14:57:23)
 ------------------------------------------------------
 Symbolic Z-matrix:
 Charge =  0 Multiplicity = 1

                         Standard orientation:
 ---------------------------------------------------------------------
 Center     Atomic      Atomic             Coordinates (Angstroms)
 Number     Number       Type             X           Y           Z
 ---------------------------------------------------------------------
      1          6           0       -4.997586   -1.851869    0.943022
      2          6           0       -4.854633   -0.669988    1.677355
      3          6           0       -4.168356    0.422243    1.138279
      4          6           0       -3.635312    0.297421   -0.143740
      5          6           0       -3.761005   -0.866703   -0.900249
      6          6           0       -4.451279   -1.946288   -0.341172
      7          1           0       -5.532255   -2.695428    1.369558
      8          1           0       -5.277861   -0.593817    2.674912
      9          1           0       -4.042920    1.349050    1.684826
     10          1           0       -3.328140   -0.912666   -1.892183
     11          1           0       -4.560750   -2.862911   -0.913765
     12          7           0       -2.906666    1.447023   -0.725022
     13          8           0       -2.446315    1.311754   -1.856577
     14          8           0       -2.809700    2.461583   -0.038070
     15          6           0        1.272191    0.124705   -0.333447
     16          6           0        2.036426   -0.689868   -1.175431
     17          6           0        3.413083   -0.826212   -0.973504
     18          6           0        3.995470   -0.130445    0.084809
     19          6           0        3.260999    0.688700    0.940871
     20          6           0        1.885834    0.810180    0.720159
     21          1           0        0.203350    0.224846   -0.497605
     22          1           0        1.562545   -1.223402   -1.994469
     23          1           0        4.028512   -1.450149   -1.610187
     24          1           0        3.761651    1.208070    1.748968
     25          1           0        1.294812    1.443488    1.375643
     26          7           0        5.452085   -0.266919    0.308523
     27          8           0        5.941306    0.356592    1.247955
     28          8           0        6.076976   -0.994814   -0.459798
 ---------------------------------------------------------------------

 SCF Done:  E(RHF) =  -868.339014643     A.U. after   16 cycles
 E2 =    -0.2598908506D+01 EUMP2 =    -0.87093792314821D+03

 The electronic state is 1-A.
 Alpha  occ. eigenvalues --  -20.61978 -20.61967 -20.60374 -20.60368 -15.86996
 Alpha  occ. eigenvalues --  -15.85424 -11.32159 -11.30682 -11.28706 -11.28674
 Alpha  occ. eigenvalues --  -11.28352 -11.27638 -11.27618 -11.27260 -11.27238
 Alpha  occ. eigenvalues --  -11.26889 -11.26223 -11.26176  -1.61055  -1.59452
 Alpha  occ. eigenvalues --   -1.40607  -1.39008  -1.20302  -1.18839  -1.09730
 Alpha  occ. eigenvalues --   -1.08235  -1.05662  -1.04233  -0.96597  -0.95092
 Alpha  occ. eigenvalues --   -0.87069  -0.85623  -0.83426  -0.81936  -0.78513
 Alpha  occ. eigenvalues --   -0.77013  -0.73198  -0.72415  -0.71644  -0.71383
 Alpha  occ. eigenvalues --   -0.70774  -0.69887  -0.65943  -0.65645  -0.64485
 Alpha  occ. eigenvalues --   -0.64224  -0.63009  -0.61589  -0.56144  -0.54677
 Alpha  occ. eigenvalues --   -0.54012  -0.53739  -0.52560  -0.52318  -0.49983
 Alpha  occ. eigenvalues --   -0.49942  -0.48406  -0.48393  -0.46033  -0.44439
 Alpha  occ. eigenvalues --   -0.38263  -0.37258  -0.36778  -0.35845
 Alpha virt. eigenvalues --    0.03979   0.05530   0.10383   0.11821   0.15509
 Alpha virt. eigenvalues --    0.17061   0.20589   0.21871   0.26529   0.27346
 Alpha virt. eigenvalues --    0.27852   0.28289   0.30352   0.31231   0.31817

 Mulliken charges:
               1
     1  C   -0.169633
     2  C   -0.218085
     3  C   -0.171333
     4  C    0.154201
     5  C   -0.173645
     6  C   -0.217897
     7  H    0.229239
     8  H    0.226735
     9  H    0.276635
    10  H    0.274731
    11  H    0.226224
    12  N    0.485022
    13  O   -0.461769
    14  O   -0.456963
    15  C   -0.168901
    16  C   -0.219569
    17  C   -0.171644
    18  C    0.157733
    19  C   -0.171488
    20  C   -0.219284
    21  H    0.229530
    22  H    0.221968
    23  H    0.273558
    24  H    0.274167
    25  H    0.225967
    26  N    0.488202
    27  O   -0.461628
    28  O   -0.462073
 Sum of Mulliken charges =  -0.00000

 Dipole moment (field-independent basis, Debye):
    X=             -8.1106    Y=             -3.5842    Z=              1.3336  Tot=              8.9670
 Quadrupole moment (field-independent basis, Debye-Ang):
   XX=           -128.0378   YY=           -104.7645   ZZ=            -99.4359
   XY=             16.5448   XZ=            -12.2758   YZ=              6.6587

 Normal termination of Gaussian 16 at Thu May  6 14:37:10 2021.
