 Gaussian 16, Revision A.03,
 Gaussian 16:  EM64L-G16RevA.03 25-Dec-2016

 -------------
 #p 6-31g* mp2
 -------------

 ------------------------------------------------------
 Input file generated by CHIRIPA (05-May-2021 14:57:27)
 ------------------------------------------------------
 Symbolic Z-matrix:
 Charge =  0 Multiplicity = 1

                         Standard orientation:
 ---------------------------------------------------------------------
 Center     Atomic      Atomic             Coordinates (Angstroms)
 Number     Number       Type             X           Y           Z
 ---------------------------------------------------------------------
      1          6           0       -1.991634    2.275526    0.300968
      2          6           0       -2.696825    2.016755   -0.878975
      3          6           0       -3.434718    0.837832   -1.021105
      4          6           0       -3.445498   -0.064400    0.041510
      5          6           0       -2.753252    0.164854    1.229588
      6          6           0       -2.022045    1.350380    1.349635
      7          1           0       -1.421018    3.193906    0.402801
      8          1           0       -2.675013    2.733431   -1.695030
      9          1           0       -3.989789    0.612295   -1.923573
     10          1           0       -2.794019   -0.568581    2.025722
     11          1           0       -1.475342    1.548703    2.267148
     12          7           0       -4.223133   -1.315968   -0.097267
     13          8           0       -4.216569   -2.094780    0.853546
     14          8           0       -4.824484   -1.494438   -1.154227
     15          6           0        2.802391    2.328065   -0.051742
     16          6           0        4.130478    1.890038   -0.080731
     17          6           0        4.427544    0.523932   -0.087988
     18          6           0        3.367117   -0.380658   -0.065604
     19          6           0        2.033613    0.024572   -0.036518
     20          6           0        1.760035    1.395578   -0.029766
     21          1           0        2.580746    3.391193   -0.046301
     22          1           0        4.942010    2.611956   -0.097842
     23          1           0        5.446616    0.157307   -0.110250
     24          1           0        1.245982   -0.718920   -0.019937
     25          1           0        0.727674    1.732872   -0.007235
     26          7           0        3.669174   -1.829488   -0.073019
     27          8           0        2.716915   -2.606298   -0.052898
     28          8           0        4.852466   -2.160836   -0.098812
 ---------------------------------------------------------------------

 SCF Done:  E(RHF) =  -868.336390796     A.U. after   16 cycles
 E2 =    -0.2601559961D+01 EUMP2 =    -0.87093795075684D+03

 The electronic state is 1-A.
 Alpha  occ. eigenvalues --  -20.61257 -20.61248 -20.60956 -20.60947 -15.86316
 Alpha  occ. eigenvalues --  -15.86010 -11.31978 -11.31487 -11.28535 -11.28528
 Alpha  occ. eigenvalues --  -11.28434 -11.28063 -11.28046 -11.27884 -11.27689
 Alpha  occ. eigenvalues --  -11.27667 -11.27122 -11.27047  -1.60323  -1.60028
 Alpha  occ. eigenvalues --   -1.39868  -1.39578  -1.20191  -1.19674  -1.09569
 Alpha  occ. eigenvalues --   -1.09063  -1.05604  -1.05083  -0.96338  -0.95876
 Alpha  occ. eigenvalues --   -0.87002  -0.86494  -0.83138  -0.82694  -0.78106
 Alpha  occ. eigenvalues --   -0.77720  -0.72529  -0.72225  -0.71649  -0.71355
 Alpha  occ. eigenvalues --   -0.71347  -0.70815  -0.65840  -0.65606  -0.65326
 Alpha  occ. eigenvalues --   -0.65096  -0.62910  -0.62444  -0.56188  -0.55647
 Alpha  occ. eigenvalues --   -0.54057  -0.53678  -0.53424  -0.53041  -0.49312
 Alpha  occ. eigenvalues --   -0.49265  -0.48994  -0.48974  -0.45206  -0.44958
 Alpha  occ. eigenvalues --   -0.38217  -0.37698  -0.37225  -0.36668
 Alpha virt. eigenvalues --    0.04337   0.04808   0.10328   0.11000   0.15628
 Alpha virt. eigenvalues --    0.16274   0.19880   0.21722   0.26201   0.26623
 Alpha virt. eigenvalues --    0.27704   0.28672   0.30291   0.31160   0.31884

 Mulliken charges:
               1
     1  C   -0.185241
     2  C   -0.217356
     3  C   -0.170039
     4  C    0.160470
     5  C   -0.171216
     6  C   -0.220238
     7  H    0.222920
     8  H    0.226167
     9  H    0.279372
    10  H    0.280663
    11  H    0.227593
    12  N    0.488002
    13  O   -0.456189
    14  O   -0.457502
    15  C   -0.174264
    16  C   -0.218038
    17  C   -0.171050
    18  C    0.159441
    19  C   -0.175475
    20  C   -0.225899
    21  H    0.221247
    22  H    0.223716
    23  H    0.276669
    24  H    0.278216
    25  H    0.228131
    26  N    0.487823
    27  O   -0.458061
    28  O   -0.459860
 Sum of Mulliken charges =  -0.00000

 Dipole moment (field-independent basis, Debye):
    X=              1.3844    Y=              9.2667    Z=              0.4995  Tot=              9.3828
 Quadrupole moment (field-independent basis, Debye-Ang):
   XX=           -125.1810   YY=           -110.1807   ZZ=           -101.3247
   XY=              2.9890   XZ=             -0.0390   YZ=             -1.7865

 Normal termination of Gaussian 16 at Fri May  7 11:14:56 2021.
