 Gaussian 16, Revision A.03,
 Gaussian 16:  EM64L-G16RevA.03 25-Dec-2016

 -------------
 #p 6-31g* mp2
 -------------

 ------------------------------------------------------
 Input file generated by CHIRIPA (05-May-2021 14:57:23)
 ------------------------------------------------------
 Symbolic Z-matrix:
 Charge =  0 Multiplicity = 1

                         Standard orientation:
 ---------------------------------------------------------------------
 Center     Atomic      Atomic             Coordinates (Angstroms)
 Number     Number       Type             X           Y           Z
 ---------------------------------------------------------------------
      1          6           0       -3.303848    2.197124    0.776014
      2          6           0       -2.970077    1.911036   -0.551868
      3          6           0       -2.808745    0.588102   -0.974201
      4          6           0       -2.989517   -0.428719   -0.037886
      5          6           0       -3.322285   -0.175797    1.291996
      6          6           0       -3.478579    1.154632    1.692093
      7          1           0       -3.427218    3.227722    1.095456
      8          1           0       -2.833761    2.718629   -1.265490
      9          1           0       -2.550549    0.338285   -1.996133
     10          1           0       -3.451659   -1.002130    1.980367
     11          1           0       -3.737811    1.373841    2.723981
     12          7           0       -2.821388   -1.833218   -0.473221
     13          8           0       -2.986147   -2.711069    0.371095
     14          8           0       -2.528034   -2.029618   -1.650509
     15          6           0        1.595599    2.187868   -0.652168
     16          6           0        1.025358    0.912038   -0.592129
     17          6           0        1.803502   -0.198109   -0.250641
     18          6           0        3.154664    0.004795    0.025913
     19          6           0        3.751930    1.263336   -0.025424
     20          6           0        2.954668    2.359143   -0.369123
     21          1           0        0.983692    3.044687   -0.918303
     22          1           0       -0.029844    0.776040   -0.811441
     23          1           0        1.387737   -1.196930   -0.196677
     24          1           0        4.806647    1.367469    0.198510
     25          1           0        3.400219    3.348804   -0.414966
     26          7           0        3.988570   -1.162878    0.388601
     27          8           0        5.176548   -0.957579    0.627759
     28          8           0        3.438416   -2.261288    0.426852
 ---------------------------------------------------------------------

 SCF Done:  E(RHF) =  -868.336592269     A.U. after   16 cycles
 E2 =    -0.2601718337D+01 EUMP2 =    -0.87093831060638D+03

 The electronic state is 1-A.
 Alpha  occ. eigenvalues --  -20.61553 -20.61528 -20.60582 -20.60560 -15.86603
 Alpha  occ. eigenvalues --  -15.85627 -11.32176 -11.31068 -11.28779 -11.28675
 Alpha  occ. eigenvalues --  -11.28472 -11.27849 -11.27704 -11.27666 -11.27580
 Alpha  occ. eigenvalues --  -11.27470 -11.26737 -11.26580  -1.60623  -1.59649
 Alpha  occ. eigenvalues --   -1.40167  -1.39199  -1.20365  -1.19251  -1.09697
 Alpha  occ. eigenvalues --   -1.08653  -1.05789  -1.04654  -0.96501  -0.95470
 Alpha  occ. eigenvalues --   -0.87155  -0.86065  -0.83319  -0.82293  -0.78349
 Alpha  occ. eigenvalues --   -0.77316  -0.72799  -0.71973  -0.71844  -0.71413
 Alpha  occ. eigenvalues --   -0.70975  -0.70403  -0.65986  -0.65746  -0.64906
 Alpha  occ. eigenvalues --   -0.64704  -0.63099  -0.62016  -0.56220  -0.55249
 Alpha  occ. eigenvalues --   -0.54186  -0.53835  -0.52996  -0.52620  -0.49581
 Alpha  occ. eigenvalues --   -0.49552  -0.48613  -0.48592  -0.45521  -0.44587
 Alpha  occ. eigenvalues --   -0.38327  -0.37394  -0.37257  -0.36253
 Alpha virt. eigenvalues --    0.04144   0.05207   0.10149   0.11386   0.15591
 Alpha virt. eigenvalues --    0.16670   0.20249   0.21728   0.26121   0.27059
 Alpha virt. eigenvalues --    0.27920   0.28378   0.30009   0.30997   0.32059

 Mulliken charges:
               1
     1  C   -0.170226
     2  C   -0.219497
     3  C   -0.191831
     4  C    0.162386
     5  C   -0.169367
     6  C   -0.216387
     7  H    0.228422
     8  H    0.223851
     9  H    0.277978
    10  H    0.280407
    11  H    0.228238
    12  N    0.486724
    13  O   -0.454238
    14  O   -0.459865
    15  C   -0.174900
    16  C   -0.222570
    17  C   -0.174525
    18  C    0.158870
    19  C   -0.171742
    20  C   -0.218402
    21  H    0.218568
    22  H    0.231182
    23  H    0.281369
    24  H    0.275154
    25  H    0.221475
    26  N    0.487719
    27  O   -0.461866
    28  O   -0.456929
 Sum of Mulliken charges =  -0.00000

 Dipole moment (field-independent basis, Debye):
    X=             -3.8292    Y=              8.8687    Z=              0.4515  Tot=              9.6706
 Quadrupole moment (field-independent basis, Debye-Ang):
   XX=           -116.7160   YY=           -107.6341   ZZ=           -101.3872
   XY=              1.2728   XZ=             -9.9513   YZ=             -1.9185

 Normal termination of Gaussian 16 at Thu May  6 06:36:24 2021.
