 Gaussian 16, Revision A.03,
 Gaussian 16:  EM64L-G16RevA.03 25-Dec-2016

 -------------
 #p 6-31g* mp2
 -------------

 ------------------------------------------------------
 Input file generated by CHIRIPA (05-May-2021 14:53:15)
 ------------------------------------------------------
 Symbolic Z-matrix:
 Charge =  0 Multiplicity = 1

                         Standard orientation:
 ---------------------------------------------------------------------
 Center     Atomic      Atomic             Coordinates (Angstroms)
 Number     Number       Type             X           Y           Z
 ---------------------------------------------------------------------
      1          6           0       -3.523346   -1.003906    0.105199
      2          6           0       -2.049952   -1.362148    0.302068
      3          6           0       -1.830348   -2.858458    0.527068
      4          1           0       -4.094469   -1.331616    0.984614
      5          1           0       -3.918923   -1.566447   -0.751808
      6          1           0       -1.656904   -0.798054    1.157596
      7          1           0       -1.482240   -1.033375   -0.577834
      8          1           0       -2.195945   -3.434511   -0.329147
      9          1           0       -2.371603   -3.197853    1.416144
     10          1           0       -0.770145   -3.092278    0.665479
     11          6           0       -3.758984    0.488439   -0.120876
     12          6           0       -5.232378    0.846681   -0.317745
     13          6           0       -5.451982    2.342991   -0.542745
     14          1           0       -3.363407    1.050980    0.736131
     15          1           0       -3.187861    0.816149   -1.000291
     16          1           0       -5.800090    0.517908    0.562156
     17          1           0       -5.625425    0.282586   -1.173273
     18          1           0       -4.910727    2.682385   -1.431821
     19          1           0       -5.086385    2.919044    0.313469
     20          1           0       -6.512185    2.576811   -0.681156
     21          6           0        3.202191    2.657641    0.458618
     22          6           0        3.781858    2.061430   -0.666123
     23          6           0        3.590482    0.701283   -0.926744
     24          6           0        2.810095   -0.036110   -0.037621
     25          6           0        2.219309    0.529077    1.091460
     26          6           0        2.424139    1.890914    1.332279
     27          1           0        3.356082    3.714892    0.653383
     28          1           0        4.386585    2.654428   -1.346346
     29          1           0        4.027549    0.214274   -1.790001
     30          1           0        1.621549   -0.087895    1.751343
     31          1           0        1.972736    2.351273    2.206550
     32          7           0        2.600372   -1.476931   -0.303048
     33          8           0        1.908578   -2.104758    0.495633
     34          8           0        3.131758   -1.951138   -1.304743
 ---------------------------------------------------------------------

 SCF Done:  E(RHF) =  -669.536312638     A.U. after   15 cycles
 E2 =    -0.2091231927D+01 EUMP2 =    -0.67162754456553D+03

 The electronic state is 1-A.
 Alpha  occ. eigenvalues --  -20.60928 -20.60923 -15.85959 -11.31260 -11.27824
 Alpha  occ. eigenvalues --  -11.27818 -11.27560 -11.26829 -11.26818 -11.21462
 Alpha  occ. eigenvalues --  -11.21180 -11.21029 -11.21026 -11.20951 -11.19972
 Alpha  occ. eigenvalues --   -1.59984  -1.39542  -1.19427  -1.08836  -1.08089
 Alpha  occ. eigenvalues --   -1.04822  -1.03095  -0.95688  -0.95512  -0.86537
 Alpha  occ. eigenvalues --   -0.86223  -0.82517  -0.79196  -0.77895  -0.77569
 Alpha  occ. eigenvalues --   -0.72190  -0.71296  -0.70538  -0.65086  -0.64828
 Alpha  occ. eigenvalues --   -0.64731  -0.62171  -0.60510  -0.58913  -0.57097
 Alpha  occ. eigenvalues --   -0.55329  -0.54834  -0.53154  -0.52916  -0.52154
 Alpha  occ. eigenvalues --   -0.51939  -0.49496  -0.48946  -0.48930  -0.47482
 Alpha  occ. eigenvalues --   -0.46265  -0.45428  -0.45365  -0.44937  -0.43320
 Alpha  occ. eigenvalues --   -0.37405  -0.36420
 Alpha virt. eigenvalues --    0.04929   0.11219   0.16407   0.21169   0.23131
 Alpha virt. eigenvalues --    0.24568   0.26488   0.27212   0.27621   0.28253
 Alpha virt. eigenvalues --    0.28814   0.30677   0.31568   0.31911   0.32482

 Mulliken charges:
               1
     1  C   -0.297765
     2  C   -0.295426
     3  C   -0.486631
     4  H    0.148376
     5  H    0.150071
     6  H    0.143068
     7  H    0.150827
     8  H    0.152455
     9  H    0.148534
    10  H    0.188382
    11  C   -0.297183
    12  C   -0.299241
    13  C   -0.475293
    14  H    0.145404
    15  H    0.148720
    16  H    0.151693
    17  H    0.152624
    18  H    0.154470
    19  H    0.153174
    20  H    0.159922
    21  C   -0.170504
    22  C   -0.218627
    23  C   -0.170785
    24  C    0.157763
    25  C   -0.170134
    26  C   -0.218516
    27  H    0.225918
    28  H    0.223668
    29  H    0.275670
    30  H    0.276442
    31  H    0.223748
    32  N    0.490949
    33  O   -0.462836
    34  O   -0.458938
 Sum of Mulliken charges =  -0.00000

 Dipole moment (field-independent basis, Debye):
    X=              0.9603    Y=              4.9923    Z=              0.9040  Tot=              5.1636
 Quadrupole moment (field-independent basis, Debye-Ang):
   XX=            -90.2605   YY=            -96.6062   ZZ=            -90.7482
   XY=             15.0205   XZ=             -0.1582   YZ=             -0.1612

 Normal termination of Gaussian 16 at Thu May  6 04:16:49 2021.
