 Gaussian 16, Revision A.03,
 Gaussian 16:  EM64L-G16RevA.03 25-Dec-2016

 -------------
 #p 6-31g* mp2
 -------------

 ------------------------------------------------------
 Input file generated by CHIRIPA (05-May-2021 14:55:19)
 ------------------------------------------------------
 Symbolic Z-matrix:
 Charge =  0 Multiplicity = 1

                         Standard orientation:
 ---------------------------------------------------------------------
 Center     Atomic      Atomic             Coordinates (Angstroms)
 Number     Number       Type             X           Y           Z
 ---------------------------------------------------------------------
      1          6           0        3.653885    1.627948    0.368913
      2          6           0        2.372965    1.513497    0.919062
      3          6           0        1.637316    0.334517    0.766174
      4          6           0        2.215835   -0.714935    0.053955
      5          6           0        3.489732   -0.631472   -0.505964
      6          6           0        4.207205    0.556987   -0.340594
      7          1           0        4.218296    2.547490    0.492528
      8          1           0        1.940731    2.343595    1.470566
      9          1           0        0.643627    0.218942    1.181677
     10          1           0        3.894065   -1.476080   -1.050545
     11          1           0        5.201771    0.643044   -0.768938
     12          7           0        1.446657   -1.968085   -0.114507
     13          8           0        1.978740   -2.878195   -0.746350
     14          8           0        0.326257   -2.016467    0.388484
     15          6           0       -3.461122    0.099258   -0.360136
     16          6           0       -3.656636   -1.040228    0.640529
     17          6           0       -4.584583   -2.135861    0.114892
     18          1           0       -4.439564    0.533116   -0.607856
     19          1           0       -3.054493   -0.309317   -1.295611
     20          1           0       -4.061479   -0.629424    1.574317
     21          1           0       -2.677597   -1.471298    0.886042
     22          1           0       -4.182338   -2.572941   -0.804760
     23          1           0       -5.574081   -1.726284   -0.112575
     24          1           0       -4.710344   -2.940423    0.846141
     25          6           0       -2.535946    1.202247    0.150932
     26          6           0       -2.340432    2.341733   -0.849733
     27          6           0       -1.412484    3.437367   -0.324096
     28          1           0       -2.942575    1.610824    1.086408
     29          1           0       -1.557505    0.768389    0.398652
     30          1           0       -3.319471    2.772803   -1.095245
     31          1           0       -1.935590    1.930930   -1.783522
     32          1           0       -0.422987    3.027791   -0.096629
     33          1           0       -1.814730    3.874447    0.595557
     34          1           0       -1.286723    4.241929   -1.055344
 ---------------------------------------------------------------------

 SCF Done:  E(RHF) =  -669.535995336     A.U. after   15 cycles
 E2 =    -0.2092975998D+01 EUMP2 =    -0.67162897133358D+03

 The electronic state is 1-A.
 Alpha  occ. eigenvalues --  -20.60949 -20.60940 -15.85989 -11.31300 -11.27871
 Alpha  occ. eigenvalues --  -11.27854 -11.27597 -11.26873 -11.26860 -11.21637
 Alpha  occ. eigenvalues --  -11.21387 -11.21283 -11.20909 -11.20764 -11.20309
 Alpha  occ. eigenvalues --   -1.60010  -1.39567  -1.19474  -1.08875  -1.08134
 Alpha  occ. eigenvalues --   -1.04871  -1.03205  -0.95723  -0.95706  -0.86737
 Alpha  occ. eigenvalues --   -0.86264  -0.82553  -0.79335  -0.77941  -0.77554
 Alpha  occ. eigenvalues --   -0.72211  -0.71326  -0.70584  -0.65130  -0.64931
 Alpha  occ. eigenvalues --   -0.64707  -0.62219  -0.60572  -0.59128  -0.57298
 Alpha  occ. eigenvalues --   -0.55375  -0.55021  -0.53196  -0.52977  -0.52403
 Alpha  occ. eigenvalues --   -0.52115  -0.49657  -0.48971  -0.48961  -0.47635
 Alpha  occ. eigenvalues --   -0.46354  -0.45450  -0.45297  -0.44913  -0.43467
 Alpha  occ. eigenvalues --   -0.37445  -0.36447
 Alpha virt. eigenvalues --    0.04863   0.11113   0.16272   0.20298   0.23290
 Alpha virt. eigenvalues --    0.24454   0.25318   0.26804   0.27392   0.28348
 Alpha virt. eigenvalues --    0.29737   0.30905   0.31740   0.32148   0.32377

 Mulliken charges:
               1
     1  C   -0.170825
     2  C   -0.220952
     3  C   -0.174462
     4  C    0.156609
     5  C   -0.170302
     6  C   -0.218533
     7  H    0.226472
     8  H    0.226140
     9  H    0.283671
    10  H    0.275911
    11  H    0.223977
    12  N    0.491567
    13  O   -0.458910
    14  O   -0.465776
    15  C   -0.295994
    16  C   -0.308419
    17  C   -0.475185
    18  H    0.146751
    19  H    0.153257
    20  H    0.145716
    21  H    0.174120
    22  H    0.158682
    23  H    0.150204
    24  H    0.160474
    25  C   -0.304621
    26  C   -0.298646
    27  C   -0.478538
    28  H    0.147079
    29  H    0.150137
    30  H    0.153326
    31  H    0.154185
    32  H    0.147991
    33  H    0.153930
    34  H    0.160964
 Sum of Mulliken charges =  -0.00000

 Dipole moment (field-independent basis, Debye):
    X=              2.8384    Y=              4.2398    Z=              0.5479  Tot=              5.1316
 Quadrupole moment (field-independent basis, Debye-Ang):
   XX=            -80.0888   YY=           -101.5177   ZZ=            -93.8806
   XY=              5.5962   XZ=             -1.1325   YZ=              0.9783

 Normal termination of Gaussian 16 at Wed May  5 18:53:56 2021.
