 Gaussian 16, Revision A.03,
 Gaussian 16:  EM64L-G16RevA.03 25-Dec-2016

 -------------
 #p 6-31g* mp2
 -------------

 ------------------------------------------------------
 Input file generated by CHIRIPA (05-May-2021 14:53:15)
 ------------------------------------------------------
 Symbolic Z-matrix:
 Charge =  0 Multiplicity = 1

                         Standard orientation:
 ---------------------------------------------------------------------
 Center     Atomic      Atomic             Coordinates (Angstroms)
 Number     Number       Type             X           Y           Z
 ---------------------------------------------------------------------
      1          6           0        3.967256   -0.491096    0.134838
      2          6           0        4.423392    0.490372   -0.945275
      3          6           0        5.794082    0.137701   -1.523745
      4          1           0        4.712974   -0.511476    0.941333
      5          1           0        3.937644   -1.504376   -0.289169
      6          1           0        4.450805    1.501698   -0.519736
      7          1           0        3.676407    0.508561   -1.749202
      8          1           0        5.777091   -0.860130   -1.973906
      9          1           0        6.555888    0.138651   -0.737455
     10          1           0        6.100671    0.852216   -2.294025
     11          6           0        2.598702   -0.151827    0.722787
     12          6           0        2.142566   -1.133295    1.802901
     13          6           0        0.771876   -0.780624    2.381370
     14          1           0        2.628314    0.861453    1.146794
     15          1           0        1.852984   -0.131446   -0.083708
     16          1           0        2.889551   -1.151483    2.606828
     17          1           0        2.115154   -2.144621    1.377362
     18          1           0        0.010071   -0.781573    1.595080
     19          1           0        0.788868    0.217207    2.831532
     20          1           0        0.465287   -1.495139    3.151651
     21          6           0       -1.437646    2.452952    0.162399
     22          6           0       -0.726199    1.430281   -0.473610
     23          6           0       -1.340605    0.206210   -0.754152
     24          6           0       -2.673799    0.038278   -0.383098
     25          6           0       -3.409245    1.037978    0.251735
     26          6           0       -2.774542    2.253887    0.522407
     27          1           0       -0.952477    3.400671    0.376498
     28          1           0        0.312164    1.582065   -0.754341
     29          1           0       -0.813308   -0.602461   -1.245505
     30          1           0       -4.443153    0.857043    0.519526
     31          1           0       -3.329523    3.046330    1.016447
     32          7           0       -3.334987   -1.253271   -0.674870
     33          8           0       -4.510531   -1.376203   -0.337794
     34          8           0       -2.665162   -2.118197   -1.235114
 ---------------------------------------------------------------------

 SCF Done:  E(RHF) =  -669.534105095     A.U. after   15 cycles
 E2 =    -0.2093988831D+01 EUMP2 =    -0.67162809392595D+03

 The electronic state is 1-A.
 Alpha  occ. eigenvalues --  -20.60781 -20.60775 -15.85834 -11.31209 -11.27748
 Alpha  occ. eigenvalues --  -11.27743 -11.27470 -11.26777 -11.26712 -11.22222
 Alpha  occ. eigenvalues --  -11.22099 -11.21947 -11.21909 -11.21528 -11.21184
 Alpha  occ. eigenvalues --   -1.59856  -1.39410  -1.19372  -1.08987  -1.08752
 Alpha  occ. eigenvalues --   -1.04784  -1.03962  -0.96410  -0.95597  -0.87428
 Alpha  occ. eigenvalues --   -0.86163  -0.82443  -0.80046  -0.78871  -0.77457
 Alpha  occ. eigenvalues --   -0.72051  -0.71181  -0.70473  -0.65643  -0.65008
 Alpha  occ. eigenvalues --   -0.64766  -0.62148  -0.61350  -0.59785  -0.58047
 Alpha  occ. eigenvalues --   -0.55727  -0.55259  -0.53287  -0.53072  -0.52935
 Alpha  occ. eigenvalues --   -0.52594  -0.50342  -0.48811  -0.48807  -0.48329
 Alpha  occ. eigenvalues --   -0.47079  -0.46331  -0.46288  -0.44811  -0.44258
 Alpha  occ. eigenvalues --   -0.37336  -0.36265
 Alpha virt. eigenvalues --    0.05025   0.11199   0.16454   0.20179   0.22768
 Alpha virt. eigenvalues --    0.23921   0.24988   0.26085   0.27528   0.28206
 Alpha virt. eigenvalues --    0.29405   0.30812   0.31198   0.31561   0.31692

 Mulliken charges:
               1
     1  C   -0.298147
     2  C   -0.300213
     3  C   -0.475825
     4  H    0.152356
     5  H    0.153047
     6  H    0.149971
     7  H    0.147673
     8  H    0.157590
     9  H    0.156805
    10  H    0.161034
    11  C   -0.299827
    12  C   -0.300399
    13  C   -0.479602
    14  H    0.146253
    15  H    0.141207
    16  H    0.153126
    17  H    0.155895
    18  H    0.161783
    19  H    0.151158
    20  H    0.162741
    21  C   -0.172218
    22  C   -0.213111
    23  C   -0.178457
    24  C    0.161098
    25  C   -0.171374
    26  C   -0.217661
    27  H    0.225655
    28  H    0.228098
    29  H    0.275014
    30  H    0.275628
    31  H    0.223496
    32  N    0.488300
    33  O   -0.460117
    34  O   -0.460977
 Sum of Mulliken charges =  -0.00000

 Dipole moment (field-independent basis, Debye):
    X=              2.3820    Y=              4.5093    Z=              1.0665  Tot=              5.2101
 Quadrupole moment (field-independent basis, Debye-Ang):
   XX=           -104.0824   YY=            -93.9632   ZZ=            -95.1795
   XY=            -13.7228   XZ=             -4.8967   YZ=             -0.5672

 Normal termination of Gaussian 16 at Thu May  6 13:52:02 2021.
