 Gaussian 16, Revision A.03,
 Gaussian 16:  EM64L-G16RevA.03 25-Dec-2016

 -------------
 #p 6-31g* mp2
 -------------

 ------------------------------------------------------
 Input file generated by CHIRIPA (05-May-2021 14:53:11)
 ------------------------------------------------------
 Symbolic Z-matrix:
 Charge =  0 Multiplicity = 1

                         Standard orientation:
 ---------------------------------------------------------------------
 Center     Atomic      Atomic             Coordinates (Angstroms)
 Number     Number       Type             X           Y           Z
 ---------------------------------------------------------------------
      1          6           0        3.869154   -0.259430    0.439824
      2          6           0        4.324541   -1.285508   -0.598334
      3          6           0        4.997396   -2.505349    0.031785
      4          1           0        4.736441    0.063415    1.031879
      5          1           0        3.173932   -0.741425    1.141068
      6          1           0        5.017624   -0.801366   -1.298232
      7          1           0        3.456102   -1.605806   -1.188113
      8          1           0        4.310194   -3.014051    0.715581
      9          1           0        5.880588   -2.205040    0.604836
     10          1           0        5.315031   -3.225964   -0.728269
     11          6           0        3.194641    0.965762   -0.174719
     12          6           0        2.739253    1.991840    0.863439
     13          6           0        2.066399    3.211681    0.233321
     14          1           0        3.889862    1.447757   -0.875962
     15          1           0        2.327354    0.642917   -0.766774
     16          1           0        3.607692    2.312138    1.453218
     17          1           0        2.046171    1.507698    1.563338
     18          1           0        1.183207    2.911372   -0.339730
     19          1           0        2.753601    3.720383   -0.450475
     20          1           0        1.748763    3.932296    0.993375
     21          6           0       -5.249253   -0.180495    0.292581
     22          6           0       -4.592115    0.904594   -0.296716
     23          6           0       -3.212801    0.862740   -0.520961
     24          6           0       -2.518575   -0.285136   -0.141854
     25          6           0       -3.144786   -1.382412    0.447327
     26          6           0       -4.524768   -1.318528    0.662072
     27          1           0       -6.320997   -0.139426    0.463090
     28          1           0       -5.152207    1.789703   -0.584682
     29          1           0       -2.678908    1.688508   -0.975368
     30          1           0       -2.559564   -2.251064    0.723689
     31          1           0       -5.032473   -2.162719    1.119917
     32          7           0       -1.058003   -0.341105   -0.374223
     33          8           0       -0.469095   -1.363924   -0.031198
     34          8           0       -0.529769    0.638905   -0.894978
 ---------------------------------------------------------------------

 SCF Done:  E(RHF) =  -669.537039926     A.U. after   15 cycles
 E2 =    -0.2092278156D+01 EUMP2 =    -0.67162931808194D+03

 The electronic state is 1-A.
 Alpha  occ. eigenvalues --  -20.61243 -20.61230 -15.86231 -11.31449 -11.27995
 Alpha  occ. eigenvalues --  -11.27991 -11.27715 -11.26978 -11.26968 -11.20202
 Alpha  occ. eigenvalues --  -11.20092 -11.19944 -11.19817 -11.19605 -11.19463
 Alpha  occ. eigenvalues --   -1.60272  -1.39832  -1.19604  -1.09030  -1.06835
 Alpha  occ. eigenvalues --   -1.04983  -1.02088  -0.95888  -0.94537  -0.86389
 Alpha  occ. eigenvalues --   -0.85568  -0.82728  -0.78172  -0.77791  -0.76636
 Alpha  occ. eigenvalues --   -0.72456  -0.71570  -0.70712  -0.65263  -0.64988
 Alpha  occ. eigenvalues --   -0.63431  -0.62330  -0.59469  -0.57931  -0.56168
 Alpha  occ. eigenvalues --   -0.55493  -0.53800  -0.53319  -0.53073  -0.51317
 Alpha  occ. eigenvalues --   -0.50990  -0.49283  -0.49213  -0.48420  -0.46498
 Alpha  occ. eigenvalues --   -0.45297  -0.45124  -0.44208  -0.43930  -0.42298
 Alpha  occ. eigenvalues --   -0.37576  -0.36578
 Alpha virt. eigenvalues --    0.04711   0.11079   0.16212   0.21180   0.24490
 Alpha virt. eigenvalues --    0.25675   0.27133   0.27830   0.28401   0.29228
 Alpha virt. eigenvalues --    0.29365   0.30796   0.32067   0.32855   0.33069

 Mulliken charges:
               1
     1  C   -0.296483
     2  C   -0.299861
     3  C   -0.474977
     4  H    0.141279
     5  H    0.153358
     6  H    0.146737
     7  H    0.159953
     8  H    0.155378
     9  H    0.151008
    10  H    0.155803
    11  C   -0.309674
    12  C   -0.293597
    13  C   -0.483051
    14  H    0.139984
    15  H    0.180391
    16  H    0.143588
    17  H    0.149712
    18  H    0.172501
    19  H    0.149037
    20  H    0.149951
    21  C   -0.170194
    22  C   -0.218565
    23  C   -0.170228
    24  C    0.157511
    25  C   -0.170398
    26  C   -0.218623
    27  H    0.226623
    28  H    0.224512
    29  H    0.276106
    30  H    0.276086
    31  H    0.224379
    32  N    0.492038
    33  O   -0.458554
    34  O   -0.461730
 Sum of Mulliken charges =  -0.00000

 Dipole moment (field-independent basis, Debye):
    X=             -5.7089    Y=              0.0286    Z=              0.6840  Tot=              5.7498
 Quadrupole moment (field-independent basis, Debye-Ang):
   XX=            -70.5630   YY=            -92.3964   ZZ=            -95.2380
   XY=              1.3762   XZ=             -1.8971   YZ=             -2.4650

 Normal termination of Gaussian 16 at Thu May  6 02:30:48 2021.
