 Gaussian 16, Revision A.03,
 Gaussian 16:  EM64L-G16RevA.03 25-Dec-2016

 -------------
 #p 6-31g* mp2
 -------------

 ------------------------------------------------------
 Input file generated by CHIRIPA (05-May-2021 14:55:19)
 ------------------------------------------------------
 Symbolic Z-matrix:
 Charge =  0 Multiplicity = 1

                         Standard orientation:
 ---------------------------------------------------------------------
 Center     Atomic      Atomic             Coordinates (Angstroms)
 Number     Number       Type             X           Y           Z
 ---------------------------------------------------------------------
      1          6           0       -2.600396    2.609676    0.457691
      2          6           0       -3.910137    2.378332    0.024586
      3          6           0       -4.341405    1.081907   -0.271791
      4          6           0       -3.432427    0.035485   -0.123304
      5          6           0       -2.121115    0.233828    0.306127
      6          6           0       -1.711632    1.538574    0.596834
      7          1           0       -2.273838    3.620001    0.685722
      8          1           0       -4.602535    3.208245   -0.084385
      9          1           0       -5.349729    0.874440   -0.608923
     10          1           0       -1.453782   -0.613686    0.405150
     11          1           0       -0.693880    1.715265    0.932996
     12          7           0       -3.877460   -1.341387   -0.434063
     13          8           0       -3.057329   -2.246219   -0.295137
     14          8           0       -5.037980   -1.489674   -0.810679
     15          6           0        3.639313   -0.689945   -0.056270
     16          6           0        2.846561   -1.047279    1.201443
     17          6           0        1.528027   -1.755079    0.887945
     18          1           0        3.022190   -0.049723   -0.701419
     19          1           0        3.841029   -1.606992   -0.626998
     20          1           0        2.647596   -0.130003    1.770334
     21          1           0        3.465714   -1.686567    1.843763
     22          1           0        1.710873   -2.685461    0.340627
     23          1           0        0.888107   -1.120053    0.266780
     24          1           0        0.977522   -2.001335    1.801268
     25          6           0        4.959932    0.018177    0.240811
     26          6           0        5.752684    0.375510   -1.016901
     27          6           0        7.071218    1.083310   -0.703402
     28          1           0        4.758216    0.935223    0.811541
     29          1           0        5.577055   -0.622046    0.885962
     30          1           0        5.133531    1.014798   -1.659222
     31          1           0        5.951649   -0.541765   -1.585792
     32          1           0        7.711138    0.448284   -0.082237
     33          1           0        6.888372    2.013692   -0.156084
     34          1           0        7.621724    1.329566   -1.616727
 ---------------------------------------------------------------------

 SCF Done:  E(RHF) =  -669.535466990     A.U. after   15 cycles
 E2 =    -0.2091085953D+01 EUMP2 =    -0.67162655294285D+03

 The electronic state is 1-A.
 Alpha  occ. eigenvalues --  -20.60713 -20.60707 -15.85765 -11.31130 -11.27717
 Alpha  occ. eigenvalues --  -11.27663 -11.27469 -11.26737 -11.26723 -11.22089
 Alpha  occ. eigenvalues --  -11.21890 -11.21788 -11.21711 -11.21597 -11.21326
 Alpha  occ. eigenvalues --   -1.59788  -1.39341  -1.19313  -1.08816  -1.08711
 Alpha  occ. eigenvalues --   -1.04720  -1.03921  -0.96370  -0.95542  -0.87387
 Alpha  occ. eigenvalues --   -0.86115  -0.82375  -0.79982  -0.78616  -0.77416
 Alpha  occ. eigenvalues --   -0.71984  -0.71111  -0.70433  -0.65460  -0.64967
 Alpha  occ. eigenvalues --   -0.64729  -0.62134  -0.61278  -0.59728  -0.57965
 Alpha  occ. eigenvalues --   -0.55696  -0.55200  -0.53091  -0.53052  -0.52868
 Alpha  occ. eigenvalues --   -0.52683  -0.50302  -0.48744  -0.48736  -0.48287
 Alpha  occ. eigenvalues --   -0.47018  -0.46156  -0.46084  -0.44746  -0.44163
 Alpha  occ. eigenvalues --   -0.37302  -0.36322
 Alpha virt. eigenvalues --    0.05105   0.11320   0.16587   0.20096   0.22662
 Alpha virt. eigenvalues --    0.23802   0.25731   0.26424   0.27209   0.27949
 Alpha virt. eigenvalues --    0.29259   0.30141   0.31371   0.31539   0.32286

 Mulliken charges:
               1
     1  C   -0.170675
     2  C   -0.218958
     3  C   -0.170369
     4  C    0.159550
     5  C   -0.179975
     6  C   -0.221369
     7  H    0.225268
     8  H    0.223265
     9  H    0.275457
    10  H    0.286670
    11  H    0.223065
    12  N    0.487398
    13  O   -0.459767
    14  O   -0.460800
    15  C   -0.298649
    16  C   -0.300010
    17  C   -0.480096
    18  H    0.147723
    19  H    0.153034
    20  H    0.146579
    21  H    0.155703
    22  H    0.164858
    23  H    0.147144
    24  H    0.163580
    25  C   -0.298270
    26  C   -0.299876
    27  C   -0.475833
    28  H    0.147519
    29  H    0.151152
    30  H    0.151406
    31  H    0.153619
    32  H    0.156014
    33  H    0.154405
    34  H    0.161239
 Sum of Mulliken charges =  -0.00000

 Dipole moment (field-independent basis, Debye):
    X=              1.7087    Y=              4.7346    Z=              1.0885  Tot=              5.1499
 Quadrupole moment (field-independent basis, Debye-Ang):
   XX=           -101.8546   YY=            -93.4965   ZZ=            -95.6285
   XY=            -19.8144   XZ=             -2.8226   YZ=             -1.1515

 Normal termination of Gaussian 16 at Thu May  6 01:20:06 2021.
