 Gaussian 16, Revision A.03,
 Gaussian 16:  EM64L-G16RevA.03 25-Dec-2016

 -------------
 #p 6-31g* mp2
 -------------

 ------------------------------------------------------
 Input file generated by CHIRIPA (05-May-2021 14:53:13)
 ------------------------------------------------------
 Symbolic Z-matrix:
 Charge =  0 Multiplicity = 1

                         Standard orientation:
 ---------------------------------------------------------------------
 Center     Atomic      Atomic             Coordinates (Angstroms)
 Number     Number       Type             X           Y           Z
 ---------------------------------------------------------------------
      1          6           0        3.932702   -0.137865   -0.244963
      2          6           0        2.853267   -0.333037    0.820266
      3          6           0        1.448326   -0.437195    0.226055
      4          1           0        3.709108    0.769548   -0.822504
      5          1           0        3.894580   -0.976741   -0.953644
      6          1           0        2.894323    0.505250    1.527518
      7          1           0        3.079561   -1.239985    1.395463
      8          1           0        1.383966   -1.284257   -0.464557
      9          1           0        1.197675    0.470895   -0.331751
     10          1           0        0.692259   -0.576387    1.005059
     11          6           0        5.342610   -0.031992    0.333551
     12          6           0        6.422044    0.163180   -0.731678
     13          6           0        7.826985    0.267338   -0.137467
     14          1           0        5.380731    0.806884    1.042232
     15          1           0        5.566203   -0.939405    0.911092
     16          1           0        6.195750    1.070128   -1.306875
     17          1           0        6.380988   -0.675108   -1.438930
     18          1           0        8.077636   -0.640752    0.420340
     19          1           0        7.891345    1.114400    0.553145
     20          1           0        8.583052    0.406530   -0.916471
     21          6           0       -3.750436   -2.452790   -0.095071
     22          6           0       -2.518874   -1.818565    0.098673
     23          6           0       -2.436504   -0.423388    0.133930
     24          6           0       -3.610865    0.309892   -0.028759
     25          6           0       -4.852716   -0.292741   -0.223513
     26          6           0       -4.911380   -1.689200   -0.255263
     27          1           0       -3.805215   -3.537095   -0.121098
     28          1           0       -1.615635   -2.409036    0.223365
     29          1           0       -1.496145    0.093428    0.282399
     30          1           0       -5.735875    0.322675   -0.344807
     31          1           0       -5.869196   -2.179041   -0.405887
     32          7           0       -3.536212    1.787582    0.006710
     33          8           0       -4.585375    2.410972   -0.139158
     34          8           0       -2.429948    2.294426    0.179706
 ---------------------------------------------------------------------

 SCF Done:  E(RHF) =  -669.535571434     A.U. after   15 cycles
 E2 =    -0.2091309288D+01 EUMP2 =    -0.67162688072277D+03

 The electronic state is 1-A.
 Alpha  occ. eigenvalues --  -20.60696 -20.60691 -15.85745 -11.31067 -11.27661
 Alpha  occ. eigenvalues --  -11.27571 -11.27404 -11.26676 -11.26635 -11.22023
 Alpha  occ. eigenvalues --  -11.21798 -11.21726 -11.21653 -11.21546 -11.21160
 Alpha  occ. eigenvalues --   -1.59770  -1.39324  -1.19250  -1.08691  -1.08658
 Alpha  occ. eigenvalues --   -1.04651  -1.03844  -0.96330  -0.95493  -0.87367
 Alpha  occ. eigenvalues --   -0.86047  -0.82327  -0.79925  -0.78474  -0.77368
 Alpha  occ. eigenvalues --   -0.71967  -0.71092  -0.70372  -0.65313  -0.64906
 Alpha  occ. eigenvalues --   -0.64659  -0.62058  -0.61227  -0.59679  -0.57910
 Alpha  occ. eigenvalues --   -0.55600  -0.55172  -0.53130  -0.52993  -0.52735
 Alpha  occ. eigenvalues --   -0.52634  -0.50236  -0.48721  -0.48720  -0.48226
 Alpha  occ. eigenvalues --   -0.46909  -0.46026  -0.45924  -0.44738  -0.44094
 Alpha  occ. eigenvalues --   -0.37244  -0.36249
 Alpha virt. eigenvalues --    0.05142   0.11391   0.16626   0.20553   0.22737
 Alpha virt. eigenvalues --    0.23940   0.25923   0.26347   0.27299   0.28068
 Alpha virt. eigenvalues --    0.29329   0.30097   0.31330   0.31574   0.32185

 Mulliken charges:
               1
     1  C   -0.299641
     2  C   -0.298814
     3  C   -0.485997
     4  H    0.153292
     5  H    0.148571
     6  H    0.157506
     7  H    0.151349
     8  H    0.152910
     9  H    0.166728
    10  H    0.153568
    11  C   -0.298827
    12  C   -0.299974
    13  C   -0.475912
    14  H    0.151395
    15  H    0.149130
    16  H    0.153440
    17  H    0.151481
    18  H    0.154832
    19  H    0.156090
    20  H    0.160864
    21  C   -0.170664
    22  C   -0.222618
    23  C   -0.179803
    24  C    0.159578
    25  C   -0.170430
    26  C   -0.219100
    27  H    0.225035
    28  H    0.224484
    29  H    0.287353
    30  H    0.275128
    31  H    0.222966
    32  N    0.487788
    33  O   -0.460820
    34  O   -0.460886
 Sum of Mulliken charges =  -0.00000

 Dipole moment (field-independent basis, Debye):
    X=             -0.0555    Y=             -5.1329    Z=             -0.1385  Tot=              5.1350
 Quadrupole moment (field-independent basis, Debye-Ang):
   XX=            -88.7405   YY=            -97.6654   ZZ=            -95.6333
   XY=             18.6051   XZ=              1.0329   YZ=              0.1413

 Normal termination of Gaussian 16 at Thu May  6 17:04:41 2021.
