 Gaussian 16, Revision A.03,
 Gaussian 16:  EM64L-G16RevA.03 25-Dec-2016

 -------------
 #p 6-31g* mp2
 -------------

 ------------------------------------------------------
 Input file generated by CHIRIPA (05-May-2021 14:53:12)
 ------------------------------------------------------
 Symbolic Z-matrix:
 Charge =  0 Multiplicity = 1

                         Standard orientation:
 ---------------------------------------------------------------------
 Center     Atomic      Atomic             Coordinates (Angstroms)
 Number     Number       Type             X           Y           Z
 ---------------------------------------------------------------------
      1          6           0        2.260414    0.764171   -0.194729
      2          6           0        2.746561    2.137330   -0.659576
      3          6           0        1.635249    3.187452   -0.664257
      4          1           0        1.442289    0.431403   -0.848091
      5          1           0        1.836663    0.855442    0.814973
      6          1           0        3.170527    2.043235   -1.667552
      7          1           0        3.563753    2.466783   -0.005150
      8          1           0        1.217407    3.310645    0.340150
      9          1           0        0.821947    2.884691   -1.331698
     10          1           0        2.004718    4.161491   -0.999817
     11          6           0        3.359984   -0.296287   -0.184638
     12          6           0        2.873837   -1.669446    0.280209
     13          6           0        3.985150   -2.719568    0.284889
     14          1           0        3.783735   -0.387558   -1.194341
     15          1           0        4.178110    0.036481    0.468723
     16          1           0        2.056646   -1.998899   -0.374218
     17          1           0        2.449871   -1.575351    1.288184
     18          1           0        4.798451   -2.416807    0.952330
     19          1           0        4.402992   -2.842761   -0.719518
     20          1           0        3.615680   -3.693607    0.620449
     21          6           0       -2.541285   -2.590148   -0.523265
     22          6           0       -3.460393   -1.613583   -0.920858
     23          6           0       -3.278839   -0.276630   -0.554601
     24          6           0       -2.162036    0.049969    0.213104
     25          6           0       -1.228620   -0.900076    0.624734
     26          6           0       -1.430291   -2.230912    0.246905
     27          1           0       -2.690134   -3.626349   -0.812277
     28          1           0       -4.324121   -1.889674   -1.519016
     29          1           0       -3.974778    0.499628   -0.848731
     30          1           0       -0.377254   -0.594334    1.220650
     31          1           0       -0.714864   -2.987204    0.557116
     32          7           0       -1.959185    1.462103    0.606970
     33          8           0       -0.967140    1.724071    1.283621
     34          8           0       -2.796076    2.280227    0.231573
 ---------------------------------------------------------------------

 SCF Done:  E(RHF) =  -669.535795241     A.U. after   15 cycles
 E2 =    -0.2094221062D+01 EUMP2 =    -0.67163001630237D+03

 The electronic state is 1-A.
 Alpha  occ. eigenvalues --  -20.60890 -20.60861 -15.85896 -11.31197 -11.27779
 Alpha  occ. eigenvalues --  -11.27728 -11.27510 -11.26777 -11.26742 -11.21991
 Alpha  occ. eigenvalues --  -11.21410 -11.21332 -11.20987 -11.20927 -11.19890
 Alpha  occ. eigenvalues --   -1.59929  -1.39489  -1.19373  -1.08782  -1.08264
 Alpha  occ. eigenvalues --   -1.04761  -1.03268  -0.95670  -0.95627  -0.86691
 Alpha  occ. eigenvalues --   -0.86160  -0.82467  -0.79449  -0.78111  -0.77393
 Alpha  occ. eigenvalues --   -0.72133  -0.71235  -0.70480  -0.65044  -0.64903
 Alpha  occ. eigenvalues --   -0.64742  -0.62111  -0.60662  -0.59167  -0.57275
 Alpha  occ. eigenvalues --   -0.55277  -0.54932  -0.53110  -0.52867  -0.52403
 Alpha  occ. eigenvalues --   -0.52066  -0.49651  -0.48887  -0.48840  -0.47700
 Alpha  occ. eigenvalues --   -0.46502  -0.45710  -0.45399  -0.44567  -0.43519
 Alpha  occ. eigenvalues --   -0.37354  -0.36336
 Alpha virt. eigenvalues --    0.04975   0.11234   0.16366   0.20463   0.23135
 Alpha virt. eigenvalues --    0.24475   0.24993   0.26421   0.27919   0.28350
 Alpha virt. eigenvalues --    0.29664   0.30927   0.31758   0.31876   0.32374

 Mulliken charges:
               1
     1  C   -0.304924
     2  C   -0.300090
     3  C   -0.477718
     4  H    0.145097
     5  H    0.161578
     6  H    0.147195
     7  H    0.149890
     8  H    0.179069
     9  H    0.150254
    10  H    0.154395
    11  C   -0.296932
    12  C   -0.304150
    13  C   -0.474673
    14  H    0.149389
    15  H    0.151017
    16  H    0.148092
    17  H    0.146198
    18  H    0.158137
    19  H    0.157047
    20  H    0.156074
    21  C   -0.170619
    22  C   -0.218982
    23  C   -0.170509
    24  C    0.155657
    25  C   -0.169186
    26  C   -0.222091
    27  H    0.225685
    28  H    0.223402
    29  H    0.275493
    30  H    0.281250
    31  H    0.225557
    32  N    0.489738
    33  O   -0.460888
    34  O   -0.459453
 Sum of Mulliken charges =  -0.00000

 Dipole moment (field-independent basis, Debye):
    X=             -0.8166    Y=             -4.8180    Z=             -1.2726  Tot=              5.0497
 Quadrupole moment (field-independent basis, Debye-Ang):
   XX=            -88.9529   YY=            -96.1584   ZZ=            -94.0585
   XY=             10.3184   XZ=              5.6599   YZ=             -1.1251

 Normal termination of Gaussian 16 at Thu May  6 13:41:08 2021.
