 Gaussian 16, Revision A.03,
 Gaussian 16:  EM64L-G16RevA.03 25-Dec-2016

 -------------
 #p 6-31g* mp2
 -------------

 ------------------------------------------------------
 Input file generated by CHIRIPA (05-May-2021 14:51:14)
 ------------------------------------------------------
 Symbolic Z-matrix:
 Charge =  0 Multiplicity = 1

                         Standard orientation:
 ---------------------------------------------------------------------
 Center     Atomic      Atomic             Coordinates (Angstroms)
 Number     Number       Type             X           Y           Z
 ---------------------------------------------------------------------
      1          6           0        4.052711   -0.661208    0.298362
      2          6           0        5.010707   -0.790352   -0.886353
      3          6           0        5.812499   -2.091959   -0.859081
      4          1           0        4.626099   -0.720796    1.233574
      5          1           0        3.363889   -1.517315    0.298958
      6          1           0        5.696624    0.066464   -0.885513
      7          1           0        4.434995   -0.730257   -1.818855
      8          1           0        5.142687   -2.957610   -0.883576
      9          1           0        6.411484   -2.156362    0.055069
     10          1           0        6.490898   -2.163594   -1.714945
     11          6           0        3.244085    0.634815    0.285094
     12          6           0        2.286088    0.763960    1.469809
     13          6           0        1.484297    2.065566    1.442537
     14          1           0        3.932906    1.490923    0.284499
     15          1           0        2.670697    0.694404   -0.650117
     16          1           0        2.861801    0.703865    2.402311
     17          1           0        1.600172   -0.092856    1.468969
     18          1           0        0.885311    2.129970    0.528387
     19          1           0        2.154109    2.931218    1.467033
     20          1           0        0.805898    2.137202    2.298402
     21          6           0       -4.255020   -0.441545   -0.384743
     22          6           0       -4.338527   -1.561009    0.653434
     23          6           0       -5.557439   -2.462311    0.454178
     24          1           0       -5.171292    0.162744   -0.337541
     25          1           0       -4.224219   -0.884591   -1.389808
     26          1           0       -4.367766   -1.116027    1.656306
     27          1           0       -3.421867   -2.162587    0.603886
     28          1           0       -5.531001   -2.933156   -0.533854
     29          1           0       -6.482275   -1.880650    0.524546
     30          1           0       -5.597496   -3.255643    1.207091
     31          6           0       -3.041775    0.467937   -0.198714
     32          6           0       -2.958269    1.587402   -1.236891
     33          6           0       -1.739356    2.488703   -1.037635
     34          1           0       -3.072575    0.910983    0.806351
     35          1           0       -2.125504   -0.136351   -0.245916
     36          1           0       -3.874928    2.188979   -1.187343
     37          1           0       -2.929029    1.142419   -2.239763
     38          1           0       -0.814521    1.907042   -1.108002
     39          1           0       -1.765793    2.959548   -0.049603
     40          1           0       -1.699300    3.282036   -1.790548
 ---------------------------------------------------------------------

 SCF Done:  E(RHF) =  -470.733015638     A.U. after   11 cycles
 E2 =    -0.1582605273D+01 EUMP2 =    -0.47231562091179D+03

 The electronic state is 1-A.
 Alpha  occ. eigenvalues --  -11.21629 -11.21620 -11.21593 -11.21542 -11.21428
 Alpha  occ. eigenvalues --  -11.21386 -11.21369 -11.21326 -11.21096 -11.21086
 Alpha  occ. eigenvalues --  -11.21066 -11.20914  -1.08455  -1.08401  -1.03564
 Alpha  occ. eigenvalues --   -1.03480  -0.96030  -0.95913  -0.87070  -0.86909
 Alpha  occ. eigenvalues --   -0.79671  -0.79504  -0.78273  -0.78208  -0.65096
 Alpha  occ. eigenvalues --   -0.65026  -0.61003  -0.60857  -0.59371  -0.59304
 Alpha  occ. eigenvalues --   -0.57697  -0.57493  -0.55363  -0.55171  -0.52709
 Alpha  occ. eigenvalues --   -0.52651  -0.52555  -0.52217  -0.50021  -0.49809
 Alpha  occ. eigenvalues --   -0.48053  -0.47738  -0.46688  -0.46522  -0.45854
 Alpha  occ. eigenvalues --   -0.45737  -0.45711  -0.45612  -0.43809  -0.43746
 Alpha virt. eigenvalues --    0.21668   0.23094   0.23611   0.24961   0.26042
 Alpha virt. eigenvalues --    0.26628   0.27093   0.27500   0.27841   0.29188
 Alpha virt. eigenvalues --    0.30341   0.31322   0.31754   0.31905   0.32235

 Mulliken charges:
               1
     1  C   -0.298206
     2  C   -0.299613
     3  C   -0.475679
     4  H    0.149754
     5  H    0.149236
     6  H    0.151993
     7  H    0.151763
     8  H    0.155070
     9  H    0.155211
    10  H    0.160212
    11  C   -0.298124
    12  C   -0.299524
    13  C   -0.482361
    14  H    0.149711
    15  H    0.148574
    16  H    0.151594
    17  H    0.151332
    18  H    0.164221
    19  H    0.154342
    20  H    0.159205
    21  C   -0.298299
    22  C   -0.299628
    23  C   -0.475723
    24  H    0.149778
    25  H    0.149475
    26  H    0.152046
    27  H    0.151791
    28  H    0.155170
    29  H    0.155243
    30  H    0.160317
    31  C   -0.298099
    32  C   -0.299821
    33  C   -0.478672
    34  H    0.149943
    35  H    0.149048
    36  H    0.152153
    37  H    0.151765
    38  H    0.156518
    39  H    0.157680
    40  H    0.160606
 Sum of Mulliken charges =  -0.00000

 Dipole moment (field-independent basis, Debye):
    X=             -0.0405    Y=              0.0228    Z=             -0.0128  Tot=              0.0483
 Quadrupole moment (field-independent basis, Debye-Ang):
   XX=            -85.0745   YY=            -85.5052   ZZ=            -84.1895
   XY=             -0.0828   XZ=              0.0911   YZ=              0.4875

 Normal termination of Gaussian 16 at Wed May  5 23:15:57 2021.
