 Gaussian 16, Revision A.03,
 Gaussian 16:  EM64L-G16RevA.03 25-Dec-2016

 -------------
 #p 6-31g* mp2
 -------------

 ------------------------------------------------------
 Input file generated by CHIRIPA (05-May-2021 14:57:25)
 ------------------------------------------------------
 Symbolic Z-matrix:
 Charge =  0 Multiplicity = 1

                         Standard orientation:
 ---------------------------------------------------------------------
 Center     Atomic      Atomic             Coordinates (Angstroms)
 Number     Number       Type             X           Y           Z
 ---------------------------------------------------------------------
      1          6           0       -1.874704   -1.115676    1.275334
      2          6           0       -3.188706   -1.333315    1.702596
      3          6           0       -4.259376   -0.716749    1.048333
      4          6           0       -3.978502    0.115040   -0.034499
      5          6           0       -2.680323    0.351709   -0.483954
      6          6           0       -1.625146   -0.275340    0.185344
      7          1           0       -1.048999   -1.598711    1.789421
      8          1           0       -3.385497   -1.985426    2.548805
      9          1           0       -5.286333   -0.867741    1.358139
     10          1           0       -2.515566    1.007085   -1.330568
     11          1           0       -0.605692   -0.104485   -0.148671
     12          7           0       -5.103771    0.773320   -0.735096
     13          8           0       -4.829799    1.501637   -1.686480
     14          8           0       -6.238423    0.548498   -0.319575
     15          6           0        4.675246    2.221023    0.709960
     16          6           0        5.479967    1.387861   -0.074122
     17          6           0        5.001551    0.151465   -0.517959
     18          6           0        3.707755   -0.221901   -0.157432
     19          6           0        2.881796    0.586024    0.622528
     20          6           0        3.381011    1.818155    1.055175
     21          1           0        5.054970    3.179830    1.050397
     22          1           0        6.485487    1.698142   -0.343754
     23          1           0        5.603190   -0.513107   -1.126065
     24          1           0        1.883651    0.249413    0.875150
     25          1           0        2.753816    2.463150    1.663989
     26          7           0        3.190269   -1.528561   -0.621379
     27          8           0        2.046881   -1.834443   -0.290111
     28          8           0        3.937849   -2.222098   -1.307504
 ---------------------------------------------------------------------

 SCF Done:  E(RHF) =  -868.338895626     A.U. after   16 cycles
 E2 =    -0.2599337906D+01 EUMP2 =    -0.87093823353204D+03

 The electronic state is 1-A.
 Alpha  occ. eigenvalues --  -20.61796 -20.61729 -20.60506 -20.60500 -15.86799
 Alpha  occ. eigenvalues --  -15.85556 -11.32038 -11.30840 -11.28664 -11.28518
 Alpha  occ. eigenvalues --  -11.28231 -11.27565 -11.27504 -11.27410 -11.27394
 Alpha  occ. eigenvalues --  -11.27060 -11.26388 -11.26331  -1.60819  -1.59583
 Alpha  occ. eigenvalues --   -1.40386  -1.39139  -1.20178  -1.18997  -1.09583
 Alpha  occ. eigenvalues --   -1.08392  -1.05564  -1.04391  -0.96450  -0.95244
 Alpha  occ. eigenvalues --   -0.86968  -0.85782  -0.83291  -0.82084  -0.78380
 Alpha  occ. eigenvalues --   -0.77153  -0.73024  -0.72128  -0.71775  -0.71282
 Alpha  occ. eigenvalues --   -0.70906  -0.70067  -0.65832  -0.65568  -0.64641
 Alpha  occ. eigenvalues --   -0.64380  -0.62928  -0.61729  -0.56036  -0.54839
 Alpha  occ. eigenvalues --   -0.53888  -0.53659  -0.52721  -0.52464  -0.49793
 Alpha  occ. eigenvalues --   -0.49743  -0.48536  -0.48525  -0.45810  -0.44563
 Alpha  occ. eigenvalues --   -0.38122  -0.37158  -0.36950  -0.36001
 Alpha virt. eigenvalues --    0.04133   0.05380   0.10457   0.11623   0.15698
 Alpha virt. eigenvalues --    0.16903   0.19351   0.21922   0.25343   0.27046
 Alpha virt. eigenvalues --    0.28358   0.28892   0.30733   0.31130   0.31961

 Mulliken charges:
               1
     1  C   -0.171780
     2  C   -0.219068
     3  C   -0.171614
     4  C    0.158408
     5  C   -0.172039
     6  C   -0.224055
     7  H    0.230824
     8  H    0.222672
     9  H    0.274384
    10  H    0.274234
    11  H    0.230985
    12  N    0.488092
    13  O   -0.461609
    14  O   -0.461387
    15  C   -0.169976
    16  C   -0.217804
    17  C   -0.169993
    18  C    0.159170
    19  C   -0.174496
    20  C   -0.218536
    21  H    0.228991
    22  H    0.226721
    23  H    0.277782
    24  H    0.269130
    25  H    0.226082
    26  N    0.489890
    27  O   -0.471513
    28  O   -0.453494
 Sum of Mulliken charges =  -0.00000

 Dipole moment (field-independent basis, Debye):
    X=              6.2254    Y=              2.2846    Z=              4.0764  Tot=              7.7841
 Quadrupole moment (field-independent basis, Debye-Ang):
   XX=           -116.4064   YY=           -107.2012   ZZ=           -103.5443
   XY=             27.8162   XZ=             -9.0109   YZ=             -1.6841

 Normal termination of Gaussian 16 at Thu May  6 22:50:53 2021.
