 Gaussian 16, Revision A.03,
 Gaussian 16:  EM64L-G16RevA.03 25-Dec-2016

 -------------
 #p 6-31g* mp2
 -------------

 ------------------------------------------------------
 Input file generated by CHIRIPA (05-May-2021 14:57:21)
 ------------------------------------------------------
 Symbolic Z-matrix:
 Charge =  0 Multiplicity = 1

                         Standard orientation:
 ---------------------------------------------------------------------
 Center     Atomic      Atomic             Coordinates (Angstroms)
 Number     Number       Type             X           Y           Z
 ---------------------------------------------------------------------
      1          6           0        2.971623    2.493240   -0.547282
      2          6           0        1.911286    2.182459    0.310402
      3          6           0        1.712040    0.869057    0.746091
      4          6           0        2.596198   -0.113155    0.302452
      5          6           0        3.661895    0.164971   -0.552080
      6          6           0        3.842009    1.485282   -0.975031
      7          1           0        3.118971    3.516206   -0.880788
      8          1           0        1.233764    2.963214    0.644213
      9          1           0        0.899331    0.600654    1.410080
     10          1           0        4.320743   -0.634805   -0.867823
     11          1           0        4.666337    1.723724   -1.641120
     12          7           0        2.395392   -1.507252    0.756954
     13          8           0        3.188299   -2.354446    0.351741
     14          8           0        1.448895   -1.726353    1.509799
     15          6           0       -3.796177    1.995213    0.510367
     16          6           0       -4.496225    0.784785    0.474017
     17          6           0       -3.859816   -0.391532    0.066819
     18          6           0       -2.516483   -0.320772   -0.298883
     19          6           0       -1.791954    0.869897   -0.273268
     20          6           0       -2.448653    2.033837    0.137266
     21          1           0       -4.298436    2.904196    0.827984
     22          1           0       -5.542802    0.751803    0.763214
     23          1           0       -4.377897   -1.342113    0.029324
     24          1           0       -0.749416    0.871318   -0.567427
     25          1           0       -1.902485    2.972455    0.164517
     26          7           0       -1.832006   -1.559535   -0.731732
     27          8           0       -0.647901   -1.470637   -1.048957
     28          8           0       -2.492577   -2.595919   -0.745576
 ---------------------------------------------------------------------

 SCF Done:  E(RHF) =  -868.335725473     A.U. after   16 cycles
 E2 =    -0.2604061434D+01 EUMP2 =    -0.87093978690720D+03

 The electronic state is 1-A.
 Alpha  occ. eigenvalues --  -20.60517 -20.60502 -20.60123 -20.60098 -15.85573
 Alpha  occ. eigenvalues --  -15.85187 -11.31192 -11.30989 -11.27771 -11.27767
 Alpha  occ. eigenvalues --  -11.27673 -11.27619 -11.27584 -11.27497 -11.26975
 Alpha  occ. eigenvalues --  -11.26885 -11.26844 -11.26696  -1.59555  -1.59144
 Alpha  occ. eigenvalues --   -1.39116  -1.38703  -1.19406  -1.19230  -1.08746
 Alpha  occ. eigenvalues --   -1.08528  -1.04919  -1.04695  -0.95547  -0.95293
 Alpha  occ. eigenvalues --   -0.86275  -0.86068  -0.82425  -0.82138  -0.77465
 Alpha  occ. eigenvalues --   -0.77057  -0.71861  -0.71445  -0.70920  -0.70599
 Alpha  occ. eigenvalues --   -0.70305  -0.70273  -0.65073  -0.64999  -0.64865
 Alpha  occ. eigenvalues --   -0.64672  -0.62432  -0.61868  -0.55371  -0.55200
 Alpha  occ. eigenvalues --   -0.53304  -0.53147  -0.52865  -0.52606  -0.48571
 Alpha  occ. eigenvalues --   -0.48540  -0.48198  -0.48136  -0.44684  -0.43780
 Alpha  occ. eigenvalues --   -0.37390  -0.37193  -0.36591  -0.36227
 Alpha virt. eigenvalues --    0.05085   0.05521   0.10891   0.11507   0.16495
 Alpha virt. eigenvalues --    0.16797   0.20083   0.22054   0.25396   0.28181
 Alpha virt. eigenvalues --    0.28364   0.28782   0.30047   0.32060   0.32439

 Mulliken charges:
               1
     1  C   -0.170769
     2  C   -0.226114
     3  C   -0.181158
     4  C    0.173019
     5  C   -0.168566
     6  C   -0.217927
     7  H    0.223687
     8  H    0.215664
     9  H    0.276935
    10  H    0.278081
    11  H    0.223791
    12  N    0.494200
    13  O   -0.459559
    14  O   -0.457742
    15  C   -0.170483
    16  C   -0.218391
    17  C   -0.168982
    18  C    0.161226
    19  C   -0.181852
    20  C   -0.223597
    21  H    0.224680
    22  H    0.224188
    23  H    0.277627
    24  H    0.283226
    25  H    0.215534
    26  N    0.491417
    27  O   -0.461068
    28  O   -0.457067
 Sum of Mulliken charges =  -0.00000

 Dipole moment (field-independent basis, Debye):
    X=             -1.6242    Y=              8.7601    Z=             -0.1272  Tot=              8.9103
 Quadrupole moment (field-independent basis, Debye-Ang):
   XX=            -81.8258   YY=           -108.4968   ZZ=           -106.7214
   XY=              3.6020   XZ=            -10.4845   YZ=              0.2700

 Normal termination of Gaussian 16 at Thu May  6 19:28:41 2021.
