 Gaussian 16, Revision A.03,
 Gaussian 16:  EM64L-G16RevA.03 25-Dec-2016

 -------------
 #p 6-31g* mp2
 -------------

 ------------------------------------------------------
 Input file generated by CHIRIPA (05-May-2021 14:57:21)
 ------------------------------------------------------
 Symbolic Z-matrix:
 Charge =  0 Multiplicity = 1

                         Standard orientation:
 ---------------------------------------------------------------------
 Center     Atomic      Atomic             Coordinates (Angstroms)
 Number     Number       Type             X           Y           Z
 ---------------------------------------------------------------------
      1          6           0       -2.079656   -1.676231    0.746490
      2          6           0       -1.726174   -0.430937    0.216573
      3          6           0       -2.711994    0.481447   -0.171064
      4          6           0       -4.047543    0.114069   -0.014124
      5          6           0       -4.431509   -1.119020    0.510616
      6          6           0       -3.428817   -2.015700    0.891564
      7          1           0       -1.307294   -2.378894    1.045017
      8          1           0       -0.679198   -0.164604    0.102759
      9          1           0       -2.466383    1.452244   -0.584158
     10          1           0       -5.483619   -1.356098    0.611987
     11          1           0       -3.706276   -2.982107    1.302806
     12          7           0       -5.100118    1.071657   -0.420957
     13          8           0       -6.269619    0.724006   -0.272491
     14          8           0       -4.735693    2.151733   -0.880596
     15          6           0        4.633004    2.371230    0.557634
     16          6           0        3.281908    2.025122    0.663774
     17          6           0        2.850089    0.738470    0.328202
     18          6           0        3.800696   -0.181259   -0.111954
     19          6           0        5.153769    0.133284   -0.228326
     20          6           0        5.562984    1.425873    0.112707
     21          1           0        4.959672    3.373038    0.820435
     22          1           0        2.557449    2.757249    1.009020
     23          1           0        1.810240    0.443794    0.400999
     24          1           0        5.852513   -0.618127   -0.575541
     25          1           0        6.612905    1.691864    0.029295
     26          7           0        3.355513   -1.546523   -0.470100
     27          8           0        4.212782   -2.338577   -0.855297
     28          8           0        2.157741   -1.798710   -0.358836
 ---------------------------------------------------------------------

 SCF Done:  E(RHF) =  -868.338738353     A.U. after   16 cycles
 E2 =    -0.2599201618D+01 EUMP2 =    -0.87093793997081D+03

 The electronic state is 1-A.
 Alpha  occ. eigenvalues --  -20.61733 -20.61678 -20.60567 -20.60558 -15.86752
 Alpha  occ. eigenvalues --  -15.85618 -11.31980 -11.30878 -11.28623 -11.28465
 Alpha  occ. eigenvalues --  -11.28174 -11.27505 -11.27478 -11.27445 -11.27439
 Alpha  occ. eigenvalues --  -11.27041 -11.26422 -11.26375  -1.60768  -1.59644
 Alpha  occ. eigenvalues --   -1.40334  -1.39201  -1.20120  -1.19034  -1.09526
 Alpha  occ. eigenvalues --   -1.08415  -1.05509  -1.04440  -0.96397  -0.95272
 Alpha  occ. eigenvalues --   -0.86912  -0.85819  -0.83242  -0.82129  -0.78329
 Alpha  occ. eigenvalues --   -0.77215  -0.72983  -0.72076  -0.71836  -0.71231
 Alpha  occ. eigenvalues --   -0.70967  -0.70063  -0.65776  -0.65520  -0.64675
 Alpha  occ. eigenvalues --   -0.64436  -0.62884  -0.61787  -0.55982  -0.54826
 Alpha  occ. eigenvalues --   -0.53827  -0.53614  -0.52753  -0.52510  -0.49750
 Alpha  occ. eigenvalues --   -0.49697  -0.48600  -0.48582  -0.45767  -0.44631
 Alpha  occ. eigenvalues --   -0.38061  -0.37099  -0.36953  -0.36056
 Alpha virt. eigenvalues --    0.04221   0.05340   0.10555   0.11611   0.15768
 Alpha virt. eigenvalues --    0.16869   0.18806   0.22008   0.24808   0.27106
 Alpha virt. eigenvalues --    0.28641   0.29025   0.30260   0.30976   0.32387

 Mulliken charges:
               1
     1  C   -0.172759
     2  C   -0.224749
     3  C   -0.174108
     4  C    0.158369
     5  C   -0.171162
     6  C   -0.219375
     7  H    0.237231
     8  H    0.231012
     9  H    0.271837
    10  H    0.274595
    11  H    0.223763
    12  N    0.488263
    13  O   -0.460983
    14  O   -0.462802
    15  C   -0.169574
    16  C   -0.221479
    17  C   -0.174213
    18  C    0.156921
    19  C   -0.169079
    20  C   -0.218347
    21  H    0.229058
    22  H    0.226079
    23  H    0.275838
    24  H    0.277534
    25  H    0.226473
    26  N    0.488861
    27  O   -0.454614
    28  O   -0.472590
 Sum of Mulliken charges =  -0.00000

 Dipole moment (field-independent basis, Debye):
    X=              5.6836    Y=              1.3618    Z=              2.7233  Tot=              6.4478
 Quadrupole moment (field-independent basis, Debye-Ang):
   XX=           -115.2516   YY=           -105.3431   ZZ=           -106.1076
   XY=             34.3375   XZ=             -3.6871   YZ=             -1.2291

 Normal termination of Gaussian 16 at Wed May  5 20:55:31 2021.
