 Gaussian 16, Revision A.03,
 Gaussian 16:  EM64L-G16RevA.03 25-Dec-2016

 -------------
 #p 6-31g* mp2
 -------------

 ------------------------------------------------------
 Input file generated by CHIRIPA (05-May-2021 14:57:22)
 ------------------------------------------------------
 Symbolic Z-matrix:
 Charge =  0 Multiplicity = 1

                         Standard orientation:
 ---------------------------------------------------------------------
 Center     Atomic      Atomic             Coordinates (Angstroms)
 Number     Number       Type             X           Y           Z
 ---------------------------------------------------------------------
      1          6           0       -5.749770    0.575257   -0.376499
      2          6           0       -5.462489   -0.699619    0.122182
      3          6           0       -4.138143   -1.109587    0.302687
      4          6           0       -3.121142   -0.215092   -0.027282
      5          6           0       -3.375230    1.061580   -0.526116
      6          6           0       -4.707062    1.450245   -0.698489
      7          1           0       -6.781461    0.885456   -0.513561
      8          1           0       -6.270246   -1.381247    0.373091
      9          1           0       -3.887383   -2.090833    0.686996
     10          1           0       -2.548699    1.718917   -0.767305
     11          1           0       -4.927196    2.440930   -1.085954
     12          7           0       -1.715154   -0.637831    0.159506
     13          8           0       -0.837173    0.168915   -0.138735
     14          8           0       -1.517744   -1.767915    0.600614
     15          6           0        2.838689    2.557248    0.591574
     16          6           0        3.831538    2.243205   -0.342314
     17          6           0        4.124861    0.910366   -0.645711
     18          6           0        3.402574   -0.087747    0.006489
     19          6           0        2.407618    0.193145    0.941610
     20          6           0        2.131144    1.533021    1.229431
     21          1           0        2.617372    3.595363    0.821210
     22          1           0        4.382630    3.036566   -0.839226
     23          1           0        4.888413    0.639011   -1.364579
     24          1           0        1.875163   -0.619499    1.420694
     25          1           0        1.359552    1.773951    1.955133
     26          7           0        3.704183   -1.502489   -0.306459
     27          8           0        3.053579   -2.363438    0.281859
     28          8           0        4.585478   -1.723627   -1.134139
 ---------------------------------------------------------------------

 SCF Done:  E(RHF) =  -868.338099954     A.U. after   16 cycles
 E2 =    -0.2600093400D+01 EUMP2 =    -0.87093819335463D+03

 The electronic state is 1-A.
 Alpha  occ. eigenvalues --  -20.61245 -20.61197 -20.59469 -20.59419 -15.86239
 Alpha  occ. eigenvalues --  -15.84496 -11.31527 -11.29741 -11.28107 -11.28060
 Alpha  occ. eigenvalues --  -11.27808 -11.27091 -11.27057 -11.26448 -11.26227
 Alpha  occ. eigenvalues --  -11.26213 -11.25478 -11.25307  -1.60292  -1.58524
 Alpha  occ. eigenvalues --   -1.39844  -1.38077  -1.19692  -1.17956  -1.09103
 Alpha  occ. eigenvalues --   -1.07407  -1.05080  -1.03342  -0.95950  -0.94242
 Alpha  occ. eigenvalues --   -0.86482  -0.84776  -0.82783  -0.81073  -0.77843
 Alpha  occ. eigenvalues --   -0.76104  -0.72457  -0.71608  -0.70796  -0.70729
 Alpha  occ. eigenvalues --   -0.69839  -0.69137  -0.65344  -0.65081  -0.63634
 Alpha  occ. eigenvalues --   -0.63403  -0.62428  -0.60700  -0.55583  -0.53963
 Alpha  occ. eigenvalues --   -0.53416  -0.53170  -0.51708  -0.51479  -0.49223
 Alpha  occ. eigenvalues --   -0.49186  -0.47496  -0.47462  -0.45266  -0.43507
 Alpha  occ. eigenvalues --   -0.37668  -0.36681  -0.36003  -0.34842
 Alpha virt. eigenvalues --    0.04664   0.06451   0.10975   0.12738   0.16173
 Alpha virt. eigenvalues --    0.17914   0.21132   0.22629   0.27043   0.28001
 Alpha virt. eigenvalues --    0.28559   0.29545   0.30720   0.32050   0.32278

 Mulliken charges:
               1
     1  C   -0.170393
     2  C   -0.218520
     3  C   -0.170425
     4  C    0.157859
     5  C   -0.171625
     6  C   -0.218484
     7  H    0.226685
     8  H    0.225053
     9  H    0.277689
    10  H    0.273932
    11  H    0.223562
    12  N    0.488284
    13  O   -0.466085
    14  O   -0.454665
    15  C   -0.173051
    16  C   -0.220408
    17  C   -0.172477
    18  C    0.153074
    19  C   -0.149305
    20  C   -0.211852
    21  H    0.218010
    22  H    0.216643
    23  H    0.270741
    24  H    0.282901
    25  H    0.218695
    26  N    0.488037
    27  O   -0.456080
    28  O   -0.467794
 Sum of Mulliken charges =  -0.00000

 Dipole moment (field-independent basis, Debye):
    X=             -6.5201    Y=              6.1980    Z=              0.5500  Tot=              9.0128
 Quadrupole moment (field-independent basis, Debye-Ang):
   XX=            -80.3264   YY=           -103.2155   ZZ=           -103.4709
   XY=             15.8502   XZ=              3.1127   YZ=             -3.0004

 Normal termination of Gaussian 16 at Thu May  6 21:07:49 2021.
