 Gaussian 16, Revision A.03,
 Gaussian 16:  EM64L-G16RevA.03 25-Dec-2016

 -------------
 #p 6-31g* mp2
 -------------

 ------------------------------------------------------
 Input file generated by CHIRIPA (05-May-2021 14:57:23)
 ------------------------------------------------------
 Symbolic Z-matrix:
 Charge =  0 Multiplicity = 1

                         Standard orientation:
 ---------------------------------------------------------------------
 Center     Atomic      Atomic             Coordinates (Angstroms)
 Number     Number       Type             X           Y           Z
 ---------------------------------------------------------------------
      1          6           0       -2.807631    1.971149    0.333513
      2          6           0       -4.193659    2.141542    0.253433
      3          6           0       -5.034176    1.041473    0.058680
      4          6           0       -4.452205   -0.220384   -0.052295
      5          6           0       -3.074990   -0.422512    0.023289
      6          6           0       -2.253697    0.691921    0.218389
      7          1           0       -2.162164    2.831288    0.484936
      8          1           0       -4.626633    3.133835    0.342495
      9          1           0       -6.110475    1.144831   -0.007023
     10          1           0       -2.672688   -1.424026   -0.069124
     11          1           0       -1.177633    0.556599    0.280192
     12          7           0       -5.331847   -1.392581   -0.258654
     13          8           0       -4.794387   -2.493855   -0.353359
     14          8           0       -6.542115   -1.187879   -0.321787
     15          6           0        2.085040    1.205813    0.214875
     16          6           0        2.945106    1.505954   -0.846595
     17          6           0        4.178802    0.859112   -0.965502
     18          6           0        4.522062   -0.086753   -0.000722
     19          6           0        3.686886   -0.407590    1.068312
     20          6           0        2.458017    0.251681    1.167263
     21          1           0        1.128550    1.713123    0.299494
     22          1           0        2.658069    2.246505   -1.587702
     23          1           0        4.863809    1.072237   -1.777143
     24          1           0        4.000644   -1.150447    1.791595
     25          1           0        1.792088    0.016571    1.992676
     26          7           0        5.825566   -0.778115   -0.116039
     27          8           0        6.104657   -1.607506    0.747012
     28          8           0        6.543479   -0.477521   -1.067290
 ---------------------------------------------------------------------

 SCF Done:  E(RHF) =  -868.336378016     A.U. after   16 cycles
 E2 =    -0.2599859911D+01 EUMP2 =    -0.87093623792674D+03

 The electronic state is 1-A.
 Alpha  occ. eigenvalues --  -20.61286 -20.61281 -20.61278 -20.61273 -15.86347
 Alpha  occ. eigenvalues --  -15.86336 -11.31885 -11.31862 -11.28482 -11.28450
 Alpha  occ. eigenvalues --  -11.28438 -11.28432 -11.28384 -11.28314 -11.27615
 Alpha  occ. eigenvalues --  -11.27589 -11.27551 -11.27486  -1.60359  -1.60348
 Alpha  occ. eigenvalues --   -1.39908  -1.39896  -1.20082  -1.20068  -1.09484
 Alpha  occ. eigenvalues --   -1.09448  -1.05501  -1.05493  -0.96282  -0.96249
 Alpha  occ. eigenvalues --   -0.86924  -0.86891  -0.83108  -0.83064  -0.78100
 Alpha  occ. eigenvalues --   -0.78068  -0.72564  -0.72552  -0.71685  -0.71671
 Alpha  occ. eigenvalues --   -0.71320  -0.71183  -0.65755  -0.65733  -0.65610
 Alpha  occ. eigenvalues --   -0.65430  -0.62860  -0.62810  -0.56158  -0.56016
 Alpha  occ. eigenvalues --   -0.53849  -0.53815  -0.53598  -0.53566  -0.49338
 Alpha  occ. eigenvalues --   -0.49324  -0.49306  -0.49294  -0.45280  -0.45260
 Alpha  occ. eigenvalues --   -0.38125  -0.38080  -0.37096  -0.37080
 Alpha virt. eigenvalues --    0.04408   0.04458   0.10510   0.10552   0.15714
 Alpha virt. eigenvalues --    0.15901   0.17868   0.21957   0.24982   0.26104
 Alpha virt. eigenvalues --    0.27324   0.28991   0.30321   0.30666   0.32010

 Mulliken charges:
               1
     1  C   -0.171520
     2  C   -0.218054
     3  C   -0.169932
     4  C    0.159357
     5  C   -0.170446
     6  C   -0.222293
     7  H    0.220940
     8  H    0.225504
     9  H    0.278020
    10  H    0.278128
    11  H    0.217776
    12  N    0.487891
    13  O   -0.458664
    14  O   -0.458490
    15  C   -0.174218
    16  C   -0.217308
    17  C   -0.170070
    18  C    0.159947
    19  C   -0.169718
    20  C   -0.219583
    21  H    0.216346
    22  H    0.224857
    23  H    0.278206
    24  H    0.278494
    25  H    0.223371
    26  N    0.487878
    27  O   -0.458135
    28  O   -0.458283
 Sum of Mulliken charges =  -0.00000

 Dipole moment (field-independent basis, Debye):
    X=             -1.4381    Y=              6.4558    Z=              1.0832  Tot=              6.7022
 Quadrupole moment (field-independent basis, Debye-Ang):
   XX=           -169.0587   YY=           -104.8651   ZZ=           -102.4874
   XY=             -9.9722   XZ=             -2.6366   YZ=             -2.9920

 Normal termination of Gaussian 16 at Thu May  6 21:09:01 2021.
