 Gaussian 16, Revision A.03,
 Gaussian 16:  EM64L-G16RevA.03 25-Dec-2016

 -------------
 #p 6-31g* mp2
 -------------

 ------------------------------------------------------
 Input file generated by CHIRIPA (05-May-2021 14:53:18)
 ------------------------------------------------------
 Symbolic Z-matrix:
 Charge =  0 Multiplicity = 1

                         Standard orientation:
 ---------------------------------------------------------------------
 Center     Atomic      Atomic             Coordinates (Angstroms)
 Number     Number       Type             X           Y           Z
 ---------------------------------------------------------------------
      1          6           0        3.558523   -0.070579   -0.041699
      2          6           0        3.391469   -1.586248    0.071550
      3          6           0        4.668440   -2.288838    0.533617
      4          1           0        4.374709    0.150568   -0.743040
      5          1           0        3.866865    0.331195    0.933441
      6          1           0        3.082193   -1.984869   -0.903163
      7          1           0        2.575459   -1.803809    0.772557
      8          1           0        4.977494   -1.918995    1.516624
      9          1           0        5.487107   -2.101083   -0.168617
     10          1           0        4.526616   -3.371546    0.607715
     11          6           0        2.290466    0.645908   -0.502572
     12          6           0        2.457521    2.161577   -0.615821
     13          6           0        1.180550    2.864168   -1.077888
     14          1           0        1.982125    0.244134   -1.477712
     15          1           0        1.474280    0.424761    0.198769
     16          1           0        3.273531    2.379139   -1.316828
     17          1           0        2.766797    2.560198    0.358892
     18          1           0        0.361883    2.676413   -0.375654
     19          1           0        0.871496    2.494325   -2.060895
     20          1           0        1.322373    3.946875   -1.151986
     21          6           0       -1.754940    1.902414    1.461781
     22          6           0       -2.280348    1.963417    0.166889
     23          6           0       -2.577665    0.791247   -0.534657
     24          6           0       -2.335982   -0.430383    0.091841
     25          6           0       -1.813334   -0.523975    1.380781
     26          6           0       -1.523517    0.661101    2.063533
     27          1           0       -1.526891    2.817997    1.999459
     28          1           0       -2.461102    2.926039   -0.302933
     29          1           0       -2.985150    0.809522   -1.538171
     30          1           0       -1.643977   -1.498301    1.822852
     31          1           0       -1.115554    0.610689    3.069053
     32          7           0       -2.646768   -1.678139   -0.640907
     33          8           0       -2.424705   -2.741955   -0.066783
     34          8           0       -3.106541   -1.568686   -1.775485
 ---------------------------------------------------------------------

 SCF Done:  E(RHF) =  -669.534746196     A.U. after   15 cycles
 E2 =    -0.2093625652D+01 EUMP2 =    -0.67162837184789D+03

 The electronic state is 1-A.
 Alpha  occ. eigenvalues --  -20.60826 -20.60821 -15.85881 -11.31291 -11.27874
 Alpha  occ. eigenvalues --  -11.27827 -11.27595 -11.26912 -11.26850 -11.21825
 Alpha  occ. eigenvalues --  -11.21602 -11.21484 -11.21425 -11.21277 -11.21066
 Alpha  occ. eigenvalues --   -1.59900  -1.39453  -1.19473  -1.08869  -1.08529
 Alpha  occ. eigenvalues --   -1.04879  -1.03645  -0.96107  -0.95683  -0.87136
 Alpha  occ. eigenvalues --   -0.86267  -0.82511  -0.79718  -0.78333  -0.77548
 Alpha  occ. eigenvalues --   -0.72100  -0.71221  -0.70571  -0.65191  -0.65113
 Alpha  occ. eigenvalues --   -0.64872  -0.62217  -0.61069  -0.59476  -0.57721
 Alpha  occ. eigenvalues --   -0.55442  -0.55372  -0.53330  -0.52968  -0.52801
 Alpha  occ. eigenvalues --   -0.52454  -0.50053  -0.48862  -0.48851  -0.48008
 Alpha  occ. eigenvalues --   -0.46740  -0.45856  -0.45784  -0.44849  -0.43898
 Alpha  occ. eigenvalues --   -0.37379  -0.36422
 Alpha virt. eigenvalues --    0.04957   0.11118   0.16411   0.21156   0.22774
 Alpha virt. eigenvalues --    0.24230   0.26480   0.26944   0.27333   0.27995
 Alpha virt. eigenvalues --    0.28404   0.30827   0.31414   0.31832   0.31940

 Mulliken charges:
               1
     1  C   -0.298269
     2  C   -0.299328
     3  C   -0.475907
     4  H    0.150123
     5  H    0.146763
     6  H    0.155571
     7  H    0.150401
     8  H    0.153282
     9  H    0.155424
    10  H    0.162146
    11  C   -0.301140
    12  C   -0.297935
    13  C   -0.484255
    14  H    0.151962
    15  H    0.150611
    16  H    0.152869
    17  H    0.148208
    18  H    0.159770
    19  H    0.155476
    20  H    0.155994
    21  C   -0.172907
    22  C   -0.217146
    23  C   -0.169652
    24  C    0.159873
    25  C   -0.171498
    26  C   -0.218054
    27  H    0.227095
    28  H    0.226100
    29  H    0.276204
    30  H    0.276132
    31  H    0.224145
    32  N    0.488068
    33  O   -0.460088
    34  O   -0.460038
 Sum of Mulliken charges =  -0.00000

 Dipole moment (field-independent basis, Debye):
    X=              0.9671    Y=              4.3007    Z=              2.5746  Tot=              5.1049
 Quadrupole moment (field-independent basis, Debye-Ang):
   XX=           -100.7933   YY=            -98.2463   ZZ=            -90.5971
   XY=            -11.6648   XZ=             -5.2270   YZ=             -2.6396

 Normal termination of Gaussian 16 at Wed May  5 15:46:51 2021.
