 Gaussian 16, Revision A.03,
 Gaussian 16:  EM64L-G16RevA.03 25-Dec-2016

 -------------
 #p 6-31g* mp2
 -------------

 ------------------------------------------------------
 Input file generated by CHIRIPA (05-May-2021 14:55:19)
 ------------------------------------------------------
 Symbolic Z-matrix:
 Charge =  0 Multiplicity = 1

                         Standard orientation:
 ---------------------------------------------------------------------
 Center     Atomic      Atomic             Coordinates (Angstroms)
 Number     Number       Type             X           Y           Z
 ---------------------------------------------------------------------
      1          6           0        5.993710    0.953832    0.531023
      2          6           0        5.754756   -0.421575    0.618640
      3          6           0        4.520605   -0.953750    0.233660
      4          6           0        3.543540   -0.077620   -0.236479
      5          6           0        3.751270    1.297275   -0.335487
      6          6           0        4.992969    1.807362    0.055078
      7          1           0        6.955360    1.358659    0.832254
      8          1           0        6.530095   -1.086818    0.987890
      9          1           0        4.308837   -2.014536    0.291155
     10          1           0        2.958883    1.935340   -0.707528
     11          1           0        5.175738    2.875942   -0.014050
     12          7           0        2.233004   -0.629319   -0.646996
     13          8           0        1.388662    0.163728   -1.057851
     14          8           0        2.074962   -1.844340   -0.550132
     15          6           0       -5.481857    0.247005    0.471582
     16          6           0       -6.581650    0.239702   -0.590674
     17          6           0       -7.915371    0.770756   -0.064398
     18          1           0       -5.805848   -0.357442    1.329848
     19          1           0       -5.348165    1.272134    0.843915
     20          1           0       -6.712271   -0.784875   -0.961883
     21          1           0       -6.254925    0.844080   -1.446590
     22          1           0       -7.807410    1.801574    0.288250
     23          1           0       -8.267356    0.163364    0.775711
     24          1           0       -8.687320    0.756665   -0.840127
     25          6           0       -4.142544   -0.281069   -0.039402
     26          6           0       -3.042751   -0.273766    1.022854
     27          6           0       -1.709030   -0.804821    0.496579
     28          1           0       -4.276237   -1.306198   -0.411735
     29          1           0       -3.818553    0.323378   -0.897667
     30          1           0       -3.369476   -0.878144    1.878770
     31          1           0       -2.912129    0.750811    1.394063
     32          1           0       -1.357045   -0.197429   -0.343531
     33          1           0       -1.816992   -1.835638    0.143930
     34          1           0       -0.937082   -0.790730    1.272307
 ---------------------------------------------------------------------

 SCF Done:  E(RHF) =  -669.535875260     A.U. after   15 cycles
 E2 =    -0.2091131029D+01 EUMP2 =    -0.67162700628864D+03

 The electronic state is 1-A.
 Alpha  occ. eigenvalues --  -20.60883 -20.60873 -15.85911 -11.31265 -11.27830
 Alpha  occ. eigenvalues --  -11.27825 -11.27571 -11.26842 -11.26832 -11.20969
 Alpha  occ. eigenvalues --  -11.20622 -11.20561 -11.20409 -11.20350 -11.19260
 Alpha  occ. eigenvalues --   -1.59933  -1.39491  -1.19433  -1.08831  -1.07527
 Alpha  occ. eigenvalues --   -1.04834  -1.02533  -0.95672  -0.94942  -0.86233
 Alpha  occ. eigenvalues --   -0.85946  -0.82503  -0.78624  -0.77551  -0.77300
 Alpha  occ. eigenvalues --   -0.72133  -0.71250  -0.70541  -0.65088  -0.64836
 Alpha  occ. eigenvalues --   -0.64169  -0.62181  -0.59933  -0.58403  -0.56562
 Alpha  occ. eigenvalues --   -0.55338  -0.54229  -0.53165  -0.52926  -0.51638
 Alpha  occ. eigenvalues --   -0.51370  -0.49119  -0.48876  -0.48642  -0.46895
 Alpha  occ. eigenvalues --   -0.45688  -0.44945  -0.44815  -0.44657  -0.42793
 Alpha  occ. eigenvalues --   -0.37413  -0.36436
 Alpha virt. eigenvalues --    0.04969   0.11219   0.16459   0.21352   0.23702
 Alpha virt. eigenvalues --    0.25347   0.27266   0.27524   0.28213   0.28351
 Alpha virt. eigenvalues --    0.29145   0.30918   0.32366   0.32519   0.32623

 Mulliken charges:
               1
     1  C   -0.170684
     2  C   -0.218571
     3  C   -0.170786
     4  C    0.158350
     5  C   -0.170822
     6  C   -0.218542
     7  H    0.225858
     8  H    0.223717
     9  H    0.275866
    10  H    0.275563
    11  H    0.223669
    12  N    0.489173
    13  O   -0.459636
    14  O   -0.458966
    15  C   -0.297256
    16  C   -0.299021
    17  C   -0.475160
    18  H    0.147786
    19  H    0.147401
    20  H    0.151532
    21  H    0.151522
    22  H    0.153958
    23  H    0.154189
    24  H    0.158516
    25  C   -0.297437
    26  C   -0.300940
    27  C   -0.474304
    28  H    0.148980
    29  H    0.150395
    30  H    0.146049
    31  H    0.146533
    32  H    0.175776
    33  H    0.154487
    34  H    0.152802
 Sum of Mulliken charges =  -0.00000

 Dipole moment (field-independent basis, Debye):
    X=              4.9547    Y=              1.9231    Z=              1.3187  Tot=              5.4760
 Quadrupole moment (field-independent basis, Debye-Ang):
   XX=            -64.4010   YY=            -90.1449   ZZ=            -96.2198
   XY=              5.6895   XZ=              5.1042   YZ=             -2.1332

 Normal termination of Gaussian 16 at Thu May  6 15:43:30 2021.
