 Gaussian 16, Revision A.03,
 Gaussian 16:  EM64L-G16RevA.03 25-Dec-2016

 -------------
 #p 6-31g* mp2
 -------------

 ------------------------------------------------------
 Input file generated by CHIRIPA (05-May-2021 14:51:11)
 ------------------------------------------------------
 Symbolic Z-matrix:
 Charge =  0 Multiplicity = 1

                         Standard orientation:
 ---------------------------------------------------------------------
 Center     Atomic      Atomic             Coordinates (Angstroms)
 Number     Number       Type             X           Y           Z
 ---------------------------------------------------------------------
      1          6           0        5.259591    0.001515    0.237749
      2          6           0        6.207007   -0.939718   -0.506877
      3          6           0        7.495686   -1.216078    0.268189
      4          1           0        5.777970    0.948835    0.439771
      5          1           0        5.013908   -0.435090    1.215711
      6          1           0        6.449733   -0.502120   -1.483713
      7          1           0        5.686250   -1.884837   -0.707320
      8          1           0        7.271890   -1.675270    1.236517
      9          1           0        8.039711   -0.284696    0.455712
     10          1           0        8.158360   -1.891097   -0.282330
     11          6           0        3.966856    0.287377   -0.524385
     12          6           0        3.019440    1.228610    0.220241
     13          6           0        1.730762    1.504970   -0.554825
     14          1           0        4.212539    0.723982   -1.502347
     15          1           0        3.448478   -0.659943   -0.726408
     16          1           0        3.540198    2.173729    0.420684
     17          1           0        2.776715    0.791012    1.197077
     18          1           0        1.186737    0.573588   -0.742349
     19          1           0        1.954558    1.964161   -1.523153
     20          1           0        1.068087    2.179989   -0.004306
     21          6           0       -4.014948    0.321533    0.234767
     22          6           0       -2.720001   -0.414793    0.579611
     23          6           0       -1.532121    0.530929    0.759456
     24          1           0       -3.864808    0.902995   -0.685181
     25          1           0       -4.239208    1.046365    1.029575
     26          1           0       -2.498986   -1.138997   -0.214932
     27          1           0       -2.873301   -0.994722    1.498741
     28          1           0       -1.727244    1.245536    1.565598
     29          1           0       -1.350804    1.100443   -0.157810
     30          1           0       -0.616841   -0.016430    1.005462
     31          6           0       -5.211499   -0.610424    0.051869
     32          6           0       -6.506446    0.125902   -0.292976
     33          6           0       -7.694326   -0.819821   -0.472820
     34          1           0       -4.987239   -1.335257   -0.742939
     35          1           0       -5.361639   -1.191886    0.971818
     36          1           0       -6.353147    0.705830   -1.212104
     37          1           0       -6.727461    0.850105    0.501568
     38          1           0       -7.875644   -1.389334    0.444448
     39          1           0       -7.499204   -1.534428   -1.278962
     40          1           0       -8.609606   -0.272461   -0.718826
 ---------------------------------------------------------------------

 SCF Done:  E(RHF) =  -470.732338411     A.U. after   11 cycles
 E2 =    -0.1582667615D+01 EUMP2 =    -0.47231500602630D+03

 The electronic state is 1-A.
 Alpha  occ. eigenvalues --  -11.21587 -11.21584 -11.21552 -11.21538 -11.21382
 Alpha  occ. eigenvalues --  -11.21374 -11.21322 -11.21314 -11.21060 -11.21057
 Alpha  occ. eigenvalues --  -11.20962 -11.20906  -1.08410  -1.08386  -1.03536
 Alpha  occ. eigenvalues --   -1.03446  -0.96044  -0.95839  -0.87119  -0.86801
 Alpha  occ. eigenvalues --   -0.79674  -0.79441  -0.78229  -0.78195  -0.65058
 Alpha  occ. eigenvalues --   -0.65007  -0.61008  -0.60813  -0.59385  -0.59232
 Alpha  occ. eigenvalues --   -0.57593  -0.57507  -0.55427  -0.55067  -0.52869
 Alpha  occ. eigenvalues --   -0.52505  -0.52350  -0.52249  -0.50056  -0.49654
 Alpha  occ. eigenvalues --   -0.47916  -0.47823  -0.46694  -0.46470  -0.45770
 Alpha  occ. eigenvalues --   -0.45741  -0.45693  -0.45649  -0.43813  -0.43624
 Alpha virt. eigenvalues --    0.22190   0.22975   0.23643   0.24818   0.26577
 Alpha virt. eigenvalues --    0.26645   0.27054   0.27514   0.27569   0.29168
 Alpha virt. eigenvalues --    0.29900   0.31286   0.31507   0.31943   0.32208

 Mulliken charges:
               1
     1  C   -0.298213
     2  C   -0.299600
     3  C   -0.475676
     4  H    0.149632
     5  H    0.149376
     6  H    0.151881
     7  H    0.151828
     8  H    0.155135
     9  H    0.155164
    10  H    0.160172
    11  C   -0.298322
    12  C   -0.300855
    13  C   -0.477110
    14  H    0.149454
    15  H    0.149285
    16  H    0.151638
    17  H    0.151598
    18  H    0.157683
    19  H    0.153243
    20  H    0.163505
    21  C   -0.298463
    22  C   -0.300778
    23  C   -0.476424
    24  H    0.149748
    25  H    0.149392
    26  H    0.151356
    27  H    0.151343
    28  H    0.153737
    29  H    0.158985
    30  H    0.161499
    31  C   -0.298204
    32  C   -0.299620
    33  C   -0.475684
    34  H    0.149437
    35  H    0.149555
    36  H    0.151940
    37  H    0.151877
    38  H    0.155130
    39  H    0.155150
    40  H    0.160205
 Sum of Mulliken charges =  -0.00000

 Dipole moment (field-independent basis, Debye):
    X=             -0.0089    Y=              0.0167    Z=             -0.0033  Tot=              0.0192
 Quadrupole moment (field-independent basis, Debye-Ang):
   XX=            -86.6935   YY=            -84.5370   ZZ=            -83.8364
   XY=              0.0691   XZ=             -0.9606   YZ=             -0.2316

 Normal termination of Gaussian 16 at Thu May  6 07:03:17 2021.
