 Gaussian 16, Revision A.03,
 Gaussian 16:  EM64L-G16RevA.03 25-Dec-2016

 -------------
 #p 6-31g* mp2
 -------------

 ------------------------------------------------------
 Input file generated by CHIRIPA (05-May-2021 14:55:24)
 ------------------------------------------------------
 Symbolic Z-matrix:
 Charge =  0 Multiplicity = 1

                         Standard orientation:
 ---------------------------------------------------------------------
 Center     Atomic      Atomic             Coordinates (Angstroms)
 Number     Number       Type             X           Y           Z
 ---------------------------------------------------------------------
      1          6           0       -5.274864    0.231947    0.251033
      2          6           0       -4.447924    1.176946   -0.365139
      3          6           0       -3.088480    0.913107   -0.557098
      4          6           0       -2.587059   -0.311488   -0.118653
      5          6           0       -3.385343   -1.273301    0.498556
      6          6           0       -4.741874   -0.988010    0.680157
      7          1           0       -6.329782    0.445236    0.396128
      8          1           0       -4.859112    2.125224   -0.699410
      9          1           0       -2.425686    1.626792   -1.031204
     10          1           0       -2.946592   -2.209702    0.821153
     11          1           0       -5.381718   -1.723785    1.158989
     12          7           0       -1.149418   -0.602158   -0.316389
     13          8           0       -0.732028   -1.688533    0.078848
     14          8           0       -0.467206    0.261894   -0.862867
     15          6           0        3.318591    0.969328   -0.200301
     16          6           0        3.135549    2.109084    0.802414
     17          6           0        2.542200    3.366494    0.166293
     18          1           0        3.968342    1.309780   -1.018142
     19          1           0        2.346606    0.728731   -0.652797
     20          1           0        4.107352    2.346528    1.253898
     21          1           0        2.486314    1.765817    1.618060
     22          1           0        1.560586    3.151820   -0.268391
     23          1           0        3.190834    3.735830   -0.634623
     24          1           0        2.419889    4.168564    0.900856
     25          6           0        3.910847   -0.294559    0.420625
     26          6           0        4.093888   -1.434314   -0.582090
     27          6           0        4.687238   -2.691724    0.054030
     28          1           0        4.882833   -0.053961    0.873120
     29          1           0        3.261097   -0.635011    1.238465
     30          1           0        4.743125   -1.091048   -1.397736
     31          1           0        3.122087   -1.671758   -1.033575
     32          1           0        4.038605   -3.061061    0.854946
     33          1           0        5.668852   -2.477051    0.488714
     34          1           0        4.809550   -3.493795   -0.680533
 ---------------------------------------------------------------------

 SCF Done:  E(RHF) =  -669.536802054     A.U. after   15 cycles
 E2 =    -0.2091426887D+01 EUMP2 =    -0.67162822894141D+03

 The electronic state is 1-A.
 Alpha  occ. eigenvalues --  -20.61142 -20.61126 -15.86149 -11.31400 -11.27952
 Alpha  occ. eigenvalues --  -11.27949 -11.27677 -11.26943 -11.26933 -11.20375
 Alpha  occ. eigenvalues --  -11.20172 -11.20032 -11.19937 -11.19899 -11.19675
 Alpha  occ. eigenvalues --   -1.60183  -1.39741  -1.19559  -1.08978  -1.06994
 Alpha  occ. eigenvalues --   -1.04944  -1.02250  -0.95831  -0.94704  -0.86348
 Alpha  occ. eigenvalues --   -0.85736  -0.82667  -0.78312  -0.77728  -0.76790
 Alpha  occ. eigenvalues --   -0.72370  -0.71488  -0.70668  -0.65217  -0.64948
 Alpha  occ. eigenvalues --   -0.63594  -0.62292  -0.59638  -0.58090  -0.56327
 Alpha  occ. eigenvalues --   -0.55453  -0.53980  -0.53280  -0.53035  -0.51473
 Alpha  occ. eigenvalues --   -0.51156  -0.49190  -0.49125  -0.48602  -0.46644
 Alpha  occ. eigenvalues --   -0.45330  -0.45158  -0.44377  -0.44096  -0.42454
 Alpha  occ. eigenvalues --   -0.37534  -0.36541
 Alpha virt. eigenvalues --    0.04788   0.11115   0.16292   0.21226   0.24310
 Alpha virt. eigenvalues --    0.25465   0.27159   0.27791   0.28288   0.28990
 Alpha virt. eigenvalues --    0.29331   0.30838   0.32070   0.32705   0.33044

 Mulliken charges:
               1
     1  C   -0.170331
     2  C   -0.218543
     3  C   -0.170590
     4  C    0.157566
     5  C   -0.170421
     6  C   -0.218612
     7  H    0.226429
     8  H    0.224322
     9  H    0.275911
    10  H    0.276020
    11  H    0.224195
    12  N    0.490444
    13  O   -0.458877
    14  O   -0.461713
    15  C   -0.312533
    16  C   -0.296183
    17  C   -0.476916
    18  H    0.141653
    19  H    0.181741
    20  H    0.145863
    21  H    0.150011
    22  H    0.160313
    23  H    0.151862
    24  H    0.153133
    25  C   -0.295860
    26  C   -0.301417
    27  C   -0.475021
    28  H    0.141741
    29  H    0.151649
    30  H    0.146272
    31  H    0.165058
    32  H    0.156207
    33  H    0.150202
    34  H    0.156425
 Sum of Mulliken charges =  -0.00000

 Dipole moment (field-independent basis, Debye):
    X=             -5.5451    Y=              0.8888    Z=              0.6064  Tot=              5.6485
 Quadrupole moment (field-independent basis, Debye-Ang):
   XX=            -69.9753   YY=            -93.1825   ZZ=            -94.9229
   XY=             -0.0432   XZ=             -2.1791   YZ=             -2.5662

 Normal termination of Gaussian 16 at Thu May  6 01:35:44 2021.
