 Gaussian 16, Revision A.03,
 Gaussian 16:  EM64L-G16RevA.03 25-Dec-2016

 -------------
 #p 6-31g* mp2
 -------------

 ------------------------------------------------------
 Input file generated by CHIRIPA (05-May-2021 14:55:24)
 ------------------------------------------------------
 Symbolic Z-matrix:
 Charge =  0 Multiplicity = 1

                         Standard orientation:
 ---------------------------------------------------------------------
 Center     Atomic      Atomic             Coordinates (Angstroms)
 Number     Number       Type             X           Y           Z
 ---------------------------------------------------------------------
      1          6           0        1.665236   -2.340464    1.015085
      2          6           0        2.883461   -2.200859    0.342062
      3          6           0        3.277571   -0.957977   -0.162386
      4          6           0        2.425158    0.129034    0.024939
      5          6           0        1.205280    0.021903    0.691056
      6          6           0        0.831504   -1.230594    1.187131
      7          1           0        1.366979   -3.309699    1.403700
      8          1           0        3.532959   -3.061062    0.206978
      9          1           0        4.215270   -0.821698   -0.687329
     10          1           0        0.579019    0.897699    0.810207
     11          1           0       -0.115153   -1.336056    1.709399
     12          7           0        2.831622    1.449907   -0.504665
     13          8           0        2.062754    2.392112   -0.326539
     14          8           0        3.911379    1.517992   -1.087868
     15          6           0       -2.670640   -0.563602   -0.206947
     16          6           0       -3.587700   -1.669869   -0.729593
     17          6           0       -2.877475   -3.018460   -0.850739
     18          1           0       -1.806096   -0.465372   -0.877663
     19          1           0       -2.273280   -0.859210    0.773928
     20          1           0       -3.984304   -1.371652   -1.708566
     21          1           0       -4.450259   -1.765347   -0.057660
     22          1           0       -2.496192   -3.341920    0.123221
     23          1           0       -2.027590   -2.945988   -1.537066
     24          1           0       -3.551422   -3.794836   -1.226099
     25          6           0       -3.366269    0.790577   -0.080348
     26          6           0       -2.449210    1.896844    0.442298
     27          6           0       -3.159435    3.245435    0.563444
     28          1           0       -3.763630    1.086184   -1.061223
     29          1           0       -4.230813    0.692347    0.590368
     30          1           0       -1.586652    1.992322   -0.229635
     31          1           0       -2.052605    1.598626    1.421271
     32          1           0       -4.009320    3.172962    1.249770
     33          1           0       -3.540718    3.568894   -0.410516
     34          1           0       -2.485488    4.021812    0.938804
 ---------------------------------------------------------------------

 SCF Done:  E(RHF) =  -669.535096771     A.U. after   15 cycles
 E2 =    -0.2093334749D+01 EUMP2 =    -0.67162843152077D+03

 The electronic state is 1-A.
 Alpha  occ. eigenvalues --  -20.60735 -20.60729 -15.85781 -11.31099 -11.27671
 Alpha  occ. eigenvalues --  -11.27604 -11.27399 -11.26689 -11.26630 -11.22153
 Alpha  occ. eigenvalues --  -11.22012 -11.21996 -11.21798 -11.21688 -11.21194
 Alpha  occ. eigenvalues --   -1.59807  -1.39362  -1.19270  -1.08944  -1.08675
 Alpha  occ. eigenvalues --   -1.04662  -1.03970  -0.96411  -0.95516  -0.87431
 Alpha  occ. eigenvalues --   -0.86067  -0.82359  -0.80063  -0.78841  -0.77356
 Alpha  occ. eigenvalues --   -0.72000  -0.71129  -0.70375  -0.65608  -0.64919
 Alpha  occ. eigenvalues --   -0.64652  -0.62029  -0.61352  -0.59781  -0.58028
 Alpha  occ. eigenvalues --   -0.55709  -0.55174  -0.53108  -0.53054  -0.52918
 Alpha  occ. eigenvalues --   -0.52615  -0.50352  -0.48760  -0.48758  -0.48345
 Alpha  occ. eigenvalues --   -0.47086  -0.46293  -0.46198  -0.44773  -0.44233
 Alpha  occ. eigenvalues --   -0.37255  -0.36222
 Alpha virt. eigenvalues --    0.05098   0.11312   0.16569   0.19850   0.22899
 Alpha virt. eigenvalues --    0.23468   0.24759   0.25909   0.27343   0.28355
 Alpha virt. eigenvalues --    0.29606   0.30692   0.31182   0.31529   0.31931

 Mulliken charges:
               1
     1  C   -0.171861
     2  C   -0.218912
     3  C   -0.170950
     4  C    0.157073
     5  C   -0.177620
     6  C   -0.218470
     7  H    0.225380
     8  H    0.223013
     9  H    0.275062
    10  H    0.284574
    11  H    0.225794
    12  N    0.487975
    13  O   -0.461581
    14  O   -0.460517
    15  C   -0.302013
    16  C   -0.299693
    17  C   -0.475409
    18  H    0.155611
    19  H    0.138436
    20  H    0.155772
    21  H    0.152773
    22  H    0.147522
    23  H    0.158001
    24  H    0.162697
    25  C   -0.297458
    26  C   -0.308670
    27  C   -0.475316
    28  H    0.153685
    29  H    0.150109
    30  H    0.163012
    31  H    0.143459
    32  H    0.154115
    33  H    0.158051
    34  H    0.166357
 Sum of Mulliken charges =  -0.00000

 Dipole moment (field-independent basis, Debye):
    X=             -1.5696    Y=             -4.5365    Z=              1.7283  Tot=              5.1020
 Quadrupole moment (field-independent basis, Debye-Ang):
   XX=            -98.1798   YY=            -96.3631   ZZ=            -93.8888
   XY=            -13.3728   XZ=              2.9856   YZ=              0.5848

 Normal termination of Gaussian 16 at Thu May  6 06:21:45 2021.
