 Gaussian 16, Revision A.03,
 Gaussian 16:  EM64L-G16RevA.03 25-Dec-2016

 -------------
 #p 6-31g* mp2
 -------------

 ------------------------------------------------------
 Input file generated by CHIRIPA (05-May-2021 14:57:21)
 ------------------------------------------------------
 Symbolic Z-matrix:
 Charge =  0 Multiplicity = 1

                         Standard orientation:
 ---------------------------------------------------------------------
 Center     Atomic      Atomic             Coordinates (Angstroms)
 Number     Number       Type             X           Y           Z
 ---------------------------------------------------------------------
      1          6           0        4.827112   -2.321987   -0.347431
      2          6           0        5.372169   -1.470143    0.618900
      3          6           0        4.885108   -0.168925    0.774305
      4          6           0        3.847543    0.249509   -0.057357
      5          6           0        3.283654   -0.575521   -1.029286
      6          6           0        3.786428   -1.872750   -1.166995
      7          1           0        5.211576   -3.331255   -0.461280
      8          1           0        6.180443   -1.816330    1.256781
      9          1           0        5.288690    0.511443    1.514332
     10          1           0        2.478616   -0.202012   -1.650432
     11          1           0        3.361203   -2.532113   -1.918306
     12          7           0        3.323595    1.624938    0.097796
     13          8           0        2.408918    1.969591   -0.647332
     14          8           0        3.837525    2.332303    0.961595
     15          6           0       -1.501728    0.641018    0.181933
     16          6           0       -2.298218    1.058461   -0.889451
     17          6           0       -3.647052    0.696599   -0.954653
     18          6           0       -4.169029   -0.086999    0.073357
     19          6           0       -3.401215   -0.518560    1.153870
     20          6           0       -2.054793   -0.144776    1.198382
     21          1           0       -0.454858    0.926752    0.224547
     22          1           0       -1.871387    1.668782   -1.680254
     23          1           0       -4.286389    1.005959   -1.772555
     24          1           0       -3.855019   -1.126283    1.927274
     25          1           0       -1.438609   -0.470415    2.031642
     26          7           0       -5.595702   -0.476396    0.015283
     27          8           0       -6.031656   -1.167318    0.933547
     28          8           0       -6.250959   -0.083313   -0.947401
 ---------------------------------------------------------------------

 SCF Done:  E(RHF) =  -868.339806869     A.U. after   16 cycles
 E2 =    -0.2598501494D+01 EUMP2 =    -0.87093830836345D+03

 The electronic state is 1-A.
 Alpha  occ. eigenvalues --  -20.61941 -20.61871 -20.60458 -20.60452 -15.86923
 Alpha  occ. eigenvalues --  -15.85508 -11.32061 -11.30766 -11.28618 -11.28572
 Alpha  occ. eigenvalues --  -11.28262 -11.27546 -11.27527 -11.27351 -11.27317
 Alpha  occ. eigenvalues --  -11.26898 -11.26303 -11.26228  -1.60963  -1.59536
 Alpha  occ. eigenvalues --   -1.40526  -1.39093  -1.20206  -1.18919  -1.09636
 Alpha  occ. eigenvalues --   -1.08305  -1.05568  -1.04313  -0.96509  -0.95160
 Alpha  occ. eigenvalues --   -0.86975  -0.85697  -0.83348  -0.82006  -0.78432
 Alpha  occ. eigenvalues --   -0.77095  -0.73144  -0.72278  -0.71726  -0.71296
 Alpha  occ. eigenvalues --   -0.70860  -0.69933  -0.65854  -0.65555  -0.64555
 Alpha  occ. eigenvalues --   -0.64296  -0.62917  -0.61667  -0.56057  -0.54697
 Alpha  occ. eigenvalues --   -0.53915  -0.53647  -0.52648  -0.52388  -0.49918
 Alpha  occ. eigenvalues --   -0.49872  -0.48489  -0.48474  -0.45961  -0.44523
 Alpha  occ. eigenvalues --   -0.38165  -0.37164  -0.36859  -0.35938
 Alpha virt. eigenvalues --    0.04044   0.05444   0.10481   0.11727   0.15564
 Alpha virt. eigenvalues --    0.16971   0.20603   0.22015   0.26513   0.27271
 Alpha virt. eigenvalues --    0.27826   0.28800   0.30409   0.31240   0.32634

 Mulliken charges:
               1
     1  C   -0.170010
     2  C   -0.218391
     3  C   -0.170865
     4  C    0.156835
     5  C   -0.172948
     6  C   -0.218098
     7  H    0.228878
     8  H    0.226337
     9  H    0.277084
    10  H    0.273099
    11  H    0.226464
    12  N    0.487881
    13  O   -0.468264
    14  O   -0.453989
    15  C   -0.177899
    16  C   -0.221246
    17  C   -0.171878
    18  C    0.157530
    19  C   -0.171663
    20  C   -0.219857
    21  H    0.239649
    22  H    0.227555
    23  H    0.274226
    24  H    0.273485
    25  H    0.221486
    26  N    0.488196
    27  O   -0.462114
    28  O   -0.461481
 Sum of Mulliken charges =  -0.00000

 Dipole moment (field-independent basis, Debye):
    X=              7.3308    Y=             -3.4979    Z=             -0.3367  Tot=              8.1295
 Quadrupole moment (field-independent basis, Debye-Ang):
   XX=           -131.0193   YY=           -106.9910   ZZ=            -98.8528
   XY=            -24.7919   XZ=              0.8735   YZ=             -1.3852

 Normal termination of Gaussian 16 at Thu May  6 12:46:54 2021.
