 Gaussian 16, Revision A.03,
 Gaussian 16:  EM64L-G16RevA.03 25-Dec-2016

 -------------
 #p 6-31g* mp2
 -------------

 ------------------------------------------------------
 Input file generated by CHIRIPA (05-May-2021 14:53:16)
 ------------------------------------------------------
 Symbolic Z-matrix:
 Charge =  0 Multiplicity = 1

                         Standard orientation:
 ---------------------------------------------------------------------
 Center     Atomic      Atomic             Coordinates (Angstroms)
 Number     Number       Type             X           Y           Z
 ---------------------------------------------------------------------
      1          6           0       -3.891603   -0.560311    0.180050
      2          6           0       -2.934005   -1.692697   -0.192362
      3          6           0       -3.440362   -3.065262    0.252002
      4          1           0       -4.045287   -0.561477    1.267858
      5          1           0       -4.872895   -0.754929   -0.274466
      6          1           0       -1.954421   -1.495294    0.261580
      7          1           0       -2.782433   -1.688714   -1.279389
      8          1           0       -4.406911   -3.287882   -0.211490
      9          1           0       -3.574195   -3.093363    1.338234
     10          1           0       -2.740530   -3.860100   -0.024273
     11          6           0       -3.399205    0.818017   -0.257537
     12          6           0       -4.356804    1.950403    0.114876
     13          6           0       -3.850446    3.322969   -0.329489
     14          1           0       -2.417913    1.012636    0.196980
     15          1           0       -3.245521    0.819184   -1.345344
     16          1           0       -4.508376    1.946421    1.201902
     17          1           0       -5.336388    1.753000   -0.339067
     18          1           0       -3.716614    3.351069   -1.415721
     19          1           0       -2.883898    3.545588    0.134004
     20          1           0       -4.550279    4.117806   -0.053213
     21          6           0        5.185087    0.847886   -0.033498
     22          6           0        4.628108    0.280889   -1.184502
     23          6           0        3.334053   -0.247700   -1.160751
     24          6           0        2.622029   -0.192369    0.036433
     25          6           0        3.149386    0.365984    1.199802
     26          6           0        4.445252    0.888552    1.152888
     27          1           0        6.191043    1.256169   -0.060945
     28          1           0        5.200353    0.247937   -2.107268
     29          1           0        2.878528   -0.692439   -2.037177
     30          1           0        2.554493    0.384394    2.104887
     31          1           0        4.875259    1.328283    2.048308
     32          7           0        1.251112   -0.748776    0.073837
     33          8           0        0.644461   -0.687840    1.141029
     34          8           0        0.809197   -1.235288   -0.964746
 ---------------------------------------------------------------------

 SCF Done:  E(RHF) =  -669.536963393     A.U. after   15 cycles
 E2 =    -0.2092023963D+01 EUMP2 =    -0.67162898735575D+03

 The electronic state is 1-A.
 Alpha  occ. eigenvalues --  -20.61162 -20.61148 -15.86142 -11.31407 -11.27955
 Alpha  occ. eigenvalues --  -11.27950 -11.27680 -11.26945 -11.26935 -11.20639
 Alpha  occ. eigenvalues --  -11.20340 -11.20075 -11.19877 -11.19506 -11.19438
 Alpha  occ. eigenvalues --   -1.60182  -1.39740  -1.19562  -1.08979  -1.07036
 Alpha  occ. eigenvalues --   -1.04947  -1.02153  -0.95829  -0.94691  -0.86350
 Alpha  occ. eigenvalues --   -0.85720  -0.82666  -0.78254  -0.77731  -0.76733
 Alpha  occ. eigenvalues --   -0.72343  -0.71480  -0.70670  -0.65217  -0.64950
 Alpha  occ. eigenvalues --   -0.63674  -0.62294  -0.59556  -0.58097  -0.56255
 Alpha  occ. eigenvalues --   -0.55453  -0.54006  -0.53282  -0.53037  -0.51430
 Alpha  occ. eigenvalues --   -0.51104  -0.49259  -0.49110  -0.48640  -0.46528
 Alpha  occ. eigenvalues --   -0.45268  -0.45163  -0.44314  -0.44008  -0.42411
 Alpha  occ. eigenvalues --   -0.37537  -0.36543
 Alpha virt. eigenvalues --    0.04797   0.11113   0.16311   0.21254   0.24151
 Alpha virt. eigenvalues --    0.25643   0.27179   0.27973   0.28158   0.28953
 Alpha virt. eigenvalues --    0.29253   0.30848   0.32361   0.32655   0.33039

 Mulliken charges:
               1
     1  C   -0.296941
     2  C   -0.310945
     3  C   -0.474793
     4  H    0.145923
     5  H    0.142011
     6  H    0.185603
     7  H    0.148598
     8  H    0.146765
     9  H    0.150711
    10  H    0.159319
    11  C   -0.298282
    12  C   -0.298484
    13  C   -0.474570
    14  H    0.155689
    15  H    0.147297
    16  H    0.150101
    17  H    0.149169
    18  H    0.153403
    19  H    0.153258
    20  H    0.156517
    21  C   -0.170310
    22  C   -0.218602
    23  C   -0.170622
    24  C    0.159706
    25  C   -0.170642
    26  C   -0.218570
    27  H    0.226431
    28  H    0.224263
    29  H    0.276173
    30  H    0.275882
    31  H    0.224215
    32  N    0.488433
    33  O   -0.460087
    34  O   -0.456619
 Sum of Mulliken charges =  -0.00000

 Dipole moment (field-independent basis, Debye):
    X=              5.3738    Y=              1.9276    Z=             -0.1243  Tot=              5.7104
 Quadrupole moment (field-independent basis, Debye-Ang):
   XX=            -71.4957   YY=            -97.9685   ZZ=            -89.4336
   XY=              3.9962   XZ=             -0.2123   YZ=              1.9790

 Normal termination of Gaussian 16 at Thu May  6 09:03:59 2021.
