 Gaussian 16, Revision A.03,
 Gaussian 16:  EM64L-G16RevA.03 25-Dec-2016

 -------------
 #p 6-31g* mp2
 -------------

 ------------------------------------------------------
 Input file generated by CHIRIPA (05-May-2021 14:53:17)
 ------------------------------------------------------
 Symbolic Z-matrix:
 Charge =  0 Multiplicity = 1

                         Standard orientation:
 ---------------------------------------------------------------------
 Center     Atomic      Atomic             Coordinates (Angstroms)
 Number     Number       Type             X           Y           Z
 ---------------------------------------------------------------------
      1          6           0        4.523453   -0.239189   -0.174658
      2          6           0        4.902848   -1.479916    0.634441
      3          6           0        5.932350   -2.357953   -0.077577
      4          1           0        4.127986   -0.552465   -1.150572
      5          1           0        5.429421    0.348239   -0.378484
      6          1           0        3.996236   -2.064115    0.837866
      7          1           0        5.297279   -1.163655    1.608618
      8          1           0        6.852793   -1.796169   -0.266744
      9          1           0        5.544357   -2.701745   -1.041875
     10          1           0        6.189194   -3.239228    0.518448
     11          6           0        3.495125    0.648574    0.524017
     12          6           0        3.115730    1.889300   -0.285082
     13          6           0        2.086228    2.767338    0.426936
     14          1           0        2.589156    0.061146    0.727843
     15          1           0        3.890592    0.961850    1.499931
     16          1           0        2.721298    1.573040   -1.259258
     17          1           0        4.022342    2.473500   -0.488507
     18          1           0        2.474221    3.111129    1.391234
     19          1           0        1.165785    2.205554    0.616103
     20          1           0        1.829383    3.648613   -0.169088
     21          6           0       -5.394325   -1.036462    0.556814
     22          6           0       -4.412781   -1.919661    0.095239
     23          6           0       -3.155896   -1.445143   -0.291567
     24          6           0       -2.913568   -0.075175   -0.203493
     25          6           0       -3.870826    0.829957    0.252233
     26          6           0       -5.120696    0.333115    0.633703
     27          1           0       -6.367979   -1.413750    0.855221
     28          1           0       -4.622482   -2.983793    0.034465
     29          1           0       -2.377772   -2.106670   -0.652568
     30          1           0       -3.632261    1.885448    0.301638
     31          1           0       -5.881063    1.021347    0.991784
     32          7           0       -1.586673    0.438994   -0.610162
     33          8           0       -1.398109    1.650400   -0.523132
     34          8           0       -0.760342   -0.379144   -1.008239
 ---------------------------------------------------------------------

 SCF Done:  E(RHF) =  -669.536431970     A.U. after   15 cycles
 E2 =    -0.2091166410D+01 EUMP2 =    -0.67162759838021D+03

 The electronic state is 1-A.
 Alpha  occ. eigenvalues --  -20.61052 -20.61039 -15.86064 -11.31353 -11.27912
 Alpha  occ. eigenvalues --  -11.27906 -11.27643 -11.26909 -11.26899 -11.20768
 Alpha  occ. eigenvalues --  -11.20395 -11.20320 -11.20090 -11.20028 -11.19267
 Alpha  occ. eigenvalues --   -1.60101  -1.39657  -1.19517  -1.08928  -1.07248
 Alpha  occ. eigenvalues --   -1.04907  -1.02311  -0.95775  -0.94761  -0.86309
 Alpha  occ. eigenvalues --   -0.85786  -0.82608  -0.78430  -0.77667  -0.77022
 Alpha  occ. eigenvalues --   -0.72278  -0.71414  -0.70625  -0.65172  -0.64911
 Alpha  occ. eigenvalues --   -0.63867  -0.62254  -0.59689  -0.58205  -0.56372
 Alpha  occ. eigenvalues --   -0.55416  -0.54039  -0.53240  -0.52998  -0.51477
 Alpha  occ. eigenvalues --   -0.51209  -0.49180  -0.49043  -0.48552  -0.46732
 Alpha  occ. eigenvalues --   -0.45481  -0.45025  -0.44567  -0.44415  -0.42576
 Alpha  occ. eigenvalues --   -0.37493  -0.36506
 Alpha virt. eigenvalues --    0.04830   0.11149   0.16330   0.21289   0.24002
 Alpha virt. eigenvalues --    0.25587   0.27211   0.27786   0.28203   0.28634
 Alpha virt. eigenvalues --    0.29256   0.30860   0.32392   0.32636   0.32774

 Mulliken charges:
               1
     1  C   -0.297828
     2  C   -0.298822
     3  C   -0.475078
     4  H    0.152221
     5  H    0.145999
     6  H    0.151699
     7  H    0.149271
     8  H    0.153754
     9  H    0.154929
    10  H    0.156883
    11  C   -0.298627
    12  C   -0.298344
    13  C   -0.478325
    14  H    0.155729
    15  H    0.143468
    16  H    0.159994
    17  H    0.143559
    18  H    0.142911
    19  H    0.174216
    20  H    0.157157
    21  C   -0.170428
    22  C   -0.218588
    23  C   -0.170727
    24  C    0.158292
    25  C   -0.170678
    26  C   -0.218574
    27  H    0.226239
    28  H    0.224018
    29  H    0.275779
    30  H    0.276206
    31  H    0.224103
    32  N    0.487903
    33  O   -0.457935
    34  O   -0.460378
 Sum of Mulliken charges =  -0.00000

 Dipole moment (field-independent basis, Debye):
    X=             -5.1072    Y=             -1.8562    Z=              1.3315  Tot=              5.5948
 Quadrupole moment (field-independent basis, Debye-Ang):
   XX=            -68.9580   YY=            -91.0110   ZZ=            -96.0402
   XY=              4.9314   XZ=             -3.4995   YZ=              1.2573

 Normal termination of Gaussian 16 at Wed May  5 18:44:45 2021.
