 Gaussian 16, Revision A.03,
 Gaussian 16:  EM64L-G16RevA.03 25-Dec-2016

 -------------
 #p 6-31g* mp2
 -------------

 ------------------------------------------------------
 Input file generated by CHIRIPA (05-May-2021 14:55:19)
 ------------------------------------------------------
 Symbolic Z-matrix:
 Charge =  0 Multiplicity = 1

                         Standard orientation:
 ---------------------------------------------------------------------
 Center     Atomic      Atomic             Coordinates (Angstroms)
 Number     Number       Type             X           Y           Z
 ---------------------------------------------------------------------
      1          6           0        0.285420   -0.953843    0.639582
      2          6           0        0.931886    0.051056    1.366754
      3          6           0        2.262635    0.381083    1.093371
      4          6           0        2.919704   -0.317186    0.081457
      5          6           0        2.302948   -1.323314   -0.660573
      6          6           0        0.971804   -1.636618   -0.369981
      7          1           0       -0.748491   -1.203721    0.858637
      8          1           0        0.401309    0.582973    2.151355
      9          1           0        2.787227    1.154699    1.640855
     10          1           0        2.857965   -1.836009   -1.436794
     11          1           0        0.472278   -2.417491   -0.936333
     12          7           0        4.328717    0.023347   -0.217071
     13          8           0        4.885551   -0.606643   -1.113557
     14          8           0        4.849589    0.913797    0.451082
     15          6           0       -4.085550    0.071592   -0.126828
     16          6           0       -3.847805   -1.431292    0.024165
     17          6           0       -5.148823   -2.230559    0.103661
     18          1           0       -4.685568    0.428500    0.721430
     19          1           0       -4.683698    0.252142   -1.030717
     20          1           0       -3.249110   -1.608842    0.926748
     21          1           0       -3.248121   -1.784627   -0.824451
     22          1           0       -5.747553   -2.082890   -0.800949
     23          1           0       -5.748548   -1.906107    0.960201
     24          1           0       -4.955560   -3.302430    0.211364
     25          6           0       -2.794403    0.884080   -0.207656
     26          6           0       -3.032147    2.386965   -0.358648
     27          6           0       -1.731130    3.186232   -0.438144
     28          1           0       -2.196254    0.703531    0.696233
     29          1           0       -2.194385    0.527173   -1.055913
     30          1           0       -3.631832    2.740300    0.489968
     31          1           0       -3.630843    2.564516   -1.261232
     32          1           0       -1.131405    2.861780   -1.294684
     33          1           0       -1.132400    3.038563    0.466465
     34          1           0       -1.924393    4.258104   -0.545847
 ---------------------------------------------------------------------

 SCF Done:  E(RHF) =  -669.534453291     A.U. after   15 cycles
 E2 =    -0.2093340882D+01 EUMP2 =    -0.67162779417241D+03

 The electronic state is 1-A.
 Alpha  occ. eigenvalues --  -20.60691 -20.60686 -15.85747 -11.31082 -11.27684
 Alpha  occ. eigenvalues --  -11.27680 -11.27327 -11.26663 -11.26645 -11.22852
 Alpha  occ. eigenvalues --  -11.22399 -11.22350 -11.22308 -11.22017 -11.21656
 Alpha  occ. eigenvalues --   -1.59768  -1.39322  -1.19267  -1.09429  -1.08649
 Alpha  occ. eigenvalues --   -1.04675  -1.04431  -0.96848  -0.95497  -0.87862
 Alpha  occ. eigenvalues --   -0.86071  -0.82348  -0.80537  -0.79278  -0.77388
 Alpha  occ. eigenvalues --   -0.71965  -0.71093  -0.70370  -0.66055  -0.64914
 Alpha  occ. eigenvalues --   -0.64677  -0.62038  -0.61820  -0.60235  -0.58484
 Alpha  occ. eigenvalues --   -0.56128  -0.55188  -0.53518  -0.53299  -0.52968
 Alpha  occ. eigenvalues --   -0.52766  -0.50792  -0.48840  -0.48721  -0.48716
 Alpha  occ. eigenvalues --   -0.47578  -0.46702  -0.46685  -0.44735  -0.44696
 Alpha  occ. eigenvalues --   -0.37168  -0.36282
 Alpha virt. eigenvalues --    0.05148   0.11253   0.16592   0.19554   0.22632
 Alpha virt. eigenvalues --    0.22865   0.24718   0.25728   0.26816   0.27831
 Alpha virt. eigenvalues --    0.29254   0.30474   0.31065   0.31419   0.31746

 Mulliken charges:
               1
     1  C   -0.170040
     2  C   -0.221330
     3  C   -0.170429
     4  C    0.157445
     5  C   -0.170323
     6  C   -0.224353
     7  H    0.236474
     8  H    0.222057
     9  H    0.275248
    10  H    0.275155
    11  H    0.223088
    12  N    0.488132
    13  O   -0.460929
    14  O   -0.460787
    15  C   -0.298010
    16  C   -0.304906
    17  C   -0.475229
    18  H    0.152128
    19  H    0.154068
    20  H    0.144761
    21  H    0.150228
    22  H    0.159116
    23  H    0.158167
    24  H    0.161747
    25  C   -0.300066
    26  C   -0.300692
    27  C   -0.474989
    28  H    0.139989
    29  H    0.153051
    30  H    0.152605
    31  H    0.154889
    32  H    0.159231
    33  H    0.151230
    34  H    0.163273
 Sum of Mulliken charges =  -0.00000

 Dipole moment (field-independent basis, Debye):
    X=             -5.2049    Y=             -1.1299    Z=              0.9481  Tot=              5.4099
 Quadrupole moment (field-independent basis, Debye-Ang):
   XX=           -124.3862   YY=            -92.2195   ZZ=            -91.3905
   XY=             -2.5837   XZ=              2.9175   YZ=              2.5258

 Normal termination of Gaussian 16 at Thu May  6 12:22:43 2021.
