 Gaussian 16, Revision A.03,
 Gaussian 16:  EM64L-G16RevA.03 25-Dec-2016

 -------------
 #p 6-31g* mp2
 -------------

 ------------------------------------------------------
 Input file generated by CHIRIPA (05-May-2021 14:53:18)
 ------------------------------------------------------
 Symbolic Z-matrix:
 Charge =  0 Multiplicity = 1

                         Standard orientation:
 ---------------------------------------------------------------------
 Center     Atomic      Atomic             Coordinates (Angstroms)
 Number     Number       Type             X           Y           Z
 ---------------------------------------------------------------------
      1          6           0       -3.109986    1.128750    0.237658
      2          6           0       -1.832419    1.884808    0.603969
      3          6           0       -2.069341    3.381341    0.809033
      4          1           0       -3.535750    1.562799   -0.677367
      5          1           0       -3.855945    1.277558    1.030624
      6          1           0       -1.088611    1.733484   -0.188790
      7          1           0       -1.409543    1.448785    1.518122
      8          1           0       -2.792092    3.550230    1.613837
      9          1           0       -2.469337    3.836547   -0.102774
     10          1           0       -1.142953    3.902396    1.070119
     11          6           0       -2.889296   -0.368469    0.029428
     12          6           0       -4.166863   -1.124527   -0.336883
     13          6           0       -3.929941   -2.621060   -0.541947
     14          1           0       -2.143337   -0.517277   -0.763539
     15          1           0       -2.463532   -0.802518    0.944453
     16          1           0       -4.589739   -0.688504   -1.251036
     17          1           0       -4.910671   -0.973204    0.455876
     18          1           0       -3.529945   -3.076266    0.369859
     19          1           0       -3.207190   -2.789949   -1.346751
     20          1           0       -4.856329   -3.142116   -0.803034
     21          6           0        2.004302   -2.704504    0.570013
     22          6           0        0.957128   -1.988418   -0.019196
     23          6           0        1.133747   -0.653969   -0.396825
     24          6           0        2.376258   -0.064235   -0.169523
     25          6           0        3.438909   -0.751218    0.415385
     26          6           0        3.239672   -2.084712    0.785045
     27          1           0        1.858315   -3.740765    0.860268
     28          1           0       -0.003357   -2.467187   -0.187401
     29          1           0        0.340112   -0.076241   -0.854855
     30          1           0        4.384983   -0.246884    0.570332
     31          1           0        4.054709   -2.638386    1.242435
     32          7           0        2.575210    1.347981   -0.565083
     33          8           0        3.679476    1.844681   -0.354084
     34          8           0        1.623113    1.931433   -1.078632
 ---------------------------------------------------------------------

 SCF Done:  E(RHF) =  -669.535407791     A.U. after   15 cycles
 E2 =    -0.2093612472D+01 EUMP2 =    -0.67162902026297D+03

 The electronic state is 1-A.
 Alpha  occ. eigenvalues --  -20.60830 -20.60825 -15.85860 -11.31138 -11.27716
 Alpha  occ. eigenvalues --  -11.27658 -11.27442 -11.26719 -11.26663 -11.22114
 Alpha  occ. eigenvalues --  -11.21980 -11.21755 -11.21491 -11.21307 -11.20623
 Alpha  occ. eigenvalues --   -1.59892  -1.39450  -1.19310  -1.08728  -1.08712
 Alpha  occ. eigenvalues --   -1.04699  -1.03673  -0.96164  -0.95574  -0.87179
 Alpha  occ. eigenvalues --   -0.86107  -0.82411  -0.79817  -0.78579  -0.77394
 Alpha  occ. eigenvalues --   -0.72090  -0.71202  -0.70436  -0.65381  -0.64967
 Alpha  occ. eigenvalues --   -0.64686  -0.62062  -0.61044  -0.59576  -0.57742
 Alpha  occ. eigenvalues --   -0.55480  -0.55218  -0.53046  -0.52866  -0.52734
 Alpha  occ. eigenvalues --   -0.52583  -0.50125  -0.48897  -0.48834  -0.48082
 Alpha  occ. eigenvalues --   -0.46872  -0.46005  -0.45866  -0.44789  -0.43952
 Alpha  occ. eigenvalues --   -0.37295  -0.36282
 Alpha virt. eigenvalues --    0.05034   0.11316   0.16503   0.19786   0.23035
 Alpha virt. eigenvalues --    0.23449   0.24827   0.26508   0.27168   0.28519
 Alpha virt. eigenvalues --    0.29995   0.30683   0.31380   0.31594   0.32564

 Mulliken charges:
               1
     1  C   -0.298267
     2  C   -0.313404
     3  C   -0.474440
     4  H    0.151986
     5  H    0.150197
     6  H    0.170215
     7  H    0.148437
     8  H    0.150988
     9  H    0.156257
    10  H    0.168378
    11  C   -0.302626
    12  C   -0.298810
    13  C   -0.477797
    14  H    0.140069
    15  H    0.149091
    16  H    0.155463
    17  H    0.155269
    18  H    0.152370
    19  H    0.151326
    20  H    0.164325
    21  C   -0.170783
    22  C   -0.223710
    23  C   -0.171946
    24  C    0.157275
    25  C   -0.170554
    26  C   -0.218975
    27  H    0.225523
    28  H    0.227206
    29  H    0.282138
    30  H    0.275187
    31  H    0.223137
    32  N    0.489388
    33  O   -0.459690
    34  O   -0.463222
 Sum of Mulliken charges =  -0.00000

 Dipole moment (field-independent basis, Debye):
    X=             -0.7413    Y=             -4.8201    Z=              1.3860  Tot=              5.0699
 Quadrupole moment (field-independent basis, Debye-Ang):
   XX=            -93.3438   YY=            -95.5984   ZZ=            -94.6015
   XY=            -12.0808   XZ=              5.2275   YZ=              0.1829

 Normal termination of Gaussian 16 at Wed May  5 23:38:52 2021.
