 Gaussian 16, Revision A.03,
 Gaussian 16:  EM64L-G16RevA.03 25-Dec-2016

 -------------
 #p 6-31g* mp2
 -------------

 ------------------------------------------------------
 Input file generated by CHIRIPA (05-May-2021 14:55:21)
 ------------------------------------------------------
 Symbolic Z-matrix:
 Charge =  0 Multiplicity = 1

                         Standard orientation:
 ---------------------------------------------------------------------
 Center     Atomic      Atomic             Coordinates (Angstroms)
 Number     Number       Type             X           Y           Z
 ---------------------------------------------------------------------
      1          6           0       -1.125945   -0.863427    2.319087
      2          6           0       -0.536613   -1.225654    1.103356
      3          6           0       -1.174620   -0.941026   -0.107627
      4          6           0       -2.406638   -0.290127   -0.065749
      5          6           0       -3.019368    0.083549    1.129332
      6          6           0       -2.363261   -0.211132    2.328178
      7          1           0       -0.623296   -1.088438    3.255094
      8          1           0        0.424233   -1.732328    1.093260
      9          1           0       -0.740937   -1.210172   -1.063084
     10          1           0       -3.977919    0.587651    1.107410
     11          1           0       -2.823308    0.071360    3.270834
     12          7           0       -3.091649    0.016517   -1.341339
     13          8           0       -4.176440    0.590783   -1.277440
     14          8           0       -2.530798   -0.323208   -2.380892
     15          6           0        3.204530   -0.220433    0.098512
     16          6           0        3.382783   -1.309847   -0.959497
     17          6           0        3.920717   -2.617200   -0.377045
     18          1           0        4.169055   -0.034804    0.590630
     19          1           0        2.520867   -0.584385    0.877960
     20          1           0        4.064822   -0.943432   -1.737430
     21          1           0        2.417763   -1.492768   -1.449285
     22          1           0        3.238939   -3.008864    0.384781
     23          1           0        4.895356   -2.456407    0.094998
     24          1           0        4.040491   -3.382094   -1.150642
     25          6           0        2.667444    1.092536   -0.468391
     26          6           0        2.489190    2.181951    0.589619
     27          6           0        1.951257    3.489305    0.007168
     28          1           0        3.351107    1.456490   -1.247837
     29          1           0        1.702919    0.906908   -0.960508
     30          1           0        3.454211    2.364872    1.079407
     31          1           0        1.807152    1.815536    1.367552
     32          1           0        0.976618    3.328512   -0.464876
     33          1           0        2.633035    3.880969   -0.754659
     34          1           0        1.831483    4.254198    0.780765
 ---------------------------------------------------------------------

 SCF Done:  E(RHF) =  -669.535445013     A.U. after   15 cycles
 E2 =    -0.2092897242D+01 EUMP2 =    -0.67162834225461D+03

 The electronic state is 1-A.
 Alpha  occ. eigenvalues --  -20.60825 -20.60819 -15.85879 -11.31269 -11.27845
 Alpha  occ. eigenvalues --  -11.27832 -11.27581 -11.26853 -11.26843 -11.22303
 Alpha  occ. eigenvalues --  -11.22055 -11.21922 -11.21804 -11.21774 -11.21236
 Alpha  occ. eigenvalues --   -1.59900  -1.39453  -1.19444  -1.08977  -1.08826
 Alpha  occ. eigenvalues --   -1.04848  -1.04023  -0.96466  -0.95662  -0.87479
 Alpha  occ. eigenvalues --   -0.86246  -0.82495  -0.80098  -0.78763  -0.77542
 Alpha  occ. eigenvalues --   -0.72095  -0.71224  -0.70545  -0.65743  -0.65090
 Alpha  occ. eigenvalues --   -0.64783  -0.62201  -0.61392  -0.59842  -0.58068
 Alpha  occ. eigenvalues --   -0.55782  -0.55335  -0.53177  -0.53137  -0.52977
 Alpha  occ. eigenvalues --   -0.52844  -0.50408  -0.48861  -0.48850  -0.48399
 Alpha  occ. eigenvalues --   -0.47151  -0.46287  -0.46208  -0.44852  -0.44278
 Alpha  occ. eigenvalues --   -0.37413  -0.36427
 Alpha virt. eigenvalues --    0.04971   0.11089   0.16360   0.18589   0.23124
 Alpha virt. eigenvalues --    0.23508   0.24786   0.25588   0.27478   0.28653
 Alpha virt. eigenvalues --    0.29343   0.30080   0.31248   0.31427   0.32055

 Mulliken charges:
               1
     1  C   -0.172494
     2  C   -0.219769
     3  C   -0.173834
     4  C    0.158488
     5  C   -0.170605
     6  C   -0.218240
     7  H    0.226343
     8  H    0.228622
     9  H    0.276605
    10  H    0.275990
    11  H    0.223919
    12  N    0.488061
    13  O   -0.460090
    14  O   -0.460243
    15  C   -0.300646
    16  C   -0.301909
    17  C   -0.475452
    18  H    0.152474
    19  H    0.140343
    20  H    0.158076
    21  H    0.148144
    22  H    0.147307
    23  H    0.158393
    24  H    0.164527
    25  C   -0.299031
    26  C   -0.300152
    27  C   -0.476355
    28  H    0.152597
    29  H    0.151779
    30  H    0.151291
    31  H    0.150385
    32  H    0.158883
    33  H    0.156476
    34  H    0.160114
 Sum of Mulliken charges =  -0.00000

 Dipole moment (field-independent basis, Debye):
    X=              2.4593    Y=             -1.0050    Z=              4.4330  Tot=              5.1682
 Quadrupole moment (field-independent basis, Debye-Ang):
   XX=           -102.5491   YY=            -94.7573   ZZ=            -94.4949
   XY=              0.7756   XZ=            -13.8918   YZ=              0.1774

 Normal termination of Gaussian 16 at Wed May  5 18:57:33 2021.
