 Gaussian 16, Revision A.03,
 Gaussian 16:  EM64L-G16RevA.03 25-Dec-2016

 -------------
 #p 6-31g* mp2
 -------------

 ------------------------------------------------------
 Input file generated by CHIRIPA (05-May-2021 14:57:22)
 ------------------------------------------------------
 Symbolic Z-matrix:
 Charge =  0 Multiplicity = 1

                         Standard orientation:
 ---------------------------------------------------------------------
 Center     Atomic      Atomic             Coordinates (Angstroms)
 Number     Number       Type             X           Y           Z
 ---------------------------------------------------------------------
      1          6           0       -2.843130    1.893636   -1.592229
      2          6           0       -2.026274    0.785469   -1.344778
      3          6           0       -2.439957   -0.219201   -0.464974
      4          6           0       -3.682097   -0.082934    0.152933
      5          6           0       -4.518550    1.009115   -0.073044
      6          6           0       -4.084472    2.001732   -0.956693
      7          1           0       -2.513850    2.669407   -2.277176
      8          1           0       -1.061736    0.698878   -1.836929
      9          1           0       -1.827515   -1.087735   -0.255259
     10          1           0       -5.474825    1.067591    0.432461
     11          1           0       -4.720943    2.861235   -1.146965
     12          7           0       -4.130840   -1.140153    1.086377
     13          8           0       -5.229577   -0.996597    1.618171
     14          8           0       -3.375330   -2.092339    1.268542
     15          6           0        4.762746    1.317412    1.746851
     16          6           0        3.377187    1.408413    1.578133
     17          6           0        2.726881    0.632637    0.613861
     18          6           0        3.496515   -0.227498   -0.167881
     19          6           0        4.878445   -0.340581   -0.023742
     20          6           0        5.507639    0.444745    0.946785
     21          1           0        5.259720    1.923764    2.498351
     22          1           0        2.796152    2.085276    2.198051
     23          1           0        1.655517    0.683305    0.462104
     24          1           0        5.430869   -1.024401   -0.656700
     25          1           0        6.583818    0.371999    1.075599
     26          7           0        2.819240   -1.053832   -1.192024
     27          8           0        3.519899   -1.803939   -1.868083
     28          8           0        1.600557   -0.935761   -1.299297
 ---------------------------------------------------------------------

 SCF Done:  E(RHF) =  -868.339853358     A.U. after   16 cycles
 E2 =    -0.2598705201D+01 EUMP2 =    -0.87093855855887D+03

 The electronic state is 1-A.
 Alpha  occ. eigenvalues --  -20.61529 -20.61453 -20.60356 -20.60342 -15.86537
 Alpha  occ. eigenvalues --  -15.85398 -11.31681 -11.30681 -11.28247 -11.28203
 Alpha  occ. eigenvalues --  -11.27913 -11.27294 -11.27190 -11.27173 -11.27116
 Alpha  occ. eigenvalues --  -11.26984 -11.26316 -11.26080  -1.60547  -1.59430
 Alpha  occ. eigenvalues --   -1.40115  -1.38984  -1.19830  -1.18846  -1.09261
 Alpha  occ. eigenvalues --   -1.08268  -1.05202  -1.04205  -0.96135  -0.95111
 Alpha  occ. eigenvalues --   -0.86611  -0.85616  -0.82985  -0.81917  -0.78061
 Alpha  occ. eigenvalues --   -0.76966  -0.72771  -0.71851  -0.71617  -0.70938
 Alpha  occ. eigenvalues --   -0.70756  -0.69958  -0.65491  -0.65201  -0.64483
 Alpha  occ. eigenvalues --   -0.64173  -0.62558  -0.61511  -0.55704  -0.54747
 Alpha  occ. eigenvalues --   -0.53539  -0.53293  -0.52590  -0.52258  -0.49526
 Alpha  occ. eigenvalues --   -0.49477  -0.48378  -0.48367  -0.45564  -0.44406
 Alpha  occ. eigenvalues --   -0.37791  -0.36865  -0.36794  -0.35826
 Alpha virt. eigenvalues --    0.04455   0.05506   0.10861   0.11811   0.15986
 Alpha virt. eigenvalues --    0.16974   0.20737   0.22049   0.26327   0.27251
 Alpha virt. eigenvalues --    0.28599   0.28920   0.30691   0.31432   0.32785

 Mulliken charges:
               1
     1  C   -0.172347
     2  C   -0.228604
     3  C   -0.175952
     4  C    0.158030
     5  C   -0.172553
     6  C   -0.219061
     7  H    0.223686
     8  H    0.240963
     9  H    0.284618
    10  H    0.273436
    11  H    0.220782
    12  N    0.487762
    13  O   -0.463041
    14  O   -0.459277
    15  C   -0.169994
    16  C   -0.218256
    17  C   -0.170696
    18  C    0.158629
    19  C   -0.170386
    20  C   -0.218348
    21  H    0.227602
    22  H    0.225400
    23  H    0.271813
    24  H    0.276671
    25  H    0.225288
    26  N    0.492285
    27  O   -0.454534
    28  O   -0.473918
 Sum of Mulliken charges =  -0.00000

 Dipole moment (field-independent basis, Debye):
    X=              4.3963    Y=              6.5560    Z=              0.3094  Tot=              7.8997
 Quadrupole moment (field-independent basis, Debye-Ang):
   XX=            -92.4300   YY=           -105.9335   ZZ=           -107.8428
   XY=             -8.4000   XZ=             22.9961   YZ=              0.8539

 Normal termination of Gaussian 16 at Fri May  7 03:16:31 2021.
