 Gaussian 16, Revision A.03,
 Gaussian 16:  EM64L-G16RevA.03 25-Dec-2016

 -------------
 #p 6-31g* mp2
 -------------

 ------------------------------------------------------
 Input file generated by CHIRIPA (05-May-2021 14:55:24)
 ------------------------------------------------------
 Symbolic Z-matrix:
 Charge =  0 Multiplicity = 1

                         Standard orientation:
 ---------------------------------------------------------------------
 Center     Atomic      Atomic             Coordinates (Angstroms)
 Number     Number       Type             X           Y           Z
 ---------------------------------------------------------------------
      1          6           0        2.426537   -2.310755    0.198628
      2          6           0        3.043947   -1.814488   -0.954215
      3          6           0        3.417453   -0.469786   -1.036789
      4          6           0        3.157317    0.354244    0.057099
      5          6           0        2.543808   -0.110402    1.219425
      6          6           0        2.178875   -1.458630    1.279862
      7          1           0        2.139719   -3.356721    0.254175
      8          1           0        3.237523   -2.473951   -1.795453
      9          1           0        3.896871   -0.059302   -1.917175
     10          1           0        2.363886    0.571311    2.041808
     11          1           0        1.699537   -1.841281    2.176443
     12          7           0        3.548193    1.779687   -0.018600
     13          8           0        3.308002    2.485120    0.958799
     14          8           0        4.087353    2.164524   -1.053900
     15          6           0       -3.322358   -0.360345   -0.456659
     16          6           0       -2.356050   -1.166416    0.411949
     17          6           0       -1.087340   -1.574457   -0.337498
     18          1           0       -3.592039   -0.953365   -1.341274
     19          1           0       -2.809268    0.537943   -0.827083
     20          1           0       -2.871237   -2.062209    0.781752
     21          1           0       -2.088789   -0.571483    1.294695
     22          1           0       -0.548560   -0.690121   -0.692840
     23          1           0       -1.335455   -2.189317   -1.208698
     24          1           0       -0.410693   -2.149698    0.302115
     25          6           0       -4.595455    0.054899    0.278545
     26          6           0       -5.561764    0.860972   -0.590063
     27          6           0       -6.830474    1.269013    0.159385
     28          1           0       -5.108547   -0.843387    0.648969
     29          1           0       -4.325775    0.647921    1.163161
     30          1           0       -5.829025    0.266038   -1.472809
     31          1           0       -5.046577    1.756765   -0.959866
     32          1           0       -6.582360    1.883873    1.030584
     33          1           0       -7.369253    0.384676    0.514726
     34          1           0       -7.507121    1.844254   -0.480229
 ---------------------------------------------------------------------

 SCF Done:  E(RHF) =  -669.533808578     A.U. after   15 cycles
 E2 =    -0.2092870276D+01 EUMP2 =    -0.67162667885417D+03

 The electronic state is 1-A.
 Alpha  occ. eigenvalues --  -20.60777 -20.60772 -15.85832 -11.31194 -11.27768
 Alpha  occ. eigenvalues --  -11.27749 -11.27483 -11.26767 -11.26747 -11.21922
 Alpha  occ. eigenvalues --  -11.21707 -11.21602 -11.21523 -11.21358 -11.21153
 Alpha  occ. eigenvalues --   -1.59854  -1.39407  -1.19369  -1.08779  -1.08624
 Alpha  occ. eigenvalues --   -1.04773  -1.03741  -0.96198  -0.95597  -0.87219
 Alpha  occ. eigenvalues --   -0.86171  -0.82432  -0.79815  -0.78438  -0.77478
 Alpha  occ. eigenvalues --   -0.72050  -0.71179  -0.70488  -0.65259  -0.65026
 Alpha  occ. eigenvalues --   -0.64786  -0.62124  -0.61140  -0.59624  -0.57818
 Alpha  occ. eigenvalues --   -0.55502  -0.55277  -0.53556  -0.52868  -0.52619
 Alpha  occ. eigenvalues --   -0.52426  -0.50092  -0.48809  -0.48804  -0.48133
 Alpha  occ. eigenvalues --   -0.46834  -0.45982  -0.45896  -0.44814  -0.44027
 Alpha  occ. eigenvalues --   -0.37225  -0.36336
 Alpha virt. eigenvalues --    0.05033   0.11201   0.16494   0.20971   0.22747
 Alpha virt. eigenvalues --    0.24201   0.26432   0.26834   0.27303   0.27785
 Alpha virt. eigenvalues --    0.28474   0.30860   0.31158   0.31683   0.31910

 Mulliken charges:
               1
     1  C   -0.167577
     2  C   -0.218210
     3  C   -0.171284
     4  C    0.157885
     5  C   -0.171838
     6  C   -0.215653
     7  H    0.225813
     8  H    0.223592
     9  H    0.275652
    10  H    0.275361
    11  H    0.223353
    12  N    0.488035
    13  O   -0.460596
    14  O   -0.460445
    15  C   -0.298818
    16  C   -0.300129
    17  C   -0.473173
    18  H    0.149398
    19  H    0.152100
    20  H    0.149839
    21  H    0.150422
    22  H    0.160204
    23  H    0.151889
    24  H    0.152921
    25  C   -0.298412
    26  C   -0.299980
    27  C   -0.475853
    28  H    0.148675
    29  H    0.150222
    30  H    0.151691
    31  H    0.153522
    32  H    0.155769
    33  H    0.154647
    34  H    0.160977
 Sum of Mulliken charges =  -0.00000

 Dipole moment (field-independent basis, Debye):
    X=             -1.3577    Y=             -4.9969    Z=              0.2353  Tot=              5.1834
 Quadrupole moment (field-independent basis, Debye-Ang):
   XX=           -104.3008   YY=            -98.3545   ZZ=            -90.7054
   XY=            -16.3124   XZ=             -0.6126   YZ=              0.7261

 Normal termination of Gaussian 16 at Thu May  6 07:56:28 2021.
