 Gaussian 16, Revision A.03,
 Gaussian 16:  EM64L-G16RevA.03 25-Dec-2016

 -------------
 #p 6-31g* mp2
 -------------

 ------------------------------------------------------
 Input file generated by CHIRIPA (05-May-2021 14:51:12)
 ------------------------------------------------------
 Symbolic Z-matrix:
 Charge =  0 Multiplicity = 1

                         Standard orientation:
 ---------------------------------------------------------------------
 Center     Atomic      Atomic             Coordinates (Angstroms)
 Number     Number       Type             X           Y           Z
 ---------------------------------------------------------------------
      1          6           0       -3.469736    0.221338   -0.309346
      2          6           0       -3.367957   -1.173279    0.309257
      3          6           0       -4.360007   -2.164225   -0.300378
      4          1           0       -4.493360    0.598866   -0.180459
      5          1           0       -3.297648    0.148013   -1.392122
      6          1           0       -3.538817   -1.097153    1.390750
      7          1           0       -2.344406   -1.547451    0.179052
      8          1           0       -4.187198   -2.269714   -1.376301
      9          1           0       -5.388397   -1.816857   -0.157719
     10          1           0       -4.270047   -3.154741    0.156400
     11          6           0       -2.484283    1.223195    0.289733
     12          6           0       -2.586062    2.617812   -0.328870
     13          6           0       -1.594012    3.608758    0.280765
     14          1           0       -2.656372    1.296520    1.372509
     15          1           0       -1.460659    0.845667    0.160846
     16          1           0       -3.609614    2.991984   -0.198665
     17          1           0       -2.415202    2.541686   -1.410364
     18          1           0       -0.565623    3.261390    0.138106
     19          1           0       -1.766821    3.714247    1.356688
     20          1           0       -1.683973    4.599274   -0.176013
     21          6           0        3.521630   -0.357157   -0.382004
     22          6           0        4.231736    0.725300    0.431643
     23          6           0        5.318594    1.446793   -0.365841
     24          1           0        4.263171   -1.086085   -0.736580
     25          1           0        3.078464    0.098978   -1.278074
     26          1           0        4.672250    0.267500    1.326620
     27          1           0        3.488391    1.451633    0.784484
     28          1           0        4.890928    1.929598   -1.250488
     29          1           0        6.081513    0.738738   -0.705273
     30          1           0        5.813273    2.216390    0.234887
     31          6           0        2.432390   -1.087377    0.401617
     32          6           0        1.722284   -2.169834   -0.412030
     33          6           0        0.635425   -2.891326    0.385454
     34          1           0        2.875555   -1.543511    1.297687
     35          1           0        1.690848   -0.358448    0.756193
     36          1           0        2.465628   -2.896166   -0.764871
     37          1           0        1.281770   -1.712033   -1.307006
     38          1           0       -0.127494   -2.183271    0.724886
     39          1           0        1.063091   -3.374131    1.270102
     40          1           0        0.140746   -3.660923   -0.215274
 ---------------------------------------------------------------------

 SCF Done:  E(RHF) =  -470.733321639     A.U. after   11 cycles
 E2 =    -0.1582904572D+01 EUMP2 =    -0.47231622621151D+03

 The electronic state is 1-A.
 Alpha  occ. eigenvalues --  -11.21644 -11.21642 -11.21619 -11.21565 -11.21444
 Alpha  occ. eigenvalues --  -11.21438 -11.21378 -11.21372 -11.21116 -11.21084
 Alpha  occ. eigenvalues --  -11.21083 -11.21053  -1.08469  -1.08447  -1.03570
 Alpha  occ. eigenvalues --   -1.03532  -0.96013  -0.95990  -0.87043  -0.86994
 Alpha  occ. eigenvalues --   -0.79673  -0.79560  -0.78309  -0.78233  -0.65182
 Alpha  occ. eigenvalues --   -0.65007  -0.61072  -0.60842  -0.59377  -0.59361
 Alpha  occ. eigenvalues --   -0.57628  -0.57594  -0.55350  -0.55243  -0.52706
 Alpha  occ. eigenvalues --   -0.52682  -0.52463  -0.52389  -0.50079  -0.49849
 Alpha  occ. eigenvalues --   -0.48023  -0.47847  -0.46811  -0.46510  -0.45955
 Alpha  occ. eigenvalues --   -0.45772  -0.45763  -0.45484  -0.43814  -0.43799
 Alpha virt. eigenvalues --    0.20378   0.23279   0.23701   0.24340   0.25749
 Alpha virt. eigenvalues --    0.26985   0.27116   0.27513   0.27883   0.29399
 Alpha virt. eigenvalues --    0.30850   0.31587   0.31688   0.31831   0.32043

 Mulliken charges:
               1
     1  C   -0.297698
     2  C   -0.308229
     3  C   -0.475164
     4  H    0.149795
     5  H    0.149313
     6  H    0.151592
     7  H    0.160929
     8  H    0.154922
     9  H    0.154983
    10  H    0.160580
    11  C   -0.299384
    12  C   -0.299655
    13  C   -0.475587
    14  H    0.149837
    15  H    0.148938
    16  H    0.152361
    17  H    0.151949
    18  H    0.154491
    19  H    0.155410
    20  H    0.160499
    21  C   -0.298294
    22  C   -0.299695
    23  C   -0.475721
    24  H    0.149821
    25  H    0.149240
    26  H    0.152082
    27  H    0.152007
    28  H    0.155156
    29  H    0.155194
    30  H    0.160435
    31  C   -0.299380
    32  C   -0.299543
    33  C   -0.482260
    34  H    0.149933
    35  H    0.150204
    36  H    0.152285
    37  H    0.151282
    38  H    0.161456
    39  H    0.155715
    40  H    0.160202
 Sum of Mulliken charges =  -0.00000

 Dipole moment (field-independent basis, Debye):
    X=              0.0041    Y=             -0.0091    Z=              0.0117  Tot=              0.0153
 Quadrupole moment (field-independent basis, Debye-Ang):
   XX=            -84.8861   YY=            -85.2648   ZZ=            -84.5059
   XY=             -1.7367   XZ=             -0.1261   YZ=             -0.0594

 Normal termination of Gaussian 16 at Thu May  6 03:55:37 2021.
