 Gaussian 16, Revision A.03,
 Gaussian 16:  EM64L-G16RevA.03 25-Dec-2016

 -------------
 #p 6-31g* mp2
 -------------

 ------------------------------------------------------
 Input file generated by CHIRIPA (05-May-2021 14:57:26)
 ------------------------------------------------------
 Symbolic Z-matrix:
 Charge =  0 Multiplicity = 1

                         Standard orientation:
 ---------------------------------------------------------------------
 Center     Atomic      Atomic             Coordinates (Angstroms)
 Number     Number       Type             X           Y           Z
 ---------------------------------------------------------------------
      1          6           0       -2.291627    2.776199   -0.149114
      2          6           0       -1.398364    2.013248   -0.908396
      3          6           0       -1.543255    0.625249   -0.992138
      4          6           0       -2.597441    0.030332   -0.300722
      5          6           0       -3.503749    0.763196    0.464005
      6          6           0       -3.339621    2.149842    0.533460
      7          1           0       -2.171600    3.853904   -0.089610
      8          1           0       -0.583549    2.496990   -1.439541
      9          1           0       -0.866128    0.010525   -1.572681
     10          1           0       -4.306208    0.252581    0.982415
     11          1           0       -4.034851    2.739836    1.123890
     12          7           0       -2.761014   -1.438364   -0.381813
     13          8           0       -3.698017   -1.938512    0.236665
     14          8           0       -1.949122   -2.061570   -1.062315
     15          6           0        4.550484    1.110531   -0.442742
     16          6           0        3.572034    1.671198    0.384791
     17          6           0        2.470692    0.914299    0.795520
     18          6           0        2.379063   -0.406087    0.357940
     19          6           0        3.337439   -0.993102   -0.466814
     20          6           0        4.430275   -0.217488   -0.865158
     21          1           0        5.402729    1.705778   -0.756995
     22          1           0        3.662786    2.702300    0.714390
     23          1           0        1.698668    1.323280    1.435935
     24          1           0        3.219550   -2.023640   -0.779086
     25          1           0        5.188629   -0.655536   -1.507854
     26          7           0        1.217624   -1.217289    0.786205
     27          8           0        1.160051   -2.378285    0.386942
     28          8           0        0.386853   -0.676753    1.513032
 ---------------------------------------------------------------------

 SCF Done:  E(RHF) =  -868.336153015     A.U. after   16 cycles
 E2 =    -0.2603233869D+01 EUMP2 =    -0.87093938688388D+03

 The electronic state is 1-A.
 Alpha  occ. eigenvalues --  -20.60738 -20.60651 -20.59624 -20.59553 -15.85716
 Alpha  occ. eigenvalues --  -15.84646 -11.31346 -11.30289 -11.27960 -11.27901
 Alpha  occ. eigenvalues --  -11.27716 -11.27020 -11.26988 -11.26961 -11.26914
 Alpha  occ. eigenvalues --  -11.26815 -11.26112 -11.26041  -1.59754  -1.58632
 Alpha  occ. eigenvalues --   -1.39300  -1.38192  -1.19542  -1.18517  -1.08887
 Alpha  occ. eigenvalues --   -1.07873  -1.04969  -1.04012  -0.95677  -0.94667
 Alpha  occ. eigenvalues --   -0.86350  -0.85406  -0.82500  -0.81522  -0.77511
 Alpha  occ. eigenvalues --   -0.76507  -0.71944  -0.71210  -0.70856  -0.70622
 Alpha  occ. eigenvalues --   -0.69853  -0.69699  -0.65176  -0.64959  -0.64209
 Alpha  occ. eigenvalues --   -0.64066  -0.62300  -0.61384  -0.55449  -0.54558
 Alpha  occ. eigenvalues --   -0.53304  -0.53050  -0.52278  -0.52149  -0.48743
 Alpha  occ. eigenvalues --   -0.48676  -0.47665  -0.47623  -0.44645  -0.43513
 Alpha  occ. eigenvalues --   -0.37548  -0.36630  -0.36441  -0.35568
 Alpha virt. eigenvalues --    0.04996   0.06096   0.11043   0.12025   0.16444
 Alpha virt. eigenvalues --    0.17520   0.21221   0.21925   0.27110   0.27725
 Alpha virt. eigenvalues --    0.28172   0.28799   0.30727   0.31379   0.32380

 Mulliken charges:
               1
     1  C   -0.172875
     2  C   -0.221619
     3  C   -0.167985
     4  C    0.174661
     5  C   -0.169006
     6  C   -0.218159
     7  H    0.219674
     8  H    0.216349
     9  H    0.270243
    10  H    0.274911
    11  H    0.220064
    12  N    0.491059
    13  O   -0.463812
    14  O   -0.455449
    15  C   -0.171623
    16  C   -0.220292
    17  C   -0.174158
    18  C    0.154790
    19  C   -0.171410
    20  C   -0.218848
    21  H    0.225537
    22  H    0.221690
    23  H    0.275754
    24  H    0.279417
    25  H    0.224713
    26  N    0.485881
    27  O   -0.445276
    28  O   -0.464232
 Sum of Mulliken charges =  -0.00000

 Dipole moment (field-independent basis, Debye):
    X=              4.7235    Y=              7.5506    Z=             -1.1518  Tot=              8.9805
 Quadrupole moment (field-independent basis, Debye-Ang):
   XX=            -85.5353   YY=           -104.8789   ZZ=           -104.3372
   XY=            -10.0045   XZ=             -7.2133   YZ=              2.7721

 Normal termination of Gaussian 16 at Thu May  6 14:45:43 2021.
