 Gaussian 16, Revision A.03,
 Gaussian 16:  EM64L-G16RevA.03 25-Dec-2016

 -------------
 #p 6-31g* mp2
 -------------

 ------------------------------------------------------
 Input file generated by CHIRIPA (05-May-2021 14:51:08)
 ------------------------------------------------------
 Symbolic Z-matrix:
 Charge =  0 Multiplicity = 1

                         Standard orientation:
 ---------------------------------------------------------------------
 Center     Atomic      Atomic             Coordinates (Angstroms)
 Number     Number       Type             X           Y           Z
 ---------------------------------------------------------------------
      1          6           0       -2.921172    1.410688   -0.144490
      2          6           0       -1.787044    2.199675    0.510673
      3          6           0       -1.955279    3.711928    0.360408
      4          1           0       -2.972392    1.671225   -1.210531
      5          1           0       -3.877655    1.720024    0.299184
      6          1           0       -0.832855    1.887947    0.066866
      7          1           0       -1.738395    1.937086    1.575237
      8          1           0       -2.892401    4.042808    0.819671
      9          1           0       -1.981715    3.993390   -0.697270
     10          1           0       -1.133600    4.256498    0.835957
     11          6           0       -2.767118   -0.102551   -0.002707
     12          6           0       -3.901246   -0.891537   -0.657870
     13          6           0       -3.733010   -2.403791   -0.507605
     14          1           0       -1.810635   -0.411887   -0.446381
     15          1           0       -2.715898   -0.363087    1.063334
     16          1           0       -3.949894   -0.628948   -1.722434
     17          1           0       -4.855435   -0.579809   -0.214063
     18          1           0       -3.706575   -2.685252    0.550073
     19          1           0       -2.795889   -2.734671   -0.966868
     20          1           0       -4.554690   -2.948361   -0.983154
     21          6           0        2.498135   -1.194573    0.487801
     22          6           0        1.054023   -1.455924    0.058589
     23          6           0        0.375192   -2.539783    0.896581
     24          1           0        3.070685   -2.129303    0.414236
     25          1           0        2.511342   -0.902475    1.546998
     26          1           0        1.043412   -1.746100   -0.999854
     27          1           0        0.484890   -0.520421    0.133002
     28          1           0        0.356277   -2.254335    1.953351
     29          1           0        0.917971   -3.486980    0.814059
     30          1           0       -0.656243   -2.710492    0.572759
     31          6           0        3.190155   -0.113564   -0.340604
     32          6           0        4.634267    0.147786    0.088608
     33          6           0        5.313098    1.231646   -0.749384
     34          1           0        3.176948   -0.405663   -1.399801
     35          1           0        2.617605    0.821165   -0.267039
     36          1           0        5.203400   -0.787718    0.014195
     37          1           0        4.644878    0.437963    1.147051
     38          1           0        4.770319    2.178842   -0.666862
     39          1           0        5.332014    0.946198   -1.806154
     40          1           0        6.344533    1.402354   -0.425562
 ---------------------------------------------------------------------

 SCF Done:  E(RHF) =  -470.732547701     A.U. after   11 cycles
 E2 =    -0.1584491107D+01 EUMP2 =    -0.47231703880784D+03

 The electronic state is 1-A.
 Alpha  occ. eigenvalues --  -11.21657 -11.21611 -11.21595 -11.21540 -11.21403
 Alpha  occ. eigenvalues --  -11.21390 -11.21325 -11.21315 -11.21111 -11.21109
 Alpha  occ. eigenvalues --  -11.21068 -11.20959  -1.08477  -1.08386  -1.03576
 Alpha  occ. eigenvalues --   -1.03491  -0.96011  -0.95946  -0.87031  -0.86959
 Alpha  occ. eigenvalues --   -0.79638  -0.79576  -0.78402  -0.78106  -0.65170
 Alpha  occ. eigenvalues --   -0.64967  -0.60973  -0.60900  -0.59515  -0.59204
 Alpha  occ. eigenvalues --   -0.57632  -0.57562  -0.55321  -0.55209  -0.52739
 Alpha  occ. eigenvalues --   -0.52655  -0.52416  -0.52360  -0.49963  -0.49886
 Alpha  occ. eigenvalues --   -0.48031  -0.47798  -0.46759  -0.46658  -0.46073
 Alpha  occ. eigenvalues --   -0.45772  -0.45716  -0.45154  -0.43803  -0.43738
 Alpha virt. eigenvalues --    0.21112   0.22440   0.23396   0.24209   0.25626
 Alpha virt. eigenvalues --    0.26594   0.26923   0.27177   0.27885   0.29733
 Alpha virt. eigenvalues --    0.30836   0.31461   0.31617   0.31703   0.32342

 Mulliken charges:
               1
     1  C   -0.297932
     2  C   -0.303020
     3  C   -0.475605
     4  H    0.149510
     5  H    0.149522
     6  H    0.154016
     7  H    0.151853
     8  H    0.155527
     9  H    0.155450
    10  H    0.160110
    11  C   -0.306378
    12  C   -0.299108
    13  C   -0.478611
    14  H    0.159704
    15  H    0.149708
    16  H    0.151780
    17  H    0.151847
    18  H    0.155953
    19  H    0.156815
    20  H    0.160714
    21  C   -0.297338
    22  C   -0.307191
    23  C   -0.481560
    24  H    0.149526
    25  H    0.149622
    26  H    0.150152
    27  H    0.159084
    28  H    0.154582
    29  H    0.154471
    30  H    0.167650
    31  C   -0.298596
    32  C   -0.299596
    33  C   -0.475713
    34  H    0.149249
    35  H    0.149264
    36  H    0.152025
    37  H    0.152012
    38  H    0.155151
    39  H    0.155089
    40  H    0.160262
 Sum of Mulliken charges =  -0.00000

 Dipole moment (field-independent basis, Debye):
    X=             -0.0397    Y=              0.0058    Z=             -0.0030  Tot=              0.0402
 Quadrupole moment (field-independent basis, Debye-Ang):
   XX=            -84.8341   YY=            -86.1316   ZZ=            -83.8419
   XY=             -0.6913   XZ=             -0.3449   YZ=              0.9334

 Normal termination of Gaussian 16 at Wed May  5 21:18:01 2021.
