 Gaussian 16, Revision A.03,
 Gaussian 16:  EM64L-G16RevA.03 25-Dec-2016

 -------------
 #p 6-31g* mp2
 -------------

 ------------------------------------------------------
 Input file generated by CHIRIPA (05-May-2021 14:53:15)
 ------------------------------------------------------
 Symbolic Z-matrix:
 Charge =  0 Multiplicity = 1

                         Standard orientation:
 ---------------------------------------------------------------------
 Center     Atomic      Atomic             Coordinates (Angstroms)
 Number     Number       Type             X           Y           Z
 ---------------------------------------------------------------------
      1          6           0        3.171321    0.735423   -0.094698
      2          6           0        4.228414    1.840127   -0.107635
      3          6           0        3.685875    3.171413   -0.628329
      4          1           0        2.778801    0.600374   -1.111867
      5          1           0        2.324014    1.055597    0.527359
      6          1           0        5.074085    1.517394   -0.728361
      7          1           0        4.618601    1.972430    0.909649
      8          1           0        2.855950    3.519478   -0.004889
      9          1           0        3.314022    3.061857   -1.652206
     10          1           0        4.458146    3.946949   -0.629025
     11          6           0        3.698541   -0.601527    0.423310
     12          6           0        2.641448   -1.706232    0.436247
     13          6           0        3.183987   -3.037518    0.956941
     14          1           0        4.545848   -0.921701   -0.198747
     15          1           0        4.091061   -0.466478    1.440480
     16          1           0        2.251261   -1.838535   -0.581036
     17          1           0        1.795777   -1.383498    1.056973
     18          1           0        3.555840   -2.927961    1.980818
     19          1           0        4.013912   -3.385583    0.333502
     20          1           0        2.411715   -3.813053    0.957637
     21          6           0       -4.239177    1.709836    0.788577
     22          6           0       -2.888507    2.008134    0.580664
     23          6           0       -2.017444    1.039559    0.073062
     24          6           0       -2.533146   -0.222660   -0.217011
     25          6           0       -3.873811   -0.550410   -0.020824
     26          6           0       -4.726659    0.433766    0.487700
     27          1           0       -4.908765    2.468307    1.183253
     28          1           0       -2.507146    2.998300    0.813432
     29          1           0       -0.967351    1.243538   -0.097571
     30          1           0       -4.224721   -1.546383   -0.262312
     31          1           0       -5.775142    0.199278    0.648155
     32          7           0       -1.620633   -1.256304   -0.754875
     33          8           0       -2.099661   -2.360785   -1.002448
     34          8           0       -0.443655   -0.942422   -0.918695
 ---------------------------------------------------------------------

 SCF Done:  E(RHF) =  -669.535679613     A.U. after   15 cycles
 E2 =    -0.2091854871D+01 EUMP2 =    -0.67162753448439D+03

 The electronic state is 1-A.
 Alpha  occ. eigenvalues --  -20.60904 -20.60879 -15.85921 -11.31259 -11.27826
 Alpha  occ. eigenvalues --  -11.27816 -11.27566 -11.26836 -11.26826 -11.21166
 Alpha  occ. eigenvalues --  -11.20869 -11.20701 -11.20470 -11.20132 -11.19955
 Alpha  occ. eigenvalues --   -1.59958  -1.39513  -1.19430  -1.08834  -1.07625
 Alpha  occ. eigenvalues --   -1.04828  -1.02715  -0.95674  -0.95239  -0.86268
 Alpha  occ. eigenvalues --   -0.86225  -0.82513  -0.78807  -0.77627  -0.77258
 Alpha  occ. eigenvalues --   -0.72138  -0.71271  -0.70538  -0.65085  -0.64832
 Alpha  occ. eigenvalues --   -0.64273  -0.62173  -0.60122  -0.58633  -0.56795
 Alpha  occ. eigenvalues --   -0.55333  -0.54560  -0.53161  -0.52919  -0.51947
 Alpha  occ. eigenvalues --   -0.51648  -0.49233  -0.48940  -0.48905  -0.47107
 Alpha  occ. eigenvalues --   -0.45850  -0.45210  -0.44730  -0.44550  -0.42973
 Alpha  occ. eigenvalues --   -0.37411  -0.36431
 Alpha virt. eigenvalues --    0.04959   0.11220   0.16444   0.21000   0.23305
 Alpha virt. eigenvalues --    0.25047   0.25897   0.27573   0.27725   0.28555
 Alpha virt. eigenvalues --    0.29244   0.31196   0.32061   0.32210   0.32711

 Mulliken charges:
               1
     1  C   -0.296180
     2  C   -0.299004
     3  C   -0.474552
     4  H    0.156936
     5  H    0.142228
     6  H    0.152222
     7  H    0.149821
     8  H    0.148692
     9  H    0.155619
    10  H    0.158958
    11  C   -0.299473
    12  C   -0.297410
    13  C   -0.476693
    14  H    0.146787
    15  H    0.143838
    16  H    0.172957
    17  H    0.149783
    18  H    0.148207
    19  H    0.151290
    20  H    0.162695
    21  C   -0.170591
    22  C   -0.218828
    23  C   -0.172522
    24  C    0.157574
    25  C   -0.170583
    26  C   -0.218660
    27  H    0.225874
    28  H    0.223909
    29  H    0.277760
    30  H    0.275713
    31  H    0.223668
    32  N    0.490537
    33  O   -0.459949
    34  O   -0.460622
 Sum of Mulliken charges =  -0.00000

 Dipole moment (field-independent basis, Debye):
    X=             -3.4435    Y=              3.5318    Z=              1.7325  Tot=              5.2281
 Quadrupole moment (field-independent basis, Debye-Ang):
   XX=            -76.6604   YY=            -96.0710   ZZ=            -95.8087
   XY=             -5.7753   XZ=             -4.9430   YZ=             -0.1396

 Normal termination of Gaussian 16 at Wed May  5 21:55:30 2021.
