 Gaussian 16, Revision A.03,
 Gaussian 16:  EM64L-G16RevA.03 25-Dec-2016

 -------------
 #p 6-31g* mp2
 -------------

 ------------------------------------------------------
 Input file generated by CHIRIPA (05-May-2021 14:57:23)
 ------------------------------------------------------
 Symbolic Z-matrix:
 Charge =  0 Multiplicity = 1

                         Standard orientation:
 ---------------------------------------------------------------------
 Center     Atomic      Atomic             Coordinates (Angstroms)
 Number     Number       Type             X           Y           Z
 ---------------------------------------------------------------------
      1          6           0        2.189974    0.031256    1.326359
      2          6           0        2.982650    1.176110    1.194095
      3          6           0        4.190342    1.126239    0.491570
      4          6           0        4.576600   -0.090510   -0.068444
      5          6           0        3.808790   -1.248379    0.046008
      6          6           0        2.604842   -1.175208    0.752905
      7          1           0        1.253264    0.079047    1.873796
      8          1           0        2.662963    2.114427    1.638399
      9          1           0        4.823376    1.997351    0.373887
     10          1           0        4.153867   -2.169394   -0.407942
     11          1           0        1.991270   -2.065909    0.854020
     12          7           0        5.853148   -0.155640   -0.814490
     13          8           0        6.171156   -1.239709   -1.298538
     14          8           0        6.511526    0.878613   -0.901066
     15          6           0       -2.024507    0.672338    0.674337
     16          6           0       -2.593907   -0.542935    1.068567
     17          6           0       -3.890614   -0.881678    0.670632
     18          6           0       -4.592597    0.022489   -0.124976
     19          6           0       -4.052764    1.240895   -0.534071
     20          6           0       -2.754466    1.558811   -0.124316
     21          1           0       -1.016576    0.927392    0.988053
     22          1           0       -2.029351   -1.233320    1.688802
     23          1           0       -4.355668   -1.815796    0.961436
     24          1           0       -4.640191    1.908686   -1.152458
     25          1           0       -2.314803    2.503310   -0.431989
     26          7           0       -5.966205   -0.325098   -0.552509
     27          8           0       -6.563841    0.488714   -1.253350
     28          8           0       -6.419192   -1.404767   -0.178672
 ---------------------------------------------------------------------

 SCF Done:  E(RHF) =  -868.336253924     A.U. after   16 cycles
 E2 =    -0.2599869010D+01 EUMP2 =    -0.87093612293337D+03

 The electronic state is 1-A.
 Alpha  occ. eigenvalues --  -20.61378 -20.61372 -20.61268 -20.61262 -15.86436
 Alpha  occ. eigenvalues --  -15.86326 -11.31988 -11.31832 -11.28556 -11.28540
 Alpha  occ. eigenvalues --  -11.28488 -11.28437 -11.28394 -11.28302 -11.27691
 Alpha  occ. eigenvalues --  -11.27666 -11.27560 -11.27467  -1.60448  -1.60340
 Alpha  occ. eigenvalues --   -1.39996  -1.39889  -1.20185  -1.20034  -1.09584
 Alpha  occ. eigenvalues --   -1.09425  -1.05602  -1.05456  -0.96388  -0.96225
 Alpha  occ. eigenvalues --   -0.87011  -0.86865  -0.83205  -0.83047  -0.78180
 Alpha  occ. eigenvalues --   -0.78057  -0.72652  -0.72544  -0.71772  -0.71664
 Alpha  occ. eigenvalues --   -0.71578  -0.71028  -0.65850  -0.65702  -0.65627
 Alpha  occ. eigenvalues --   -0.65476  -0.62934  -0.62798  -0.56469  -0.55801
 Alpha  occ. eigenvalues --   -0.53927  -0.53775  -0.53706  -0.53565  -0.49427
 Alpha  occ. eigenvalues --   -0.49394  -0.49315  -0.49287  -0.45359  -0.45263
 Alpha  occ. eigenvalues --   -0.38242  -0.38035  -0.37187  -0.37048
 Alpha virt. eigenvalues --    0.04286   0.04497   0.10440   0.10596   0.15550
 Alpha virt. eigenvalues --    0.15950   0.17920   0.21987   0.25087   0.25823
 Alpha virt. eigenvalues --    0.27107   0.29441   0.29761   0.31078   0.32275

 Mulliken charges:
               1
     1  C   -0.174656
     2  C   -0.218916
     3  C   -0.170038
     4  C    0.160024
     5  C   -0.169942
     6  C   -0.216757
     7  H    0.217116
     8  H    0.222982
     9  H    0.278026
    10  H    0.278568
    11  H    0.223706
    12  N    0.487852
    13  O   -0.457906
    14  O   -0.458422
    15  C   -0.171334
    16  C   -0.218792
    17  C   -0.169859
    18  C    0.159159
    19  C   -0.169704
    20  C   -0.218304
    21  H    0.218562
    22  H    0.217579
    23  H    0.277201
    24  H    0.278009
    25  H    0.225365
    26  N    0.487941
    27  O   -0.458364
    28  O   -0.459098
 Sum of Mulliken charges =  -0.00000

 Dipole moment (field-independent basis, Debye):
    X=              0.4112    Y=              1.4416    Z=              3.9677  Tot=              4.2415
 Quadrupole moment (field-independent basis, Debye-Ang):
   XX=           -189.5529   YY=            -96.2827   ZZ=           -105.7749
   XY=             -3.6782   XZ=              5.2034   YZ=             -1.8866

 Normal termination of Gaussian 16 at Thu May  6 17:56:59 2021.
