 Gaussian 16, Revision A.03,
 Gaussian 16:  EM64L-G16RevA.03 25-Dec-2016

 -------------
 #p 6-31g* mp2
 -------------

 ------------------------------------------------------
 Input file generated by CHIRIPA (05-May-2021 14:53:12)
 ------------------------------------------------------
 Symbolic Z-matrix:
 Charge =  0 Multiplicity = 1

                         Standard orientation:
 ---------------------------------------------------------------------
 Center     Atomic      Atomic             Coordinates (Angstroms)
 Number     Number       Type             X           Y           Z
 ---------------------------------------------------------------------
      1          6           0        4.196697   -0.299039   -0.172220
      2          6           0        4.828098    1.004297    0.318325
      3          6           0        6.293245    0.836142    0.721888
      4          1           0        4.275988   -1.057741    0.618367
      5          1           0        4.772518   -0.677941   -1.027941
      6          1           0        4.250437    1.381351    1.171996
      7          1           0        4.747124    1.760041   -0.473451
      8          1           0        6.888368    0.482817   -0.126399
      9          1           0        6.388860    0.101976    1.528397
     10          1           0        6.724814    1.779994    1.069380
     11          6           0        2.732151   -0.147044   -0.579320
     12          6           0        2.100751   -1.450379   -1.069866
     13          6           0        0.635604   -1.282225   -1.473428
     14          1           0        2.156330    0.231858    0.276401
     15          1           0        2.652860    0.611659   -1.369908
     16          1           0        2.181725   -2.206123   -0.278090
     17          1           0        2.678411   -1.827434   -1.923537
     18          1           0        0.539989   -0.548058   -2.279938
     19          1           0        0.040480   -0.928899   -0.625141
     20          1           0        0.204035   -2.226077   -1.820921
     21          6           0       -2.373405   -2.222954    1.006541
     22          6           0       -1.619790   -1.204941    1.600034
     23          6           0       -1.796014    0.126812    1.212829
     24          6           0       -2.738792    0.406004    0.224643
     25          6           0       -3.504885   -0.586053   -0.385451
     26          6           0       -3.311893   -1.910811    0.017436
     27          1           0       -2.229997   -3.254774    1.313422
     28          1           0       -0.890232   -1.444414    2.368437
     29          1           0       -1.226043    0.934525    1.655719
     30          1           0       -4.224602   -0.316340   -1.148786
     31          1           0       -3.898572   -2.699358   -0.445216
     32          7           0       -2.934228    1.812169   -0.193574
     33          8           0       -3.771184    2.031969   -1.066402
     34          8           0       -2.246754    2.667893    0.359373
 ---------------------------------------------------------------------

 SCF Done:  E(RHF) =  -669.534172339     A.U. after   15 cycles
 E2 =    -0.2093518409D+01 EUMP2 =    -0.67162769074806D+03

 The electronic state is 1-A.
 Alpha  occ. eigenvalues --  -20.60801 -20.60796 -15.85856 -11.31255 -11.27835
 Alpha  occ. eigenvalues --  -11.27808 -11.27561 -11.26852 -11.26826 -11.21735
 Alpha  occ. eigenvalues --  -11.21671 -11.21531 -11.21472 -11.21142 -11.20937
 Alpha  occ. eigenvalues --   -1.59875  -1.39428  -1.19447  -1.08821  -1.08537
 Alpha  occ. eigenvalues --   -1.04861  -1.03603  -0.96046  -0.95650  -0.87064
 Alpha  occ. eigenvalues --   -0.86238  -0.82484  -0.79675  -0.78354  -0.77526
 Alpha  occ. eigenvalues --   -0.72074  -0.71199  -0.70534  -0.65188  -0.65085
 Alpha  occ. eigenvalues --   -0.64843  -0.62192  -0.61046  -0.59421  -0.57686
 Alpha  occ. eigenvalues --   -0.55518  -0.55334  -0.53401  -0.52932  -0.52700
 Alpha  occ. eigenvalues --   -0.52250  -0.49875  -0.48836  -0.48827  -0.47956
 Alpha  occ. eigenvalues --   -0.46686  -0.45879  -0.45828  -0.44824  -0.43873
 Alpha  occ. eigenvalues --   -0.37405  -0.36373
 Alpha virt. eigenvalues --    0.04991   0.11150   0.16454   0.21134   0.22827
 Alpha virt. eigenvalues --    0.24298   0.26217   0.27113   0.27674   0.27954
 Alpha virt. eigenvalues --    0.28459   0.30881   0.31478   0.31805   0.32016

 Mulliken charges:
               1
     1  C   -0.298141
     2  C   -0.299640
     3  C   -0.475748
     4  H    0.146864
     5  H    0.150274
     6  H    0.151255
     7  H    0.154355
     8  H    0.155462
     9  H    0.153884
    10  H    0.161252
    11  C   -0.297070
    12  C   -0.298788
    13  C   -0.483407
    14  H    0.144583
    15  H    0.153856
    16  H    0.145597
    17  H    0.152209
    18  H    0.156503
    19  H    0.165911
    20  H    0.154838
    21  C   -0.167399
    22  C   -0.219579
    23  C   -0.177989
    24  C    0.164729
    25  C   -0.170429
    26  C   -0.217042
    27  H    0.226043
    28  H    0.223948
    29  H    0.275996
    30  H    0.276138
    31  H    0.223968
    32  N    0.488075
    33  O   -0.460214
    34  O   -0.460294
 Sum of Mulliken charges =  -0.00000

 Dipole moment (field-independent basis, Debye):
    X=              0.5757    Y=             -4.9055    Z=              1.4708  Tot=              5.1534
 Quadrupole moment (field-independent basis, Debye-Ang):
   XX=            -97.3917   YY=            -98.9948   ZZ=            -91.6704
   XY=             15.5330   XZ=             -1.9362   YZ=              0.1807

 Normal termination of Gaussian 16 at Thu May  6 18:41:03 2021.
