 Gaussian 16, Revision A.03,
 Gaussian 16:  EM64L-G16RevA.03 25-Dec-2016

 -------------
 #p 6-31g* mp2
 -------------

 ------------------------------------------------------
 Input file generated by CHIRIPA (05-May-2021 14:57:20)
 ------------------------------------------------------
 Symbolic Z-matrix:
 Charge =  0 Multiplicity = 1

                         Standard orientation:
 ---------------------------------------------------------------------
 Center     Atomic      Atomic             Coordinates (Angstroms)
 Number     Number       Type             X           Y           Z
 ---------------------------------------------------------------------
      1          6           0        6.021807    0.563092    0.057998
      2          6           0        5.286055    0.525598    1.247025
      3          6           0        3.946666    0.124914    1.240843
      4          6           0        3.372097   -0.233180    0.022267
      5          6           0        4.078812   -0.206232   -1.179032
      6          6           0        5.416904    0.197701   -1.149107
      7          1           0        7.061773    0.875615    0.072022
      8          1           0        5.753231    0.808815    2.185950
      9          1           0        3.353835    0.086704    2.146663
     10          1           0        3.585712   -0.494359   -2.099495
     11          1           0        5.985863    0.225857   -2.074060
     12          7           0        1.954833   -0.659087    0.003155
     13          8           0        1.471767   -0.969670   -1.083501
     14          8           0        1.353883   -0.674265    1.075193
     15          6           0       -3.262569    2.658828   -0.163143
     16          6           0       -2.168364    1.794624   -0.274442
     17          6           0       -2.346690    0.410013   -0.199611
     18          6           0       -3.638850   -0.078303   -0.012101
     19          6           0       -4.749057    0.756937    0.102371
     20          6           0       -4.547158    2.138145    0.024578
     21          1           0       -3.114885    3.733105   -0.222424
     22          1           0       -1.169598    2.196178   -0.420272
     23          1           0       -1.517261   -0.281778   -0.282614
     24          1           0       -5.732698    0.326971    0.247275
     25          1           0       -5.398785    2.806912    0.111346
     26          7           0       -3.840114   -1.542326    0.068687
     27          8           0       -4.988621   -1.947477    0.234277
     28          8           0       -2.845545   -2.256957   -0.035113
 ---------------------------------------------------------------------

 SCF Done:  E(RHF) =  -868.339582251     A.U. after   16 cycles
 E2 =    -0.2599471816D+01 EUMP2 =    -0.87093905406731D+03

 The electronic state is 1-A.
 Alpha  occ. eigenvalues --  -20.61456 -20.61447 -20.59551 -20.59491 -15.86435
 Alpha  occ. eigenvalues --  -15.84575 -11.31643 -11.29925 -11.28182 -11.28179
 Alpha  occ. eigenvalues --  -11.27895 -11.27156 -11.27147 -11.26650 -11.26427
 Alpha  occ. eigenvalues --  -11.26305 -11.25681 -11.25536  -1.60497  -1.58607
 Alpha  occ. eigenvalues --   -1.40048  -1.38151  -1.19795  -1.18153  -1.09223
 Alpha  occ. eigenvalues --   -1.07582  -1.05167  -1.03542  -0.96080  -0.94390
 Alpha  occ. eigenvalues --   -0.86572  -0.84956  -0.82910  -0.81212  -0.77985
 Alpha  occ. eigenvalues --   -0.76222  -0.72627  -0.71809  -0.70895  -0.70797
 Alpha  occ. eigenvalues --   -0.69934  -0.69277  -0.65444  -0.65163  -0.63812
 Alpha  occ. eigenvalues --   -0.63573  -0.62510  -0.60848  -0.55673  -0.54130
 Alpha  occ. eigenvalues --   -0.53511  -0.53251  -0.51912  -0.51648  -0.49410
 Alpha  occ. eigenvalues --   -0.49377  -0.47583  -0.47525  -0.45483  -0.43560
 Alpha  occ. eigenvalues --   -0.37769  -0.36763  -0.36211  -0.35146
 Alpha virt. eigenvalues --    0.04514   0.06286   0.10894   0.12491   0.16046
 Alpha virt. eigenvalues --    0.17727   0.21061   0.22549   0.26996   0.27913
 Alpha virt. eigenvalues --    0.28420   0.29550   0.30693   0.32046   0.32183

 Mulliken charges:
               1
     1  C   -0.170120
     2  C   -0.218716
     3  C   -0.171048
     4  C    0.158012
     5  C   -0.170989
     6  C   -0.218699
     7  H    0.227178
     8  H    0.224943
     9  H    0.276705
    10  H    0.276748
    11  H    0.225008
    12  N    0.486766
    13  O   -0.460113
    14  O   -0.459068
    15  C   -0.171433
    16  C   -0.221321
    17  C   -0.173888
    18  C    0.154855
    19  C   -0.171529
    20  C   -0.220430
    21  H    0.219857
    22  H    0.219975
    23  H    0.300409
    24  H    0.271849
    25  H    0.218244
    26  N    0.486954
    27  O   -0.467749
    28  O   -0.452404
 Sum of Mulliken charges =  -0.00000

 Dipole moment (field-independent basis, Debye):
    X=              6.2998    Y=              6.4434    Z=             -0.2141  Tot=              9.0139
 Quadrupole moment (field-independent basis, Debye-Ang):
   XX=            -73.0892   YY=           -108.1320   ZZ=           -100.5976
   XY=            -15.2677   XZ=              0.4162   YZ=              0.9216

 Normal termination of Gaussian 16 at Wed May  5 20:52:32 2021.
