 Gaussian 16, Revision A.03,
 Gaussian 16:  EM64L-G16RevA.03 25-Dec-2016

 -------------
 #p 6-31g* mp2
 -------------

 ------------------------------------------------------
 Input file generated by CHIRIPA (05-May-2021 14:51:09)
 ------------------------------------------------------
 Symbolic Z-matrix:
 Charge =  0 Multiplicity = 1

                         Standard orientation:
 ---------------------------------------------------------------------
 Center     Atomic      Atomic             Coordinates (Angstroms)
 Number     Number       Type             X           Y           Z
 ---------------------------------------------------------------------
      1          6           0        3.795520   -0.677069   -0.104444
      2          6           0        4.437613    0.669056    0.232671
      3          6           0        5.958883    0.653112    0.080096
      4          1           0        4.222553   -1.452877    0.545718
      5          1           0        4.058730   -0.953156   -1.134926
      6          1           0        4.172130    0.943181    1.261744
      7          1           0        4.008864    1.441783   -0.418239
      8          1           0        6.240328    0.404319   -0.948248
      9          1           0        6.404523   -0.097116    0.741280
     10          1           0        6.397240    1.625334    0.326040
     11          6           0        2.275032   -0.676956    0.043356
     12          6           0        1.632939   -2.023081   -0.293759
     13          6           0        0.111670   -2.007137   -0.141185
     14          1           0        2.011823   -0.400869    1.073837
     15          1           0        1.848000    0.098852   -0.606806
     16          1           0        2.061689   -2.795808    0.357150
     17          1           0        1.898422   -2.297206   -1.322832
     18          1           0       -0.333970   -1.256909   -0.802368
     19          1           0       -0.169776   -1.758344    0.887159
     20          1           0       -0.326688   -2.979359   -0.387129
     21          6           0       -3.197168    0.025039    0.394074
     22          6           0       -4.145199   -0.885491   -0.387050
     23          6           0       -4.459607   -2.185877    0.353180
     24          1           0       -2.263751   -0.517082    0.598485
     25          1           0       -3.644286    0.256851    1.370672
     26          1           0       -3.697047   -1.114394   -1.362437
     27          1           0       -5.076393   -0.341075   -0.589791
     28          1           0       -4.929590   -1.975258    1.319284
     29          1           0       -3.542406   -2.752972    0.542249
     30          1           0       -5.138904   -2.821725   -0.223113
     31          6           0       -2.873385    1.328986   -0.332986
     32          6           0       -1.925354    2.239517    0.448138
     33          6           0       -1.610945    3.539902   -0.292092
     34          1           0       -2.426267    1.097174   -1.309583
     35          1           0       -3.806801    1.871107   -0.537397
     36          1           0       -0.994159    1.695099    0.650879
     37          1           0       -2.373506    2.468419    1.423525
     38          1           0       -2.528146    4.106996   -0.481161
     39          1           0       -1.140962    3.329282   -1.258196
     40          1           0       -0.931648    4.175750    0.284201
 ---------------------------------------------------------------------

 SCF Done:  E(RHF) =  -470.732817493     A.U. after   11 cycles
 E2 =    -0.1583742337D+01 EUMP2 =    -0.47231655982992D+03

 The electronic state is 1-A.
 Alpha  occ. eigenvalues --  -11.21707 -11.21645 -11.21532 -11.21490 -11.21485
 Alpha  occ. eigenvalues --  -11.21423 -11.21299 -11.21223 -11.21144 -11.21104
 Alpha  occ. eigenvalues --  -11.21031 -11.20973  -1.08515  -1.08320  -1.03620
 Alpha  occ. eigenvalues --   -1.03438  -0.96087  -0.95880  -0.87114  -0.86896
 Alpha  occ. eigenvalues --   -0.79716  -0.79493  -0.78352  -0.78097  -0.65149
 Alpha  occ. eigenvalues --   -0.64968  -0.61011  -0.60846  -0.59440  -0.59253
 Alpha  occ. eigenvalues --   -0.57736  -0.57468  -0.55375  -0.55179  -0.52772
 Alpha  occ. eigenvalues --   -0.52608  -0.52564  -0.52247  -0.50017  -0.49829
 Alpha  occ. eigenvalues --   -0.48075  -0.47810  -0.46716  -0.46525  -0.46050
 Alpha  occ. eigenvalues --   -0.45788  -0.45647  -0.45279  -0.43865  -0.43681
 Alpha virt. eigenvalues --    0.20542   0.22895   0.23815   0.24401   0.25932
 Alpha virt. eigenvalues --    0.26283   0.27207   0.27416   0.27774   0.30133
 Alpha virt. eigenvalues --    0.30559   0.30932   0.31814   0.31835   0.32060

 Mulliken charges:
               1
     1  C   -0.298353
     2  C   -0.299777
     3  C   -0.475771
     4  H    0.149928
     5  H    0.149726
     6  H    0.152107
     7  H    0.152171
     8  H    0.155247
     9  H    0.155248
    10  H    0.160484
    11  C   -0.299175
    12  C   -0.300111
    13  C   -0.480381
    14  H    0.149867
    15  H    0.149887
    16  H    0.152536
    17  H    0.152338
    18  H    0.157841
    19  H    0.156939
    20  H    0.161322
    21  C   -0.308470
    22  C   -0.298679
    23  C   -0.476765
    24  H    0.163132
    25  H    0.148126
    26  H    0.151279
    27  H    0.151212
    28  H    0.154700
    29  H    0.156373
    30  H    0.159594
    31  C   -0.298054
    32  C   -0.301171
    33  C   -0.475403
    34  H    0.148056
    35  H    0.149329
    36  H    0.153327
    37  H    0.151716
    38  H    0.155093
    39  H    0.154438
    40  H    0.160092
 Sum of Mulliken charges =  -0.00000

 Dipole moment (field-independent basis, Debye):
    X=              0.0863    Y=             -0.0448    Z=              0.0124  Tot=              0.0980
 Quadrupole moment (field-independent basis, Debye-Ang):
   XX=            -85.6869   YY=            -85.5200   ZZ=            -83.8083
   XY=             -0.8603   XZ=             -0.0782   YZ=              0.3331

 Normal termination of Gaussian 16 at Wed May  5 16:38:39 2021.
