 Gaussian 16, Revision A.03,
 Gaussian 16:  EM64L-G16RevA.03 25-Dec-2016

 -------------
 #p 6-31g* mp2
 -------------

 ------------------------------------------------------
 Input file generated by CHIRIPA (05-May-2021 14:55:25)
 ------------------------------------------------------
 Symbolic Z-matrix:
 Charge =  0 Multiplicity = 1

                         Standard orientation:
 ---------------------------------------------------------------------
 Center     Atomic      Atomic             Coordinates (Angstroms)
 Number     Number       Type             X           Y           Z
 ---------------------------------------------------------------------
      1          6           0       -2.250693   -2.430572    0.855035
      2          6           0       -1.141130   -1.598112    1.035037
      3          6           0       -1.169756   -0.271651    0.594320
      4          6           0       -2.329505    0.191516   -0.025154
      5          6           0       -3.451144   -0.613243   -0.219007
      6          6           0       -3.400133   -1.936352    0.229690
      7          1           0       -2.219761   -3.459696    1.200494
      8          1           0       -0.247116   -1.979226    1.520357
      9          1           0       -0.325023    0.394554    0.720866
     10          1           0       -4.328177   -0.204837   -0.706281
     11          1           0       -4.263328   -2.580572    0.088556
     12          7           0       -2.371660    1.594007   -0.495945
     13          8           0       -3.405359    1.978003   -1.038763
     14          8           0       -1.370204    2.282726   -0.313219
     15          6           0        2.661228   -0.641535   -0.151275
     16          6           0        3.650782   -1.695551   -0.649087
     17          6           0        3.012439   -3.075268   -0.812464
     18          1           0        2.239738   -0.968177    0.809244
     19          1           0        1.820370   -0.576455   -0.855630
     20          1           0        4.490207   -1.757640    0.055275
     21          1           0        4.070109   -1.366271   -1.608440
     22          1           0        2.187343   -3.035363   -1.530952
     23          1           0        2.609829   -3.428955    0.142215
     24          1           0        3.737535   -3.813400   -1.169192
     25          6           0        3.284520    0.742990    0.017033
     26          6           0        2.294965    1.797006    0.514846
     27          6           0        2.933309    3.176723    0.678222
     28          1           0        4.125378    0.677910    0.721389
     29          1           0        3.706010    1.069631   -0.943486
     30          1           0        1.875639    1.467726    1.474198
     31          1           0        1.455541    1.859095   -0.189517
     32          1           0        3.335919    3.530410   -0.276457
     33          1           0        3.758404    3.136817    1.396712
     34          1           0        2.208212    3.914855    1.034951
 ---------------------------------------------------------------------

 SCF Done:  E(RHF) =  -669.535380358     A.U. after   15 cycles
 E2 =    -0.2093968029D+01 EUMP2 =    -0.67162934838758D+03

 The electronic state is 1-A.
 Alpha  occ. eigenvalues --  -20.60810 -20.60794 -15.85842 -11.31107 -11.27697
 Alpha  occ. eigenvalues --  -11.27583 -11.27424 -11.26699 -11.26649 -11.22022
 Alpha  occ. eigenvalues --  -11.21880 -11.21584 -11.21518 -11.21439 -11.20762
 Alpha  occ. eigenvalues --   -1.59874  -1.39431  -1.19286  -1.08711  -1.08692
 Alpha  occ. eigenvalues --   -1.04671  -1.03679  -0.96149  -0.95551  -0.87168
 Alpha  occ. eigenvalues --   -0.86080  -0.82390  -0.79802  -0.78644  -0.77339
 Alpha  occ. eigenvalues --   -0.72066  -0.71189  -0.70396  -0.65342  -0.64933
 Alpha  occ. eigenvalues --   -0.64671  -0.62035  -0.61060  -0.59531  -0.57744
 Alpha  occ. eigenvalues --   -0.55451  -0.55197  -0.53030  -0.52906  -0.52698
 Alpha  occ. eigenvalues --   -0.52532  -0.50102  -0.48881  -0.48817  -0.48054
 Alpha  occ. eigenvalues --   -0.46822  -0.46035  -0.45870  -0.44814  -0.43955
 Alpha  occ. eigenvalues --   -0.37278  -0.36250
 Alpha virt. eigenvalues --    0.05043   0.11323   0.16520   0.20071   0.22906
 Alpha virt. eigenvalues --    0.23872   0.24830   0.26389   0.27560   0.28358
 Alpha virt. eigenvalues --    0.29706   0.30535   0.31548   0.31635   0.32349

 Mulliken charges:
               1
     1  C   -0.170473
     2  C   -0.224040
     3  C   -0.176972
     4  C    0.153643
     5  C   -0.170082
     6  C   -0.219400
     7  H    0.225463
     8  H    0.225290
     9  H    0.293455
    10  H    0.275094
    11  H    0.223049
    12  N    0.489659
    13  O   -0.459879
    14  O   -0.464316
    15  C   -0.303777
    16  C   -0.299285
    17  C   -0.475851
    18  H    0.138297
    19  H    0.153565
    20  H    0.153170
    21  H    0.155838
    22  H    0.157074
    23  H    0.148226
    24  H    0.162610
    25  C   -0.296540
    26  C   -0.316928
    27  C   -0.474028
    28  H    0.148876
    29  H    0.153044
    30  H    0.142162
    31  H    0.176642
    32  H    0.156553
    33  H    0.151409
    34  H    0.168451
 Sum of Mulliken charges =  -0.00000

 Dipole moment (field-independent basis, Debye):
    X=              0.2038    Y=             -4.7690    Z=              1.5107  Tot=              5.0067
 Quadrupole moment (field-independent basis, Debye-Ang):
   XX=            -91.1919   YY=            -97.8453   ZZ=            -94.1907
   XY=             12.2348   XZ=             -2.3424   YZ=              0.2904

 Normal termination of Gaussian 16 at Wed May  5 17:38:34 2021.
