 Gaussian 16, Revision A.03,
 Gaussian 16:  EM64L-G16RevA.03 25-Dec-2016

 -------------
 #p 6-31g* mp2
 -------------

 ------------------------------------------------------
 Input file generated by CHIRIPA (05-May-2021 14:51:13)
 ------------------------------------------------------
 Symbolic Z-matrix:
 Charge =  0 Multiplicity = 1

                         Standard orientation:
 ---------------------------------------------------------------------
 Center     Atomic      Atomic             Coordinates (Angstroms)
 Number     Number       Type             X           Y           Z
 ---------------------------------------------------------------------
      1          6           0       -4.701854   -0.141448   -0.154156
      2          6           0       -4.694793   -1.667320   -0.055919
      3          6           0       -6.101147   -2.260353    0.035050
      4          1           0       -5.220442    0.273570    0.720928
      5          1           0       -5.285433    0.159602   -1.035178
      6          1           0       -4.110243   -1.965446    0.823876
      7          1           0       -4.175994   -2.078746   -0.931243
      8          1           0       -6.690375   -1.991663   -0.847683
      9          1           0       -6.624250   -1.877719    0.917407
     10          1           0       -6.072697   -3.352247    0.104470
     11          6           0       -3.303248    0.466198   -0.245778
     12          6           0       -3.310309    1.992070   -0.344015
     13          6           0       -1.903956    2.585103   -0.434983
     14          1           0       -2.719670    0.165149    0.635245
     15          1           0       -2.784661    0.051181   -1.120862
     16          1           0       -3.829108    2.403497    0.531309
     17          1           0       -3.894859    2.290196   -1.223809
     18          1           0       -1.380852    2.202469   -1.317341
     19          1           0       -1.314727    2.316413    0.447750
     20          1           0       -1.932405    3.676997   -0.504404
     21          6           0        4.744564   -0.269947    0.345835
     22          6           0        5.559333   -0.637585   -0.894721
     23          6           0        7.041908   -0.849586   -0.586797
     24          1           0        5.161671    0.642500    0.793503
     25          1           0        4.854070   -1.064719    1.096662
     26          1           0        5.447211    0.156988   -1.643520
     27          1           0        5.140118   -1.549156   -1.339596
     28          1           0        7.172532   -1.656246    0.141788
     29          1           0        7.481369    0.059590   -0.163862
     30          1           0        7.605588   -1.111515   -1.487641
     31          6           0        3.260539   -0.054803    0.054098
     32          6           0        2.445770    0.312835    1.294654
     33          6           0        0.963194    0.524835    0.986731
     34          1           0        3.151033    0.739969   -0.696729
     35          1           0        2.843431   -0.967250   -0.393570
     36          1           0        2.864985    1.224405    1.739529
     37          1           0        2.557892   -0.481738    2.043452
     38          1           0        0.523733   -0.384341    0.563795
     39          1           0        0.832570    1.331497    0.258145
     40          1           0        0.399515    0.786764    1.887574
 ---------------------------------------------------------------------

 SCF Done:  E(RHF) =  -470.732519194     A.U. after   11 cycles
 E2 =    -0.1582949368D+01 EUMP2 =    -0.47231546856187D+03

 The electronic state is 1-A.
 Alpha  occ. eigenvalues --  -11.21591 -11.21570 -11.21562 -11.21520 -11.21389
 Alpha  occ. eigenvalues --  -11.21345 -11.21329 -11.21279 -11.21063 -11.21048
 Alpha  occ. eigenvalues --  -11.20998 -11.20908  -1.08414  -1.08366  -1.03534
 Alpha  occ. eigenvalues --   -1.03445  -0.96015  -0.95869  -0.87072  -0.86856
 Alpha  occ. eigenvalues --   -0.79696  -0.79430  -0.78251  -0.78144  -0.65046
 Alpha  occ. eigenvalues --   -0.64999  -0.60961  -0.60834  -0.59358  -0.59264
 Alpha  occ. eigenvalues --   -0.57648  -0.57481  -0.55374  -0.55100  -0.52764
 Alpha  occ. eigenvalues --   -0.52611  -0.52503  -0.52161  -0.50019  -0.49707
 Alpha  occ. eigenvalues --   -0.48059  -0.47668  -0.46641  -0.46488  -0.45853
 Alpha  occ. eigenvalues --   -0.45698  -0.45662  -0.45555  -0.43750  -0.43713
 Alpha virt. eigenvalues --    0.22294   0.22966   0.23688   0.24710   0.26203
 Alpha virt. eigenvalues --    0.26472   0.26840   0.27566   0.27825   0.29316
 Alpha virt. eigenvalues --    0.30259   0.31131   0.31564   0.31856   0.32318

 Mulliken charges:
               1
     1  C   -0.298238
     2  C   -0.299572
     3  C   -0.475647
     4  H    0.149423
     5  H    0.149383
     6  H    0.151818
     7  H    0.151749
     8  H    0.155140
     9  H    0.155125
    10  H    0.160066
    11  C   -0.299203
    12  C   -0.299656
    13  C   -0.481079
    14  H    0.151412
    15  H    0.149359
    16  H    0.151287
    17  H    0.151250
    18  H    0.154105
    19  H    0.164560
    20  H    0.158720
    21  C   -0.298247
    22  C   -0.299628
    23  C   -0.475692
    24  H    0.149641
    25  H    0.149493
    26  H    0.151918
    27  H    0.151885
    28  H    0.155157
    29  H    0.155177
    30  H    0.160209
    31  C   -0.298533
    32  C   -0.300253
    33  C   -0.479171
    34  H    0.149674
    35  H    0.149552
    36  H    0.151746
    37  H    0.151395
    38  H    0.156078
    39  H    0.161543
    40  H    0.158051
 Sum of Mulliken charges =  -0.00000

 Dipole moment (field-independent basis, Debye):
    X=              0.0225    Y=              0.0041    Z=              0.0039  Tot=              0.0232
 Quadrupole moment (field-independent basis, Debye-Ang):
   XX=            -87.1065   YY=            -84.2358   ZZ=            -83.7671
   XY=             -0.0929   XZ=             -0.0660   YZ=             -0.0067

 Normal termination of Gaussian 16 at Wed May  5 18:21:55 2021.
