 Gaussian 16, Revision A.03,
 Gaussian 16:  EM64L-G16RevA.03 25-Dec-2016

 -------------
 #p 6-31g* mp2
 -------------

 ------------------------------------------------------
 Input file generated by CHIRIPA (05-May-2021 14:53:16)
 ------------------------------------------------------
 Symbolic Z-matrix:
 Charge =  0 Multiplicity = 1

                         Standard orientation:
 ---------------------------------------------------------------------
 Center     Atomic      Atomic             Coordinates (Angstroms)
 Number     Number       Type             X           Y           Z
 ---------------------------------------------------------------------
      1          6           0        3.300428    0.535004   -0.350375
      2          6           0        3.502958    1.909449    0.288270
      3          6           0        2.470275    2.935997   -0.178163
      4          1           0        3.348453    0.634937   -1.443376
      5          1           0        2.290081    0.173693   -0.113630
      6          1           0        4.513114    2.267449    0.051548
      7          1           0        3.454636    1.806201    1.379884
      8          1           0        1.457328    2.604527    0.072172
      9          1           0        2.521819    3.068396   -1.263711
     10          1           0        2.633657    3.911356    0.290708
     11          6           0        4.325114   -0.502023    0.106047
     12          6           0        4.122584   -1.876469   -0.532598
     13          6           0        5.155267   -2.903016   -0.066165
     14          1           0        5.335461   -0.140712   -0.130698
     15          1           0        4.277089   -0.601956    1.199048
     16          1           0        4.170905   -1.773221   -1.624211
     17          1           0        3.112428   -2.234469   -0.295876
     18          1           0        5.103722   -3.035416    1.019383
     19          1           0        6.168214   -2.571547   -0.316500
     20          1           0        4.991885   -3.878376   -0.535036
     21          6           0       -1.520910    2.031806    0.340262
     22          6           0       -2.569202    2.026319   -0.585792
     23          6           0       -3.383336    0.898954   -0.729947
     24          6           0       -3.119663   -0.210556    0.071772
     25          6           0       -2.082904   -0.235758    1.003322
     26          6           0       -1.281529    0.902741    1.130470
     27          1           0       -0.893427    2.911895    0.445640
     28          1           0       -2.757436    2.901741   -1.200811
     29          1           0       -4.201664    0.867645   -1.439015
     30          1           0       -1.919794   -1.123436    1.602354
     31          1           0       -0.468122    0.904166    1.850479
     32          7           0       -3.974798   -1.409940   -0.071836
     33          8           0       -3.721791   -2.374744    0.646340
     34          8           0       -4.881866   -1.362503   -0.899854
 ---------------------------------------------------------------------

 SCF Done:  E(RHF) =  -669.535426862     A.U. after   15 cycles
 E2 =    -0.2091608157D+01 EUMP2 =    -0.67162703501837D+03

 The electronic state is 1-A.
 Alpha  occ. eigenvalues --  -20.60784 -20.60778 -15.85838 -11.31216 -11.27796
 Alpha  occ. eigenvalues --  -11.27784 -11.27505 -11.26815 -11.26783 -11.22379
 Alpha  occ. eigenvalues --  -11.22064 -11.21986 -11.21938 -11.21834 -11.21326
 Alpha  occ. eigenvalues --   -1.59859  -1.39412  -1.19391  -1.08995  -1.08781
 Alpha  occ. eigenvalues --   -1.04796  -1.04111  -0.96577  -0.95614  -0.87599
 Alpha  occ. eigenvalues --   -0.86192  -0.82448  -0.80185  -0.78766  -0.77492
 Alpha  occ. eigenvalues --   -0.72056  -0.71182  -0.70518  -0.65643  -0.65043
 Alpha  occ. eigenvalues --   -0.64794  -0.62147  -0.61512  -0.59951  -0.58167
 Alpha  occ. eigenvalues --   -0.55986  -0.55218  -0.53267  -0.53156  -0.52939
 Alpha  occ. eigenvalues --   -0.52884  -0.50515  -0.48815  -0.48810  -0.48485
 Alpha  occ. eigenvalues --   -0.47212  -0.46314  -0.46224  -0.44815  -0.44349
 Alpha  occ. eigenvalues --   -0.37344  -0.36397
 Alpha virt. eigenvalues --    0.05016   0.11153   0.16435   0.20084   0.22584
 Alpha virt. eigenvalues --    0.23902   0.25807   0.26281   0.26941   0.27819
 Alpha virt. eigenvalues --    0.28804   0.30446   0.31047   0.31355   0.31883

 Mulliken charges:
               1
     1  C   -0.299396
     2  C   -0.299586
     3  C   -0.480678
     4  H    0.152023
     5  H    0.148484
     6  H    0.155619
     7  H    0.149984
     8  H    0.147266
     9  H    0.159500
    10  H    0.160815
    11  C   -0.298672
    12  C   -0.300131
    13  C   -0.476051
    14  H    0.150768
    15  H    0.148649
    16  H    0.153241
    17  H    0.152835
    18  H    0.155163
    19  H    0.155466
    20  H    0.162517
    21  C   -0.171095
    22  C   -0.219452
    23  C   -0.170696
    24  C    0.158559
    25  C   -0.171028
    26  C   -0.219796
    27  H    0.229210
    28  H    0.224001
    29  H    0.275795
    30  H    0.275601
    31  H    0.223684
    32  N    0.488108
    33  O   -0.460447
    34  O   -0.460261
 Sum of Mulliken charges =  -0.00000

 Dipole moment (field-independent basis, Debye):
    X=              3.1036    Y=              4.1826    Z=              0.4363  Tot=              5.2265
 Quadrupole moment (field-independent basis, Debye-Ang):
   XX=           -112.2484   YY=            -96.5996   ZZ=            -92.0424
   XY=            -14.7318   XZ=              0.0285   YZ=             -1.8137

 Normal termination of Gaussian 16 at Thu May  6 01:07:44 2021.
