 Gaussian 16, Revision A.03,
 Gaussian 16:  EM64L-G16RevA.03 25-Dec-2016

 -------------
 #p 6-31g* mp2
 -------------

 ------------------------------------------------------
 Input file generated by CHIRIPA (05-May-2021 14:55:24)
 ------------------------------------------------------
 Symbolic Z-matrix:
 Charge =  0 Multiplicity = 1

                         Standard orientation:
 ---------------------------------------------------------------------
 Center     Atomic      Atomic             Coordinates (Angstroms)
 Number     Number       Type             X           Y           Z
 ---------------------------------------------------------------------
      1          6           0        3.340136    2.511718    0.667043
      2          6           0        4.402292    1.689636    0.276499
      3          6           0        4.162561    0.394496   -0.192213
      4          6           0        2.842345   -0.048274   -0.257585
      5          6           0        1.762838    0.746857    0.124153
      6          6           0        2.026115    2.038539    0.589760
      7          1           0        3.535510    3.516471    1.029944
      8          1           0        5.423797    2.054461    0.335442
      9          1           0        4.966094   -0.263048   -0.501064
     10          1           0        0.755296    0.355239    0.054064
     11          1           0        1.199265    2.674765    0.892381
     12          7           0        2.576088   -1.417550   -0.752146
     13          8           0        1.403905   -1.784041   -0.800172
     14          8           0        3.544622   -2.098370   -1.082392
     15          6           0       -3.914078    0.317479   -0.263116
     16          6           0       -5.418990    0.586554   -0.234441
     17          6           0       -5.843118    1.678460   -1.217117
     18          1           0       -3.377208    1.248072   -0.033525
     19          1           0       -3.619430    0.029830   -1.281858
     20          1           0       -5.710946    0.872268    0.784257
     21          1           0       -5.952345   -0.344831   -0.463939
     22          1           0       -5.580034    1.397663   -2.242076
     23          1           0       -5.337263    2.621678   -0.986788
     24          1           0       -6.922682    1.854613   -1.180095
     25          6           0       -3.474662   -0.771622    0.713869
     26          6           0       -1.969750   -1.040698    0.685193
     27          6           0       -1.545624   -2.132602    1.667869
     28          1           0       -3.769311   -0.483973    1.732611
     29          1           0       -4.011533   -1.702214    0.484277
     30          1           0       -1.436395   -0.109312    0.914692
     31          1           0       -1.677795   -1.326411   -0.333505
     32          1           0       -2.051478   -3.075822    1.437540
     33          1           0       -1.808706   -1.851807    2.692829
     34          1           0       -0.466059   -2.308755    1.630848
 ---------------------------------------------------------------------

 SCF Done:  E(RHF) =  -669.535879791     A.U. after   15 cycles
 E2 =    -0.2092186575D+01 EUMP2 =    -0.67162806636636D+03

 The electronic state is 1-A.
 Alpha  occ. eigenvalues --  -20.60864 -20.60856 -15.85894 -11.31187 -11.27769
 Alpha  occ. eigenvalues --  -11.27702 -11.27508 -11.26773 -11.26755 -11.21580
 Alpha  occ. eigenvalues --  -11.21370 -11.21354 -11.21209 -11.21085 -11.20522
 Alpha  occ. eigenvalues --   -1.59924  -1.39479  -1.19364  -1.08776  -1.08313
 Alpha  occ. eigenvalues --   -1.04759  -1.03352  -0.95791  -0.95607  -0.86799
 Alpha  occ. eigenvalues --   -0.86162  -0.82453  -0.79455  -0.78180  -0.77469
 Alpha  occ. eigenvalues --   -0.72118  -0.71238  -0.70481  -0.65038  -0.64948
 Alpha  occ. eigenvalues --   -0.64756  -0.62134  -0.60742  -0.59143  -0.57374
 Alpha  occ. eigenvalues --   -0.55276  -0.55070  -0.53094  -0.52859  -0.52440
 Alpha  occ. eigenvalues --   -0.52204  -0.49739  -0.48871  -0.48871  -0.47737
 Alpha  occ. eigenvalues --   -0.46478  -0.45696  -0.45563  -0.44886  -0.43597
 Alpha  occ. eigenvalues --   -0.37351  -0.36358
 Alpha virt. eigenvalues --    0.04992   0.11276   0.16481   0.20714   0.23040
 Alpha virt. eigenvalues --    0.24222   0.25867   0.26914   0.27707   0.28140
 Alpha virt. eigenvalues --    0.29216   0.30663   0.31561   0.31715   0.32289

 Mulliken charges:
               1
     1  C   -0.170239
     2  C   -0.219218
     3  C   -0.169944
     4  C    0.155949
     5  C   -0.179164
     6  C   -0.222411
     7  H    0.225607
     8  H    0.223422
     9  H    0.275454
    10  H    0.292352
    11  H    0.223376
    12  N    0.488992
    13  O   -0.463000
    14  O   -0.459348
    15  C   -0.297822
    16  C   -0.299440
    17  C   -0.475546
    18  H    0.143131
    19  H    0.151995
    20  H    0.151113
    21  H    0.153476
    22  H    0.156086
    23  H    0.152996
    24  H    0.160343
    25  C   -0.297147
    26  C   -0.303532
    27  C   -0.477907
    28  H    0.147291
    29  H    0.152341
    30  H    0.133184
    31  H    0.169102
    32  H    0.157353
    33  H    0.148525
    34  H    0.172627
 Sum of Mulliken charges =  -0.00000

 Dipole moment (field-independent basis, Debye):
    X=              0.9953    Y=              4.6501    Z=              1.6474  Tot=              5.0327
 Quadrupole moment (field-independent basis, Debye-Ang):
   XX=            -84.8822   YY=            -95.5601   ZZ=            -96.5325
   XY=             13.8183   XZ=              4.0816   YZ=             -0.0854

 Normal termination of Gaussian 16 at Wed May  5 22:26:09 2021.
