 Gaussian 16, Revision A.03,
 Gaussian 16:  EM64L-G16RevA.03 25-Dec-2016

 -------------
 #p 6-31g* mp2
 -------------

 ------------------------------------------------------
 Input file generated by CHIRIPA (05-May-2021 14:55:22)
 ------------------------------------------------------
 Symbolic Z-matrix:
 Charge =  0 Multiplicity = 1

                         Standard orientation:
 ---------------------------------------------------------------------
 Center     Atomic      Atomic             Coordinates (Angstroms)
 Number     Number       Type             X           Y           Z
 ---------------------------------------------------------------------
      1          6           0        0.597787    0.306959    0.782992
      2          6           0        1.097905    0.936491   -0.361601
      3          6           0        2.424924    0.742167   -0.756326
      4          6           0        3.227536   -0.091984    0.020395
      5          6           0        2.758517   -0.733223    1.165875
      6          6           0        1.428225   -0.524423    1.541739
      7          1           0       -0.434344    0.463538    1.082298
      8          1           0        0.455267    1.582692   -0.952775
      9          1           0        2.837917    1.217157   -1.637937
     10          1           0        3.423274   -1.371712    1.734952
     11          1           0        1.042533   -1.014622    2.431116
     12          7           0        4.634124   -0.305368   -0.387498
     13          8           0        5.320843   -1.045048    0.313877
     14          8           0        5.023255    0.271101   -1.400858
     15          6           0       -4.359852   -0.465616   -0.244977
     16          6           0       -3.789290   -1.884210   -0.239043
     17          6           0       -4.852435   -2.950107   -0.506213
     18          1           0       -5.152470   -0.392857    0.512260
     19          1           0       -4.836798   -0.273775   -1.216118
     20          1           0       -3.312351   -2.072831    0.731300
     21          1           0       -2.997808   -1.953547   -0.996251
     22          1           0       -5.321813   -2.789904   -1.482235
     23          1           0       -5.638143   -2.909865    0.255132
     24          1           0       -4.422814   -3.956690   -0.497492
     25          6           0       -3.309174    0.611063    0.020667
     26          6           0       -3.879736    2.029657    0.014733
     27          6           0       -2.816591    3.095553    0.281902
     28          1           0       -2.832229    0.419223    0.991808
     29          1           0       -2.516557    0.538303   -0.736571
     30          1           0       -4.671219    2.098993    0.771941
     31          1           0       -4.356676    2.218277   -0.955610
     32          1           0       -2.030884    3.055312   -0.479443
     33          1           0       -2.347213    2.935350    1.257925
     34          1           0       -3.246212    4.102137    0.273181
 ---------------------------------------------------------------------

 SCF Done:  E(RHF) =  -669.535386277     A.U. after   15 cycles
 E2 =    -0.2092165655D+01 EUMP2 =    -0.67162755193227D+03

 The electronic state is 1-A.
 Alpha  occ. eigenvalues --  -20.60681 -20.60675 -15.85735 -11.31070 -11.27649
 Alpha  occ. eigenvalues --  -11.27646 -11.27287 -11.26635 -11.26625 -11.22747
 Alpha  occ. eigenvalues --  -11.22688 -11.22440 -11.22338 -11.22304 -11.21724
 Alpha  occ. eigenvalues --   -1.59757  -1.39312  -1.19239  -1.09517  -1.08626
 Alpha  occ. eigenvalues --   -1.04646  -1.04519  -0.96991  -0.95470  -0.88000
 Alpha  occ. eigenvalues --   -0.86038  -0.82318  -0.80604  -0.79359  -0.77369
 Alpha  occ. eigenvalues --   -0.71952  -0.71081  -0.70325  -0.66139  -0.64886
 Alpha  occ. eigenvalues --   -0.64655  -0.62026  -0.61880  -0.60361  -0.58609
 Alpha  occ. eigenvalues --   -0.56292  -0.55158  -0.53623  -0.53408  -0.52959
 Alpha  occ. eigenvalues --   -0.52733  -0.50929  -0.48896  -0.48713  -0.48708
 Alpha  occ. eigenvalues --   -0.47635  -0.46825  -0.46773  -0.44798  -0.44724
 Alpha  occ. eigenvalues --   -0.37194  -0.36257
 Alpha virt. eigenvalues --    0.05166   0.11363   0.16646   0.18964   0.22439
 Alpha virt. eigenvalues --    0.23206   0.23973   0.25728   0.26777   0.28034
 Alpha virt. eigenvalues --    0.29266   0.30070   0.30780   0.31423   0.31761

 Mulliken charges:
               1
     1  C   -0.175018
     2  C   -0.224707
     3  C   -0.171034
     4  C    0.158063
     5  C   -0.170663
     6  C   -0.221317
     7  H    0.237279
     8  H    0.224814
     9  H    0.275139
    10  H    0.275053
    11  H    0.222812
    12  N    0.488045
    13  O   -0.460838
    14  O   -0.460861
    15  C   -0.297781
    16  C   -0.300693
    17  C   -0.476366
    18  H    0.152526
    19  H    0.153363
    20  H    0.149064
    21  H    0.154149
    22  H    0.157164
    23  H    0.156279
    24  H    0.162962
    25  C   -0.305137
    26  C   -0.299688
    27  C   -0.479218
    28  H    0.143356
    29  H    0.148595
    30  H    0.156274
    31  H    0.156538
    32  H    0.150365
    33  H    0.153828
    34  H    0.167654
 Sum of Mulliken charges =  -0.00000

 Dipole moment (field-independent basis, Debye):
    X=             -5.2978    Y=              0.7541    Z=              1.3921  Tot=              5.5293
 Quadrupole moment (field-independent basis, Debye-Ang):
   XX=           -126.6529   YY=            -93.9127   ZZ=            -90.9552
   XY=              1.7463   XZ=              5.0502   YZ=             -3.0455

 Normal termination of Gaussian 16 at Wed May  5 22:18:56 2021.
