 Gaussian 16, Revision A.03,
 Gaussian 16:  EM64L-G16RevA.03 25-Dec-2016

 -------------
 #p 6-31g* mp2
 -------------

 ------------------------------------------------------
 Input file generated by CHIRIPA (05-May-2021 14:55:20)
 ------------------------------------------------------
 Symbolic Z-matrix:
 Charge =  0 Multiplicity = 1

                         Standard orientation:
 ---------------------------------------------------------------------
 Center     Atomic      Atomic             Coordinates (Angstroms)
 Number     Number       Type             X           Y           Z
 ---------------------------------------------------------------------
      1          6           0        3.326871   -0.783250   -1.880357
      2          6           0        3.933004    0.058229   -0.941721
      3          6           0        3.280128    0.376119    0.252953
      4          6           0        2.016271   -0.167512    0.477499
      5          6           0        1.386162   -1.008887   -0.438111
      6          6           0        2.057622   -1.313187   -1.626004
      7          1           0        3.841258   -1.024916   -2.805775
      8          1           0        4.918652    0.471232   -1.136584
      9          1           0        3.726255    1.024926    0.996887
     10          1           0        0.402911   -1.405346   -0.215724
     11          1           0        1.584467   -1.966967   -2.353151
     12          7           0        1.315263    0.161831    1.738658
     13          8           0        0.202401   -0.329977    1.912727
     14          8           0        1.891949    0.905543    2.529204
     15          6           0       -2.415213    0.813291   -0.797793
     16          6           0       -2.476558    2.224675   -0.212801
     17          6           0       -1.845407    3.272676   -1.129936
     18          1           0       -1.366697    0.548961   -0.991929
     19          1           0       -2.925060    0.804847   -1.771128
     20          1           0       -1.967951    2.230138    0.759776
     21          1           0       -3.525035    2.485603   -0.019856
     22          1           0       -2.357458    3.296510   -2.097323
     23          1           0       -0.791526    3.039593   -1.313261
     24          1           0       -1.900179    4.274351   -0.692321
     25          6           0       -3.042207   -0.245505    0.107502
     26          6           0       -2.980863   -1.656890   -0.477489
     27          6           0       -3.612014   -2.704891    0.439645
     28          1           0       -2.532361   -0.237062    1.080836
     29          1           0       -4.090724    0.018825    0.301638
     30          1           0       -1.932385   -1.917817   -0.670435
     31          1           0       -3.489470   -1.662351   -1.450066
     32          1           0       -4.665895   -2.471806    0.622970
     33          1           0       -3.099964   -2.728723    1.407032
     34          1           0       -3.557242   -3.706566    0.002030
 ---------------------------------------------------------------------

 SCF Done:  E(RHF) =  -669.535944190     A.U. after   15 cycles
 E2 =    -0.2093666765D+01 EUMP2 =    -0.67162961095461D+03

 The electronic state is 1-A.
 Alpha  occ. eigenvalues --  -20.61006 -20.60997 -15.86033 -11.31318 -11.27872
 Alpha  occ. eigenvalues --  -11.27853 -11.27599 -11.26875 -11.26861 -11.21461
 Alpha  occ. eigenvalues --  -11.21053 -11.20951 -11.20763 -11.20714 -11.20675
 Alpha  occ. eigenvalues --   -1.60061  -1.39619  -1.19482  -1.08891  -1.07974
 Alpha  occ. eigenvalues --   -1.04872  -1.03157  -0.95748  -0.95569  -0.86605
 Alpha  occ. eigenvalues --   -0.86275  -0.82579  -0.79229  -0.77793  -0.77635
 Alpha  occ. eigenvalues --   -0.72271  -0.71377  -0.70594  -0.65154  -0.64962
 Alpha  occ. eigenvalues --   -0.64495  -0.62209  -0.60547  -0.58960  -0.57202
 Alpha  occ. eigenvalues --   -0.55377  -0.54848  -0.53207  -0.52970  -0.52317
 Alpha  occ. eigenvalues --   -0.52012  -0.49525  -0.49016  -0.49009  -0.47550
 Alpha  occ. eigenvalues --   -0.46253  -0.45420  -0.45257  -0.44846  -0.43368
 Alpha  occ. eigenvalues --   -0.37451  -0.36450
 Alpha virt. eigenvalues --    0.04847   0.11089   0.16351   0.20041   0.23188
 Alpha virt. eigenvalues --    0.24318   0.25858   0.27476   0.27995   0.28431
 Alpha virt. eigenvalues --    0.29333   0.31028   0.31435   0.32078   0.32264

 Mulliken charges:
               1
     1  C   -0.170274
     2  C   -0.218719
     3  C   -0.169916
     4  C    0.156894
     5  C   -0.178340
     6  C   -0.222528
     7  H    0.226325
     8  H    0.224050
     9  H    0.275906
    10  H    0.289757
    11  H    0.224722
    12  N    0.490437
    13  O   -0.464796
    14  O   -0.458319
    15  C   -0.297283
    16  C   -0.302938
    17  C   -0.475116
    18  H    0.142739
    19  H    0.144533
    20  H    0.163423
    21  H    0.150900
    22  H    0.152194
    23  H    0.152159
    24  H    0.160541
    25  C   -0.307979
    26  C   -0.298232
    27  C   -0.476962
    28  H    0.177936
    29  H    0.147115
    30  H    0.137247
    31  H    0.149298
    32  H    0.155920
    33  H    0.163437
    34  H    0.155868
 Sum of Mulliken charges =  -0.00000

 Dipole moment (field-independent basis, Debye):
    X=              2.5725    Y=             -1.1266    Z=             -4.1827  Tot=              5.0380
 Quadrupole moment (field-independent basis, Debye-Ang):
   XX=            -81.2523   YY=            -94.4027   ZZ=            -99.3270
   XY=             -0.8282   XZ=             -6.7621   YZ=              1.6750

 Normal termination of Gaussian 16 at Thu May  6 14:06:51 2021.
