 Gaussian 16, Revision A.03,
 Gaussian 16:  EM64L-G16RevA.03 25-Dec-2016

 -------------
 #p 6-31g* mp2
 -------------

 ------------------------------------------------------
 Input file generated by CHIRIPA (05-May-2021 14:57:22)
 ------------------------------------------------------
 Symbolic Z-matrix:
 Charge =  0 Multiplicity = 1

                         Standard orientation:
 ---------------------------------------------------------------------
 Center     Atomic      Atomic             Coordinates (Angstroms)
 Number     Number       Type             X           Y           Z
 ---------------------------------------------------------------------
      1          6           0       -3.968774    0.619177   -1.724239
      2          6           0       -4.328424    0.970737   -0.419027
      3          6           0       -3.610602    0.474632    0.673291
      4          6           0       -2.533847   -0.374567    0.422793
      5          6           0       -2.150960   -0.743235   -0.865917
      6          6           0       -2.883104   -0.235181   -1.943132
      7          1           0       -4.531958    1.009204   -2.566913
      8          1           0       -5.171114    1.634056   -0.246035
      9          1           0       -3.867361    0.730562    1.694072
     10          1           0       -1.306125   -1.406432   -1.006779
     11          1           0       -2.601524   -0.509909   -2.955695
     12          7           0       -1.766340   -0.906096    1.571187
     13          8           0       -0.821770   -1.652581    1.323831
     14          8           0       -2.123871   -0.566159    2.696910
     15          6           0        2.130731    2.698881    0.284253
     16          6           0        3.319120    2.127410    0.750806
     17          6           0        3.622889    0.791972    0.469961
     18          6           0        2.711542    0.053790   -0.283580
     19          6           0        1.519340    0.594658   -0.762542
     20          6           0        1.236211    1.932033   -0.469603
     21          1           0        1.902772    3.737035    0.507117
     22          1           0        4.015676    2.720564    1.336487
     23          1           0        4.535683    0.324409    0.818689
     24          1           0        0.844581   -0.021817   -1.343985
     25          1           0        0.312535    2.373209   -0.833241
     26          7           0        3.022204   -1.361005   -0.587300
     27          8           0        2.202756   -1.990077   -1.253190
     28          8           0        4.079266   -1.814060   -0.153714
 ---------------------------------------------------------------------

 SCF Done:  E(RHF) =  -868.337584012     A.U. after   16 cycles
 E2 =    -0.2601615001D+01 EUMP2 =    -0.87093919901257D+03

 The electronic state is 1-A.
 Alpha  occ. eigenvalues --  -20.60935 -20.60898 -20.60388 -20.60383 -15.85971
 Alpha  occ. eigenvalues --  -15.85438 -11.31540 -11.30833 -11.28115 -11.28066
 Alpha  occ. eigenvalues --  -11.27871 -11.27483 -11.27397 -11.27195 -11.27169
 Alpha  occ. eigenvalues --  -11.27155 -11.26491 -11.26437  -1.59992  -1.59435
 Alpha  occ. eigenvalues --   -1.39537  -1.38999  -1.19727  -1.19015  -1.09075
 Alpha  occ. eigenvalues --   -1.08404  -1.05149  -1.04450  -0.95876  -0.95242
 Alpha  occ. eigenvalues --   -0.86525  -0.85847  -0.82693  -0.82092  -0.77726
 Alpha  occ. eigenvalues --   -0.77122  -0.72179  -0.71679  -0.71331  -0.70812
 Alpha  occ. eigenvalues --   -0.70719  -0.70156  -0.65355  -0.65135  -0.64692
 Alpha  occ. eigenvalues --   -0.64474  -0.62503  -0.61779  -0.55616  -0.54970
 Alpha  occ. eigenvalues --   -0.53484  -0.53221  -0.52735  -0.52540  -0.48964
 Alpha  occ. eigenvalues --   -0.48925  -0.48427  -0.48413  -0.44907  -0.44389
 Alpha  occ. eigenvalues --   -0.37726  -0.36977  -0.36794  -0.36007
 Alpha virt. eigenvalues --    0.04756   0.05434   0.10776   0.11654   0.16227
 Alpha virt. eigenvalues --    0.16916   0.20603   0.21900   0.25898   0.27522
 Alpha virt. eigenvalues --    0.27874   0.29170   0.30487   0.31151   0.31967

 Mulliken charges:
               1
     1  C   -0.172225
     2  C   -0.218999
     3  C   -0.172374
     4  C    0.159418
     5  C   -0.185859
     6  C   -0.222359
     7  H    0.226625
     8  H    0.224213
     9  H    0.276356
    10  H    0.288094
    11  H    0.226786
    12  N    0.487592
    13  O   -0.453982
    14  O   -0.461212
    15  C   -0.169790
    16  C   -0.217829
    17  C   -0.168963
    18  C    0.164318
    19  C   -0.165236
    20  C   -0.221680
    21  H    0.223897
    22  H    0.222909
    23  H    0.275905
    24  H    0.266563
    25  H    0.220617
    26  N    0.491088
    27  O   -0.464537
    28  O   -0.459334
 Sum of Mulliken charges =  -0.00000

 Dipole moment (field-independent basis, Debye):
    X=             -3.7688    Y=              6.7089    Z=             -2.8424  Tot=              8.2032
 Quadrupole moment (field-independent basis, Debye-Ang):
   XX=            -91.7692   YY=           -105.6509   ZZ=           -106.7055
   XY=              8.3930   XZ=             13.1141   YZ=              3.0469

 Normal termination of Gaussian 16 at Thu May  6 09:41:51 2021.
