 Gaussian 16, Revision A.03,
 Gaussian 16:  EM64L-G16RevA.03 25-Dec-2016

 -------------
 #p 6-31g* mp2
 -------------

 ------------------------------------------------------
 Input file generated by CHIRIPA (05-May-2021 14:55:20)
 ------------------------------------------------------
 Symbolic Z-matrix:
 Charge =  0 Multiplicity = 1

                         Standard orientation:
 ---------------------------------------------------------------------
 Center     Atomic      Atomic             Coordinates (Angstroms)
 Number     Number       Type             X           Y           Z
 ---------------------------------------------------------------------
      1          6           0       -3.464301    2.570182    0.468904
      2          6           0       -4.028694    2.011025   -0.682324
      3          6           0       -3.818185    0.664563   -0.994214
      4          6           0       -3.034449   -0.097077   -0.128794
      5          6           0       -2.458570    0.431053    1.025646
      6          6           0       -2.682419    1.779805    1.317718
      7          1           0       -3.633011    3.617036    0.703490
      8          1           0       -4.636351    2.622453   -1.343348
      9          1           0       -4.243154    0.206117   -1.878888
     10          1           0       -1.857436   -0.203624    1.665365
     11          1           0       -2.242851    2.211375    2.212465
     12          7           0       -2.804531   -1.523728   -0.448488
     13          8           0       -2.110169   -2.173480    0.330178
     14          8           0       -3.323038   -1.965172   -1.471677
     15          6           0        4.675670   -0.171723   -0.079363
     16          6           0        5.195129    1.210344   -0.476901
     17          6           0        6.683310    1.204114   -0.827719
     18          1           0        5.254461   -0.541247    0.778191
     19          1           0        4.855910   -0.874754   -0.904382
     20          1           0        5.012712    1.910873    0.348083
     21          1           0        4.614907    1.576704   -1.333488
     22          1           0        6.878730    0.527221   -1.665710
     23          1           0        7.278795    0.863291    0.025415
     24          1           0        7.033669    2.202125   -1.108932
     25          6           0        3.189525   -0.181691    0.274191
     26          6           0        2.670067   -1.563758    0.671729
     27          6           0        1.181887   -1.557527    1.022547
     28          1           0        3.009286    0.521341    1.099211
     29          1           0        2.610735    0.187833   -0.583363
     30          1           0        3.250289   -1.930116    1.528316
     31          1           0        2.852484   -2.264287   -0.153255
     32          1           0        0.586401   -1.216704    0.169413
     33          1           0        0.986466   -0.880636    1.860538
     34          1           0        0.831527   -2.555539    1.303760
 ---------------------------------------------------------------------

 SCF Done:  E(RHF) =  -669.535499164     A.U. after   15 cycles
 E2 =    -0.2091744717D+01 EUMP2 =    -0.67162724388170D+03

 The electronic state is 1-A.
 Alpha  occ. eigenvalues --  -20.60827 -20.60801 -15.85843 -11.31184 -11.27762
 Alpha  occ. eigenvalues --  -11.27728 -11.27503 -11.26771 -11.26754 -11.21495
 Alpha  occ. eigenvalues --  -11.21195 -11.21142 -11.21088 -11.20983 -11.20374
 Alpha  occ. eigenvalues --   -1.59883  -1.39437  -1.19360  -1.08763  -1.08174
 Alpha  occ. eigenvalues --   -1.04757  -1.03217  -0.95693  -0.95561  -0.86672
 Alpha  occ. eigenvalues --   -0.86154  -0.82434  -0.79302  -0.78004  -0.77458
 Alpha  occ. eigenvalues --   -0.72072  -0.71205  -0.70469  -0.65017  -0.64808
 Alpha  occ. eigenvalues --   -0.64762  -0.62105  -0.60618  -0.59021  -0.57264
 Alpha  occ. eigenvalues --   -0.55267  -0.54955  -0.53093  -0.52868  -0.52288
 Alpha  occ. eigenvalues --   -0.52079  -0.49640  -0.48838  -0.48815  -0.47606
 Alpha  occ. eigenvalues --   -0.46371  -0.45559  -0.45479  -0.44711  -0.43430
 Alpha  occ. eigenvalues --   -0.37345  -0.36355
 Alpha virt. eigenvalues --    0.05028   0.11258   0.16510   0.21201   0.23100
 Alpha virt. eigenvalues --    0.24537   0.26140   0.26991   0.27715   0.27803
 Alpha virt. eigenvalues --    0.29020   0.30713   0.31495   0.31866   0.32517

 Mulliken charges:
               1
     1  C   -0.170515
     2  C   -0.218783
     3  C   -0.170899
     4  C    0.156589
     5  C   -0.171779
     6  C   -0.219388
     7  H    0.225579
     8  H    0.223358
     9  H    0.275426
    10  H    0.280875
    11  H    0.223530
    12  N    0.488088
    13  O   -0.458123
    14  O   -0.460346
    15  C   -0.297890
    16  C   -0.299182
    17  C   -0.475522
    18  H    0.149236
    19  H    0.150556
    20  H    0.150008
    21  H    0.151324
    22  H    0.155748
    23  H    0.155033
    24  H    0.159147
    25  C   -0.297554
    26  C   -0.302167
    27  C   -0.470054
    28  H    0.145104
    29  H    0.148780
    30  H    0.149420
    31  H    0.154269
    32  H    0.157687
    33  H    0.139244
    34  H    0.173202
 Sum of Mulliken charges =  -0.00000

 Dipole moment (field-independent basis, Debye):
    X=             -0.9384    Y=              4.8948    Z=              1.0934  Tot=              5.1024
 Quadrupole moment (field-independent basis, Debye-Ang):
   XX=            -90.4565   YY=            -96.0012   ZZ=            -91.1576
   XY=            -15.9773   XZ=             -0.2891   YZ=             -0.9867

 Normal termination of Gaussian 16 at Thu May  6 20:41:12 2021.
