 Gaussian 16, Revision A.03,
 Gaussian 16:  EM64L-G16RevA.03 25-Dec-2016

 -------------
 #p 6-31g* mp2
 -------------

 ------------------------------------------------------
 Input file generated by CHIRIPA (05-May-2021 14:51:08)
 ------------------------------------------------------
 Symbolic Z-matrix:
 Charge =  0 Multiplicity = 1

                         Standard orientation:
 ---------------------------------------------------------------------
 Center     Atomic      Atomic             Coordinates (Angstroms)
 Number     Number       Type             X           Y           Z
 ---------------------------------------------------------------------
      1          6           0        3.690714   -0.634368   -0.580034
      2          6           0        2.407647   -1.352555   -0.160594
      3          6           0        2.153915   -2.627731   -0.965168
      4          1           0        3.633482   -0.389558   -1.649491
      5          1           0        4.541640   -1.319363   -0.461286
      6          1           0        1.559571   -0.665959   -0.278788
      7          1           0        2.467859   -1.595513    0.908032
      8          1           0        2.980893   -3.333941   -0.838776
      9          1           0        2.067445   -2.399105   -2.032339
     10          1           0        1.231702   -3.125118   -0.648956
     11          6           0        3.958069    0.642258    0.215249
     12          6           0        5.241136    1.360445   -0.204191
     13          6           0        5.494868    2.635621    0.600383
     14          1           0        3.107142    1.327253    0.096500
     15          1           0        4.015301    0.397448    1.284706
     16          1           0        5.180923    1.603404   -1.272817
     17          1           0        6.089211    0.673849   -0.085997
     18          1           0        5.581338    2.406995    1.667554
     19          1           0        4.667889    3.341831    0.473991
     20          1           0        6.417081    3.133008    0.284171
     21          6           0       -3.149085   -0.329407    0.035876
     22          6           0       -2.667377   -1.255832    1.152872
     23          6           0       -1.315026   -1.899428    0.845099
     24          1           0       -3.217394   -0.899505   -0.900749
     25          1           0       -2.397815    0.455151   -0.129828
     26          1           0       -3.419969   -2.037600    1.317365
     27          1           0       -2.600390   -0.683507    2.086989
     28          1           0       -0.547089   -1.132421    0.701669
     29          1           0       -1.371326   -2.494207   -0.072327
     30          1           0       -0.989669   -2.557657    1.656725
     31          6           0       -4.499699    0.321517    0.328909
     32          6           0       -4.981405    1.247941   -0.788088
     33          6           0       -6.333756    1.891538   -0.480314
     34          1           0       -5.250968   -0.463041    0.494613
     35          1           0       -4.431388    0.891614    1.265535
     36          1           0       -5.048393    0.675617   -1.722204
     37          1           0       -4.228813    2.029710   -0.952580
     38          1           0       -6.277457    2.486316    0.437112
     39          1           0       -7.101694    1.124530   -0.336885
     40          1           0       -6.659113    2.549768   -1.291940
 ---------------------------------------------------------------------

 SCF Done:  E(RHF) =  -470.732751627     A.U. after   11 cycles
 E2 =    -0.1583060884D+01 EUMP2 =    -0.47231581251089D+03

 The electronic state is 1-A.
 Alpha  occ. eigenvalues --  -11.21607 -11.21590 -11.21583 -11.21528 -11.21408
 Alpha  occ. eigenvalues --  -11.21378 -11.21349 -11.21311 -11.21075 -11.21066
 Alpha  occ. eigenvalues --  -11.21009 -11.20957  -1.08435  -1.08392  -1.03557
 Alpha  occ. eigenvalues --   -1.03456  -0.96027  -0.95885  -0.87014  -0.86935
 Alpha  occ. eigenvalues --   -0.79654  -0.79508  -0.78278  -0.78179  -0.65078
 Alpha  occ. eigenvalues --   -0.65015  -0.60982  -0.60843  -0.59357  -0.59319
 Alpha  occ. eigenvalues --   -0.57742  -0.57398  -0.55291  -0.55206  -0.52783
 Alpha  occ. eigenvalues --   -0.52598  -0.52432  -0.52207  -0.50006  -0.49836
 Alpha  occ. eigenvalues --   -0.47964  -0.47817  -0.46724  -0.46485  -0.45851
 Alpha  occ. eigenvalues --   -0.45749  -0.45704  -0.45520  -0.43793  -0.43717
 Alpha virt. eigenvalues --    0.22096   0.23015   0.23455   0.24759   0.25942
 Alpha virt. eigenvalues --    0.26567   0.26834   0.27527   0.27755   0.29160
 Alpha virt. eigenvalues --    0.29989   0.31050   0.31457   0.31874   0.32404

 Mulliken charges:
               1
     1  C   -0.297753
     2  C   -0.300890
     3  C   -0.479817
     4  H    0.149422
     5  H    0.149360
     6  H    0.153279
     7  H    0.151990
     8  H    0.154454
     9  H    0.154282
    10  H    0.166410
    11  C   -0.298196
    12  C   -0.299576
    13  C   -0.475678
    14  H    0.148860
    15  H    0.149555
    16  H    0.151928
    17  H    0.151987
    18  H    0.155135
    19  H    0.155017
    20  H    0.160233
    21  C   -0.298178
    22  C   -0.300373
    23  C   -0.480847
    24  H    0.149668
    25  H    0.148829
    26  H    0.151650
    27  H    0.151813
    28  H    0.162733
    29  H    0.154835
    30  H    0.159776
    31  C   -0.298241
    32  C   -0.299629
    33  C   -0.475705
    34  H    0.149615
    35  H    0.149675
    36  H    0.151935
    37  H    0.151791
    38  H    0.155194
    39  H    0.155219
    40  H    0.160238
 Sum of Mulliken charges =  -0.00000

 Dipole moment (field-independent basis, Debye):
    X=             -0.0075    Y=             -0.0115    Z=              0.0066  Tot=              0.0152
 Quadrupole moment (field-independent basis, Debye-Ang):
   XX=            -85.4892   YY=            -85.0679   ZZ=            -84.3850
   XY=              0.2914   XZ=              0.5516   YZ=             -0.5364

 Normal termination of Gaussian 16 at Wed May  5 18:06:29 2021.
