 Gaussian 16, Revision A.03,
 Gaussian 16:  EM64L-G16RevA.03 25-Dec-2016

 -------------
 #p 6-31g* mp2
 -------------

 ------------------------------------------------------
 Input file generated by CHIRIPA (05-May-2021 14:55:20)
 ------------------------------------------------------
 Symbolic Z-matrix:
 Charge =  0 Multiplicity = 1

                         Standard orientation:
 ---------------------------------------------------------------------
 Center     Atomic      Atomic             Coordinates (Angstroms)
 Number     Number       Type             X           Y           Z
 ---------------------------------------------------------------------
      1          6           0        1.422908    1.387525    2.168128
      2          6           0        2.065302    1.837757    1.010051
      3          6           0        2.470617    0.932042    0.025192
      4          6           0        2.216468   -0.422931    0.231946
      5          6           0        1.578589   -0.902447    1.374953
      6          6           0        1.182026    0.021269    2.346568
      7          1           0        1.111450    2.098098    2.928046
      8          1           0        2.253683    2.898231    0.868793
      9          1           0        2.969837    1.253298   -0.880894
     10          1           0        1.404594   -1.965682    1.487533
     11          1           0        0.683334   -0.331249    3.244945
     12          7           0        2.640924   -1.391299   -0.803670
     13          8           0        2.405374   -2.579879   -0.597684
     14          8           0        3.201125   -0.943390   -1.801763
     15          6           0       -3.097757    0.004745    0.076533
     16          6           0       -4.409790   -0.682553   -0.303172
     17          6           0       -5.098642   -1.342751    0.891574
     18          1           0       -2.421963   -0.733751    0.529157
     19          1           0       -3.297805    0.760136    0.849036
     20          1           0       -4.207541   -1.435463   -1.075724
     21          1           0       -5.082468    0.057626   -0.755118
     22          1           0       -5.328997   -0.600004    1.662199
     23          1           0       -4.449100   -2.101576    1.339772
     24          1           0       -6.034543   -1.828046    0.597574
     25          6           0       -2.397316    0.669385   -1.107260
     26          6           0       -1.085283    1.356683   -0.727556
     27          6           0       -0.396432    2.016881   -1.922301
     28          1           0       -2.197269   -0.086006   -1.879764
     29          1           0       -3.073111    1.407881   -1.559884
     30          1           0       -0.412605    0.616505   -0.275608
     31          1           0       -1.287532    2.109593    0.044996
     32          1           0       -1.045974    2.775706   -2.370499
     33          1           0       -0.166076    1.274133   -2.692925
     34          1           0        0.539471    2.502177   -1.628301
 ---------------------------------------------------------------------

 SCF Done:  E(RHF) =  -669.533346181     A.U. after   15 cycles
 E2 =    -0.2096159430D+01 EUMP2 =    -0.67162950561100D+03

 The electronic state is 1-A.
 Alpha  occ. eigenvalues --  -20.60845 -20.60840 -15.85900 -11.31260 -11.27868
 Alpha  occ. eigenvalues --  -11.27821 -11.27584 -11.26866 -11.26831 -11.21687
 Alpha  occ. eigenvalues --  -11.21522 -11.21510 -11.21370 -11.21213 -11.21128
 Alpha  occ. eigenvalues --   -1.59923  -1.39474  -1.19484  -1.08849  -1.08491
 Alpha  occ. eigenvalues --   -1.04882  -1.03594  -0.96079  -0.95676  -0.87090
 Alpha  occ. eigenvalues --   -0.86255  -0.82513  -0.79674  -0.78324  -0.77557
 Alpha  occ. eigenvalues --   -0.72116  -0.71258  -0.70560  -0.65144  -0.65111
 Alpha  occ. eigenvalues --   -0.64857  -0.62225  -0.61044  -0.59525  -0.57781
 Alpha  occ. eigenvalues --   -0.55394  -0.55349  -0.53274  -0.52952  -0.52613
 Alpha  occ. eigenvalues --   -0.52496  -0.49987  -0.48877  -0.48870  -0.47937
 Alpha  occ. eigenvalues --   -0.46646  -0.45823  -0.45686  -0.44875  -0.43866
 Alpha  occ. eigenvalues --   -0.37424  -0.36418
 Alpha virt. eigenvalues --    0.04950   0.11142   0.16354   0.20974   0.22871
 Alpha virt. eigenvalues --    0.24184   0.26388   0.26590   0.27436   0.28026
 Alpha virt. eigenvalues --    0.28534   0.30720   0.31279   0.31802   0.32271

 Mulliken charges:
               1
     1  C   -0.169171
     2  C   -0.213946
     3  C   -0.169901
     4  C    0.158456
     5  C   -0.175605
     6  C   -0.215856
     7  H    0.226168
     8  H    0.223837
     9  H    0.276443
    10  H    0.275932
    11  H    0.224329
    12  N    0.487953
    13  O   -0.460666
    14  O   -0.459973
    15  C   -0.297106
    16  C   -0.299850
    17  C   -0.475591
    18  H    0.147599
    19  H    0.145751
    20  H    0.154623
    21  H    0.152109
    22  H    0.153292
    23  H    0.154280
    24  H    0.161379
    25  C   -0.298672
    26  C   -0.302546
    27  C   -0.476119
    28  H    0.152731
    29  H    0.148489
    30  H    0.161774
    31  H    0.144161
    32  H    0.154209
    33  H    0.161385
    34  H    0.150100
 Sum of Mulliken charges =  -0.00000

 Dipole moment (field-independent basis, Debye):
    X=             -1.3986    Y=              3.3556    Z=              3.6720  Tot=              5.1672
 Quadrupole moment (field-independent basis, Debye-Ang):
   XX=           -101.7200   YY=            -94.8976   ZZ=            -92.4357
   XY=              9.2654   XZ=              7.1625   YZ=             -2.3314

 Normal termination of Gaussian 16 at Thu May  6 06:09:10 2021.
