 Gaussian 16, Revision A.03,
 Gaussian 16:  EM64L-G16RevA.03 25-Dec-2016

 -------------
 #p 6-31g* mp2
 -------------

 ------------------------------------------------------
 Input file generated by CHIRIPA (05-May-2021 14:51:08)
 ------------------------------------------------------
 Symbolic Z-matrix:
 Charge =  0 Multiplicity = 1

                         Standard orientation:
 ---------------------------------------------------------------------
 Center     Atomic      Atomic             Coordinates (Angstroms)
 Number     Number       Type             X           Y           Z
 ---------------------------------------------------------------------
      1          6           0       -3.108969   -0.294522   -0.308214
      2          6           0       -3.137228    1.148684   -0.812538
      3          6           0       -4.252159    1.398081   -1.828670
      4          1           0       -2.985865   -0.972796   -1.163629
      5          1           0       -4.080291   -0.536250    0.145103
      6          1           0       -2.165671    1.388059   -1.263529
      7          1           0       -3.260087    1.823611    0.044197
      8          1           0       -5.230988    1.186458   -1.386279
      9          1           0       -4.130354    0.748431   -2.701436
     10          1           0       -4.254050    2.435992   -2.175941
     11          6           0       -1.999785   -0.559439    0.708279
     12          6           0       -1.971526   -2.002645    1.212603
     13          6           0       -0.856595   -2.252043    2.228735
     14          1           0       -1.028463   -0.317712    0.254961
     15          1           0       -2.122889    0.118834    1.563694
     16          1           0       -1.848667   -2.677572    0.355868
     17          1           0       -2.943082   -2.242020    1.663594
     18          1           0       -0.978400   -1.602393    3.101501
     19          1           0        0.122234   -2.040419    1.786344
     20          1           0       -0.854703   -3.289954    2.576006
     21          6           0        2.199570    0.810880    0.356893
     22          6           0        2.548077    2.299426    0.384471
     23          6           0        1.830477    3.053927    1.504101
     24          1           0        1.113142    0.697278    0.239796
     25          1           0        2.457992    0.362904    1.326393
     26          1           0        2.290356    2.744168   -0.585271
     27          1           0        3.633824    2.409496    0.501324
     28          1           0        2.095865    2.637214    2.481096
     29          1           0        0.744763    2.973788    1.388328
     30          1           0        2.094029    4.116188    1.505423
     31          6           0        2.909183    0.043081   -0.756957
     32          6           0        2.560676   -1.445464   -0.784536
     33          6           0        3.278276   -2.199965   -1.904166
     34          1           0        2.650762    0.491057   -1.726458
     35          1           0        3.995612    0.156684   -0.639860
     36          1           0        1.474929   -1.555535   -0.901389
     37          1           0        2.818397   -1.890207    0.185205
     38          1           0        4.363991   -2.119826   -1.788393
     39          1           0        3.012889   -1.783252   -2.881161
     40          1           0        3.014725   -3.262226   -1.905488
 ---------------------------------------------------------------------

 SCF Done:  E(RHF) =  -470.733285259     A.U. after   11 cycles
 E2 =    -0.1583957151D+01 EUMP2 =    -0.47231724240996D+03

 The electronic state is 1-A.
 Alpha  occ. eigenvalues --  -11.21683 -11.21650 -11.21604 -11.21589 -11.21433
 Alpha  occ. eigenvalues --  -11.21422 -11.21357 -11.21355 -11.21127 -11.21105
 Alpha  occ. eigenvalues --  -11.21051 -11.20999  -1.08487  -1.08428  -1.03560
 Alpha  occ. eigenvalues --   -1.03532  -0.96006  -0.95977  -0.87027  -0.86989
 Alpha  occ. eigenvalues --   -0.79627  -0.79603  -0.78439  -0.78114  -0.65246
 Alpha  occ. eigenvalues --   -0.64945  -0.60969  -0.60920  -0.59373  -0.59348
 Alpha  occ. eigenvalues --   -0.57631  -0.57579  -0.55353  -0.55209  -0.52703
 Alpha  occ. eigenvalues --   -0.52672  -0.52468  -0.52367  -0.49987  -0.49890
 Alpha  occ. eigenvalues --   -0.47962  -0.47912  -0.46745  -0.46655  -0.46341
 Alpha  occ. eigenvalues --   -0.45776  -0.45744  -0.45053  -0.43811  -0.43790
 Alpha virt. eigenvalues --    0.20051   0.23266   0.23529   0.24327   0.25181
 Alpha virt. eigenvalues --    0.25842   0.26911   0.27932   0.28508   0.30034
 Alpha virt. eigenvalues --    0.31106   0.31217   0.31729   0.31843   0.32184

 Mulliken charges:
               1
     1  C   -0.297463
     2  C   -0.299778
     3  C   -0.475667
     4  H    0.149363
     5  H    0.149872
     6  H    0.150748
     7  H    0.152081
     8  H    0.155473
     9  H    0.155218
    10  H    0.160342
    11  C   -0.308302
    12  C   -0.298675
    13  C   -0.479494
    14  H    0.158203
    15  H    0.149710
    16  H    0.151442
    17  H    0.151875
    18  H    0.154842
    19  H    0.159865
    20  H    0.159724
    21  C   -0.307880
    22  C   -0.298950
    23  C   -0.476002
    24  H    0.158374
    25  H    0.150045
    26  H    0.151616
    27  H    0.151901
    28  H    0.155247
    29  H    0.156012
    30  H    0.160075
    31  C   -0.297710
    32  C   -0.303062
    33  C   -0.475744
    34  H    0.149162
    35  H    0.150001
    36  H    0.153000
    37  H    0.153101
    38  H    0.155648
    39  H    0.155241
    40  H    0.160546
 Sum of Mulliken charges =  -0.00000

 Dipole moment (field-independent basis, Debye):
    X=              0.0173    Y=              0.0039    Z=              0.0008  Tot=              0.0178
 Quadrupole moment (field-independent basis, Debye-Ang):
   XX=            -84.4743   YY=            -85.2987   ZZ=            -84.9432
   XY=              0.1767   XZ=             -0.2102   YZ=             -0.1584

 Normal termination of Gaussian 16 at Thu May  6 16:33:22 2021.
