 Gaussian 16, Revision A.03,
 Gaussian 16:  EM64L-G16RevA.03 25-Dec-2016

 -------------
 #p 6-31g* mp2
 -------------

 ------------------------------------------------------
 Input file generated by CHIRIPA (05-May-2021 14:57:24)
 ------------------------------------------------------
 Symbolic Z-matrix:
 Charge =  0 Multiplicity = 1

                         Standard orientation:
 ---------------------------------------------------------------------
 Center     Atomic      Atomic             Coordinates (Angstroms)
 Number     Number       Type             X           Y           Z
 ---------------------------------------------------------------------
      1          6           0       -3.244270    2.519912    0.484055
      2          6           0       -2.475562    1.996954   -0.560992
      3          6           0       -2.523794    0.633047   -0.864272
      4          6           0       -3.355362   -0.182762   -0.098609
      5          6           0       -4.133211    0.308323    0.948805
      6          6           0       -4.069187    1.675417    1.234295
      7          1           0       -3.200669    3.580666    0.712740
      8          1           0       -1.834025    2.650434   -1.145320
      9          1           0       -1.939243    0.201762   -1.667835
     10          1           0       -4.763290   -0.368030    1.513574
     11          1           0       -4.667283    2.078783    2.046466
     12          7           0       -3.414782   -1.628356   -0.410262
     13          8           0       -4.155362   -2.326036    0.279247
     14          8           0       -2.719651   -2.036361   -1.338142
     15          6           0        5.860674    0.045327    0.220462
     16          6           0        5.145025   -0.898335    0.964688
     17          6           0        3.751267   -0.963268    0.876562
     18          6           0        3.102418   -0.065235    0.030499
     19          6           0        3.787341    0.886260   -0.723706
     20          6           0        5.180747    0.933047   -0.619879
     21          1           0        6.943242    0.088720    0.295019
     22          1           0        5.670423   -1.589005    1.618122
     23          1           0        3.172445   -1.683845    1.441499
     24          1           0        3.235746    1.561526   -1.366495
     25          1           0        5.733931    1.666952   -1.199031
     26          7           0        1.627095   -0.124372   -0.071107
     27          8           0        1.078973    0.677965   -0.823740
     28          8           0        1.046792   -0.971940    0.603810
 ---------------------------------------------------------------------

 SCF Done:  E(RHF) =  -868.339077824     A.U. after   16 cycles
 E2 =    -0.2599489752D+01 EUMP2 =    -0.87093856757556D+03

 The electronic state is 1-A.
 Alpha  occ. eigenvalues --  -20.61173 -20.61108 -20.59407 -20.59370 -15.86171
 Alpha  occ. eigenvalues --  -15.84441 -11.31422 -11.29662 -11.28003 -11.27946
 Alpha  occ. eigenvalues --  -11.27699 -11.26981 -11.26945 -11.26359 -11.26128
 Alpha  occ. eigenvalues --  -11.26109 -11.25390 -11.25197  -1.60191  -1.58460
 Alpha  occ. eigenvalues --   -1.39753  -1.38019  -1.19582  -1.17867  -1.08999
 Alpha  occ. eigenvalues --   -1.07318  -1.04969  -1.03246  -0.95855  -0.94161
 Alpha  occ. eigenvalues --   -0.86373  -0.84679  -0.82696  -0.80994  -0.77752
 Alpha  occ. eigenvalues --   -0.76029  -0.72408  -0.71491  -0.70692  -0.70683
 Alpha  occ. eigenvalues --   -0.69759  -0.69042  -0.65241  -0.64973  -0.63542
 Alpha  occ. eigenvalues --   -0.63296  -0.62319  -0.60598  -0.55477  -0.53862
 Alpha  occ. eigenvalues --   -0.53302  -0.53061  -0.51616  -0.51373  -0.49154
 Alpha  occ. eigenvalues --   -0.49118  -0.47438  -0.47414  -0.45178  -0.43456
 Alpha  occ. eigenvalues --   -0.37555  -0.36566  -0.35904  -0.34788
 Alpha virt. eigenvalues --    0.04778   0.06515   0.11090   0.12821   0.16291
 Alpha virt. eigenvalues --    0.17983   0.21230   0.22751   0.27146   0.28076
 Alpha virt. eigenvalues --    0.28703   0.29650   0.30809   0.32211   0.32360

 Mulliken charges:
               1
     1  C   -0.172638
     2  C   -0.216117
     3  C   -0.152761
     4  C    0.157382
     5  C   -0.172087
     6  C   -0.220132
     7  H    0.218891
     8  H    0.222616
     9  H    0.281390
    10  H    0.270669
    11  H    0.216820
    12  N    0.489665
    13  O   -0.467376
    14  O   -0.458913
    15  C   -0.170359
    16  C   -0.218549
    17  C   -0.170108
    18  C    0.158639
    19  C   -0.170807
    20  C   -0.218488
    21  H    0.226449
    22  H    0.224920
    23  H    0.277999
    24  H    0.272913
    25  H    0.223458
    26  N    0.490400
    27  O   -0.471381
    28  O   -0.452496
 Sum of Mulliken charges =  -0.00000

 Dipole moment (field-independent basis, Debye):
    X=              5.8858    Y=              5.1348    Z=              1.3723  Tot=              7.9304
 Quadrupole moment (field-independent basis, Debye-Ang):
   XX=            -74.1452   YY=           -105.2893   ZZ=           -101.1042
   XY=            -16.2907   XZ=             -4.6395   YZ=             -4.4059

 Normal termination of Gaussian 16 at Thu May  6 21:14:39 2021.
