 Gaussian 16, Revision A.03,
 Gaussian 16:  EM64L-G16RevA.03 25-Dec-2016

 -------------
 #p 6-31g* mp2
 -------------

 ------------------------------------------------------
 Input file generated by CHIRIPA (05-May-2021 14:55:21)
 ------------------------------------------------------
 Symbolic Z-matrix:
 Charge =  0 Multiplicity = 1

                         Standard orientation:
 ---------------------------------------------------------------------
 Center     Atomic      Atomic             Coordinates (Angstroms)
 Number     Number       Type             X           Y           Z
 ---------------------------------------------------------------------
      1          6           0       -1.161649   -1.738710    1.364040
      2          6           0       -2.491753   -2.050365    1.063678
      3          6           0       -3.307232   -1.123847    0.407092
      4          6           0       -2.757522    0.110393    0.063927
      5          6           0       -1.436119    0.450487    0.349440
      6          6           0       -0.638999   -0.491478    1.006592
      7          1           0       -0.535296   -2.464452    1.874312
      8          1           0       -2.900330   -3.018204    1.340078
      9          1           0       -4.340316   -1.339014    0.162434
     10          1           0       -1.057071    1.423472    0.061272
     11          1           0        0.393625   -0.246707    1.238586
     12          7           0       -3.611116    1.099432   -0.631472
     13          8           0       -3.102977    2.179880   -0.923129
     14          8           0       -4.772138    0.775466   -0.871700
     15          6           0        3.665499    0.591055    0.229009
     16          6           0        3.198755    2.016505   -0.068016
     17          6           0        3.839594    3.052903    0.855564
     18          1           0        3.432966    0.346239    1.274446
     19          1           0        4.759024    0.543149    0.132553
     20          1           0        2.106300    2.061381    0.027619
     21          1           0        3.432253    2.257887   -1.112922
     22          1           0        4.929608    3.037367    0.754432
     23          1           0        3.596123    2.839744    1.901454
     24          1           0        3.491945    4.064927    0.625764
     25          6           0        3.033612   -0.456366   -0.686064
     26          6           0        3.500356   -1.881816   -0.389038
     27          6           0        2.859517   -2.918214   -1.312618
     28          1           0        1.940087   -0.408460   -0.589608
     29          1           0        3.266145   -0.211550   -1.731501
     30          1           0        3.266857   -2.123198    0.655868
     31          1           0        4.592809   -1.926692   -0.484674
     32          1           0        3.102988   -2.705055   -2.358508
     33          1           0        1.769502   -2.902679   -1.211486
     34          1           0        3.207165   -3.930238   -1.082818
 ---------------------------------------------------------------------

 SCF Done:  E(RHF) =  -669.535341776     A.U. after   15 cycles
 E2 =    -0.2092467244D+01 EUMP2 =    -0.67162780902006D+03

 The electronic state is 1-A.
 Alpha  occ. eigenvalues --  -20.60791 -20.60785 -15.85845 -11.31235 -11.27813
 Alpha  occ. eigenvalues --  -11.27808 -11.27558 -11.26824 -11.26807 -11.22366
 Alpha  occ. eigenvalues --  -11.22329 -11.22183 -11.22100 -11.21701 -11.21608
 Alpha  occ. eigenvalues --   -1.59865  -1.39418  -1.19415  -1.09199  -1.08801
 Alpha  occ. eigenvalues --   -1.04822  -1.04219  -0.96652  -0.95632  -0.87662
 Alpha  occ. eigenvalues --   -0.86217  -0.82469  -0.80283  -0.79006  -0.77506
 Alpha  occ. eigenvalues --   -0.72063  -0.71188  -0.70516  -0.65995  -0.65065
 Alpha  occ. eigenvalues --   -0.64732  -0.62148  -0.61630  -0.60010  -0.58255
 Alpha  occ. eigenvalues --   -0.55971  -0.55302  -0.53320  -0.53166  -0.53074
 Alpha  occ. eigenvalues --   -0.52865  -0.50594  -0.48825  -0.48816  -0.48585
 Alpha  occ. eigenvalues --   -0.47342  -0.46514  -0.46481  -0.44818  -0.44485
 Alpha  occ. eigenvalues --   -0.37387  -0.36398
 Alpha virt. eigenvalues --    0.05011   0.11138   0.16384   0.18364   0.23069
 Alpha virt. eigenvalues --    0.23143   0.25124   0.25790   0.26974   0.28323
 Alpha virt. eigenvalues --    0.29399   0.30783   0.31214   0.31393   0.32426

 Mulliken charges:
               1
     1  C   -0.172956
     2  C   -0.218516
     3  C   -0.170416
     4  C    0.159039
     5  C   -0.173413
     6  C   -0.220588
     7  H    0.226356
     8  H    0.223821
     9  H    0.275928
    10  H    0.276856
    11  H    0.228969
    12  N    0.488091
    13  O   -0.460090
    14  O   -0.460320
    15  C   -0.300506
    16  C   -0.299299
    17  C   -0.476164
    18  H    0.143896
    19  H    0.154150
    20  H    0.144382
    21  H    0.157386
    22  H    0.157426
    23  H    0.154107
    24  H    0.164459
    25  C   -0.305219
    26  C   -0.298990
    27  C   -0.477047
    28  H    0.147916
    29  H    0.155286
    30  H    0.144976
    31  H    0.155510
    32  H    0.158975
    33  H    0.155094
    34  H    0.160900
 Sum of Mulliken charges =  -0.00000

 Dipole moment (field-independent basis, Debye):
    X=              3.1087    Y=             -3.4479    Z=              2.3565  Tot=              5.2062
 Quadrupole moment (field-independent basis, Debye-Ang):
   XX=           -107.5177   YY=            -94.2766   ZZ=            -95.0837
   XY=             12.9204   XZ=             -7.8105   YZ=             -0.6467

 Normal termination of Gaussian 16 at Thu May  6 10:53:33 2021.
