 Gaussian 16, Revision A.03,
 Gaussian 16:  EM64L-G16RevA.03 25-Dec-2016

 -------------
 #p 6-31g* mp2
 -------------

 ------------------------------------------------------
 Input file generated by CHIRIPA (05-May-2021 14:57:25)
 ------------------------------------------------------
 Symbolic Z-matrix:
 Charge =  0 Multiplicity = 1

                         Standard orientation:
 ---------------------------------------------------------------------
 Center     Atomic      Atomic             Coordinates (Angstroms)
 Number     Number       Type             X           Y           Z
 ---------------------------------------------------------------------
      1          6           0       -3.191372   -2.383538   -0.178841
      2          6           0       -4.217034   -1.872151    0.623045
      3          6           0       -4.405155   -0.491814    0.740639
      4          6           0       -3.545352    0.352046    0.039261
      5          6           0       -2.514380   -0.126903   -0.767580
      6          6           0       -2.344811   -1.510821   -0.870375
      7          1           0       -3.052440   -3.457208   -0.264442
      8          1           0       -4.875997   -2.547542    1.161245
      9          1           0       -5.191177   -0.068951    1.354459
     10          1           0       -1.873430    0.571358   -1.292015
     11          1           0       -1.547428   -1.905144   -1.493861
     12          7           0       -3.734688    1.815242    0.155919
     13          8           0       -2.963745    2.537578   -0.472185
     14          8           0       -4.650447    2.212053    0.873250
     15          6           0        5.655274    1.138868    0.448578
     16          6           0        5.484317   -0.162608    0.931750
     17          6           0        4.302143   -0.864543    0.678175
     18          6           0        3.307151   -0.231716   -0.065339
     19          6           0        3.447609    1.063865   -0.560344
     20          6           0        4.638168    1.746879   -0.294616
     21          1           0        6.576872    1.676798    0.650282
     22          1           0        6.272514   -0.637299    1.509208
     23          1           0        4.143435   -1.873083    1.040222
     24          1           0        2.643985    1.510699   -1.133011
     25          1           0        4.768172    2.757520   -0.671113
     26          7           0        2.051199   -0.964807   -0.340221
     27          8           0        1.189730   -0.385029   -0.997766
     28          8           0        1.952032   -2.105301    0.107078
 ---------------------------------------------------------------------

 SCF Done:  E(RHF) =  -868.340954383     A.U. after   16 cycles
 E2 =    -0.2598739072D+01 EUMP2 =    -0.87093969345522D+03

 The electronic state is 1-A.
 Alpha  occ. eigenvalues --  -20.61548 -20.61543 -20.59857 -20.59851 -15.86558
 Alpha  occ. eigenvalues --  -15.84895 -11.31591 -11.29947 -11.28133 -11.28098
 Alpha  occ. eigenvalues --  -11.27810 -11.27076 -11.27041 -11.26553 -11.26315
 Alpha  occ. eigenvalues --  -11.26154 -11.25552 -11.25203  -1.60597  -1.58937
 Alpha  occ. eigenvalues --   -1.40161  -1.38498  -1.19733  -1.18081  -1.09194
 Alpha  occ. eigenvalues --   -1.07546  -1.05085  -1.03398  -0.96085  -0.94431
 Alpha  occ. eigenvalues --   -0.86500  -0.84831  -0.82934  -0.81250  -0.78008
 Alpha  occ. eigenvalues --   -0.76331  -0.72809  -0.71881  -0.71126  -0.70840
 Alpha  occ. eigenvalues --   -0.70254  -0.69201  -0.65393  -0.65087  -0.63719
 Alpha  occ. eigenvalues --   -0.63383  -0.62433  -0.60732  -0.55606  -0.53962
 Alpha  occ. eigenvalues --   -0.53432  -0.53173  -0.51803  -0.51477  -0.49553
 Alpha  occ. eigenvalues --   -0.49519  -0.47891  -0.47850  -0.45632  -0.43972
 Alpha  occ. eigenvalues --   -0.37697  -0.36671  -0.36085  -0.34970
 Alpha virt. eigenvalues --    0.04497   0.06148   0.10988   0.12650   0.16059
 Alpha virt. eigenvalues --    0.17718   0.21137   0.22804   0.27092   0.27900
 Alpha virt. eigenvalues --    0.28880   0.29530   0.30788   0.32255   0.32350

 Mulliken charges:
               1
     1  C   -0.172222
     2  C   -0.219357
     3  C   -0.174000
     4  C    0.156011
     5  C   -0.169732
     6  C   -0.213726
     7  H    0.223341
     8  H    0.218156
     9  H    0.270432
    10  H    0.279697
    11  H    0.238137
    12  N    0.488284
    13  O   -0.463408
    14  O   -0.465026
    15  C   -0.169629
    16  C   -0.218679
    17  C   -0.170407
    18  C    0.157538
    19  C   -0.169639
    20  C   -0.218544
    21  H    0.227521
    22  H    0.224547
    23  H    0.275129
    24  H    0.277586
    25  H    0.226419
    26  N    0.491626
    27  O   -0.469332
    28  O   -0.460723
 Sum of Mulliken charges =  -0.00000

 Dipole moment (field-independent basis, Debye):
    X=              5.6918    Y=             -2.6169    Z=              0.4412  Tot=              6.2800
 Quadrupole moment (field-independent basis, Debye-Ang):
   XX=            -78.4359   YY=           -107.4097   ZZ=           -102.9813
   XY=             25.8558   XZ=              3.3054   YZ=             -3.5193

 Normal termination of Gaussian 16 at Thu May  6 11:25:05 2021.
