 Gaussian 16, Revision A.03,
 Gaussian 16:  EM64L-G16RevA.03 25-Dec-2016

 -------------
 #p 6-31g* mp2
 -------------

 ------------------------------------------------------
 Input file generated by CHIRIPA (05-May-2021 14:51:12)
 ------------------------------------------------------
 Symbolic Z-matrix:
 Charge =  0 Multiplicity = 1

                         Standard orientation:
 ---------------------------------------------------------------------
 Center     Atomic      Atomic             Coordinates (Angstroms)
 Number     Number       Type             X           Y           Z
 ---------------------------------------------------------------------
      1          6           0       -4.032750    0.478210   -0.349316
      2          6           0       -4.655411   -0.834500    0.127204
      3          6           0       -5.944515   -1.182090   -0.617904
      4          1           0       -4.761890    1.290035   -0.221881
      5          1           0       -3.827382    0.408768   -1.426533
      6          1           0       -4.858269   -0.763106    1.203479
      7          1           0       -3.924636   -1.643263   -0.001201
      8          1           0       -5.754322   -1.280498   -1.691563
      9          1           0       -6.693260   -0.395340   -0.480039
     10          1           0       -6.372696   -2.124147   -0.261466
     11          6           0       -2.743390    0.839257    0.386159
     12          6           0       -2.120730    2.151967   -0.090361
     13          6           0       -0.831626    2.499556    0.654748
     14          1           0       -2.948758    0.908699    1.463376
     15          1           0       -2.014250    0.027431    0.258725
     16          1           0       -2.851504    2.960729    0.038044
     17          1           0       -1.917871    2.080572   -1.166636
     18          1           0       -0.082880    1.712807    0.516882
     19          1           0       -1.021818    2.597964    1.728407
     20          1           0       -0.403444    3.441614    0.298309
     21          6           0        4.132677   -0.567271    0.125198
     22          6           0        4.750409    0.622475   -0.610260
     23          6           0        6.240520    0.792411   -0.312797
     24          1           0        4.279878   -0.438515    1.206262
     25          1           0        4.670553   -1.483059   -0.156611
     26          1           0        4.210639    1.535551   -0.328208
     27          1           0        4.601551    0.490966   -1.689687
     28          1           0        6.797291   -0.101894   -0.610836
     29          1           0        6.404158    0.948628    0.758380
     30          1           0        6.661806    1.648633   -0.848768
     31          6           0        2.643463   -0.750196   -0.162042
     32          6           0        2.025731   -1.939941    0.573416
     33          6           0        0.535620   -2.109877    0.275954
     34          1           0        2.105588    0.165593    0.119767
     35          1           0        2.496262   -0.878952   -1.243106
     36          1           0        2.174589   -1.808432    1.652844
     37          1           0        2.565502   -2.853018    0.291364
     38          1           0        0.371983   -2.266095   -0.795223
     39          1           0       -0.021151   -1.215574    0.573993
     40          1           0        0.114336   -2.966099    0.811924
 ---------------------------------------------------------------------

 SCF Done:  E(RHF) =  -470.733160901     A.U. after   11 cycles
 E2 =    -0.1583419830D+01 EUMP2 =    -0.47231658073184D+03

 The electronic state is 1-A.
 Alpha  occ. eigenvalues --  -11.21636 -11.21603 -11.21595 -11.21558 -11.21433
 Alpha  occ. eigenvalues --  -11.21370 -11.21365 -11.21303 -11.21110 -11.21103
 Alpha  occ. eigenvalues --  -11.21071 -11.21039  -1.08458  -1.08402  -1.03559
 Alpha  occ. eigenvalues --   -1.03509  -0.96015  -0.95959  -0.87043  -0.86968
 Alpha  occ. eigenvalues --   -0.79655  -0.79547  -0.78308  -0.78179  -0.65155
 Alpha  occ. eigenvalues --   -0.64979  -0.61036  -0.60832  -0.59388  -0.59317
 Alpha  occ. eigenvalues --   -0.57653  -0.57550  -0.55398  -0.55172  -0.52705
 Alpha  occ. eigenvalues --   -0.52663  -0.52520  -0.52312  -0.50062  -0.49807
 Alpha  occ. eigenvalues --   -0.48082  -0.47828  -0.46823  -0.46523  -0.45951
 Alpha  occ. eigenvalues --   -0.45764  -0.45713  -0.45304  -0.43808  -0.43763
 Alpha virt. eigenvalues --    0.20473   0.22966   0.23603   0.24864   0.25588
 Alpha virt. eigenvalues --    0.25915   0.27136   0.27181   0.28615   0.29258
 Alpha virt. eigenvalues --    0.30583   0.31468   0.31726   0.31819   0.31944

 Mulliken charges:
               1
     1  C   -0.297523
     2  C   -0.299984
     3  C   -0.475688
     4  H    0.149426
     5  H    0.149467
     6  H    0.151706
     7  H    0.152873
     8  H    0.155134
     9  H    0.155015
    10  H    0.160160
    11  C   -0.307470
    12  C   -0.298808
    13  C   -0.482213
    14  H    0.148952
    15  H    0.159106
    16  H    0.152000
    17  H    0.152124
    18  H    0.159578
    19  H    0.155171
    20  H    0.160586
    21  C   -0.298054
    22  C   -0.299847
    23  C   -0.475735
    24  H    0.149898
    25  H    0.149659
    26  H    0.152427
    27  H    0.151845
    28  H    0.155123
    29  H    0.155283
    30  H    0.160312
    31  C   -0.303941
    32  C   -0.298931
    33  C   -0.484222
    34  H    0.154366
    35  H    0.149565
    36  H    0.152308
    37  H    0.152151
    38  H    0.154686
    39  H    0.162626
    40  H    0.160870
 Sum of Mulliken charges =  -0.00000

 Dipole moment (field-independent basis, Debye):
    X=              0.0164    Y=             -0.0121    Z=              0.0020  Tot=              0.0204
 Quadrupole moment (field-independent basis, Debye-Ang):
   XX=            -86.5287   YY=            -84.3904   ZZ=            -83.8714
   XY=             -1.0257   XZ=             -1.0902   YZ=              0.6271

 Normal termination of Gaussian 16 at Thu May  6 05:30:12 2021.
