 Gaussian 16, Revision A.03,
 Gaussian 16:  EM64L-G16RevA.03 25-Dec-2016

 -------------
 #p 6-31g* mp2
 -------------

 ------------------------------------------------------
 Input file generated by CHIRIPA (05-May-2021 14:55:24)
 ------------------------------------------------------
 Symbolic Z-matrix:
 Charge =  0 Multiplicity = 1

                         Standard orientation:
 ---------------------------------------------------------------------
 Center     Atomic      Atomic             Coordinates (Angstroms)
 Number     Number       Type             X           Y           Z
 ---------------------------------------------------------------------
      1          6           0       -1.207244    1.743591    0.472007
      2          6           0       -2.136099    2.006400   -0.540258
      3          6           0       -3.252840    1.182713   -0.710484
      4          6           0       -3.410274    0.099994    0.153359
      5          6           0       -2.502419   -0.187954    1.171286
      6          6           0       -1.393041    0.649182    1.323048
      7          1           0       -0.342592    2.388674    0.597071
      8          1           0       -1.994367    2.855622   -1.202661
      9          1           0       -3.987446    1.363137   -1.485867
     10          1           0       -2.670681   -1.041973    1.816078
     11          1           0       -0.673306    0.442667    2.110054
     12          7           0       -4.588621   -0.779125   -0.017078
     13          8           0       -4.704545   -1.726693    0.757076
     14          8           0       -5.373972   -0.503965   -0.921592
     15          6           0        4.682897    0.070060    0.107778
     16          6           0        6.064597   -0.529981   -0.154600
     17          6           0        7.187215    0.248299    0.532279
     18          1           0        4.671763    1.113226   -0.236639
     19          1           0        4.502132    0.096689    1.191295
     20          1           0        6.242134   -0.556747   -1.237365
     21          1           0        6.072384   -1.571900    0.190308
     22          1           0        7.037480    0.264052    1.616683
     23          1           0        7.208195    1.284973    0.180898
     24          1           0        8.166217   -0.197877    0.331426
     25          6           0        3.550238   -0.696961   -0.572288
     26          6           0        2.168539   -0.096920   -0.309910
     27          6           0        1.045920   -0.875201   -0.996788
     28          1           0        3.731003   -0.723591   -1.655805
     29          1           0        3.561372   -1.740128   -0.227870
     30          1           0        2.160750    0.944998   -0.654817
     31          1           0        1.991000   -0.070155    0.772855
     32          1           0        1.024940   -1.911874   -0.645408
     33          1           0        1.195654   -0.890953   -2.081192
     34          1           0        0.066918   -0.429024   -0.795935
 ---------------------------------------------------------------------

 SCF Done:  E(RHF) =  -669.534123882     A.U. after   15 cycles
 E2 =    -0.2093527908D+01 EUMP2 =    -0.67162765179032D+03

 The electronic state is 1-A.
 Alpha  occ. eigenvalues --  -20.60805 -20.60800 -15.85860 -11.31262 -11.27836
 Alpha  occ. eigenvalues --  -11.27807 -11.27524 -11.26840 -11.26797 -11.22276
 Alpha  occ. eigenvalues --  -11.22014 -11.21913 -11.21854 -11.21449 -11.21239
 Alpha  occ. eigenvalues --   -1.59880  -1.39432  -1.19445  -1.08949  -1.08811
 Alpha  occ. eigenvalues --   -1.04843  -1.03982  -0.96396  -0.95643  -0.87407
 Alpha  occ. eigenvalues --   -0.86227  -0.82474  -0.80073  -0.78763  -0.77520
 Alpha  occ. eigenvalues --   -0.72076  -0.71203  -0.70519  -0.65570  -0.65078
 Alpha  occ. eigenvalues --   -0.64828  -0.62182  -0.61384  -0.59860  -0.58107
 Alpha  occ. eigenvalues --   -0.55678  -0.55310  -0.53789  -0.52939  -0.52915
 Alpha  occ. eigenvalues --   -0.52232  -0.50334  -0.48839  -0.48830  -0.48356
 Alpha  occ. eigenvalues --   -0.47125  -0.46290  -0.46228  -0.44831  -0.44224
 Alpha  occ. eigenvalues --   -0.37341  -0.36419
 Alpha virt. eigenvalues --    0.04989   0.11140   0.16426   0.20500   0.22581
 Alpha virt. eigenvalues --    0.24132   0.25515   0.26288   0.27477   0.27729
 Alpha virt. eigenvalues --    0.28691   0.29889   0.31456   0.31634   0.32092

 Mulliken charges:
               1
     1  C   -0.172418
     2  C   -0.217429
     3  C   -0.171116
     4  C    0.159315
     5  C   -0.170295
     6  C   -0.219305
     7  H    0.227923
     8  H    0.224018
     9  H    0.276103
    10  H    0.276016
    11  H    0.224785
    12  N    0.488139
    13  O   -0.460079
    14  O   -0.460185
    15  C   -0.298225
    16  C   -0.299988
    17  C   -0.475894
    18  H    0.148138
    19  H    0.147745
    20  H    0.153024
    21  H    0.153131
    22  H    0.154976
    23  H    0.154905
    24  H    0.161789
    25  C   -0.297833
    26  C   -0.299169
    27  C   -0.484463
    28  H    0.151801
    29  H    0.151817
    30  H    0.145583
    31  H    0.142894
    32  H    0.155167
    33  H    0.155118
    34  H    0.174011
 Sum of Mulliken charges =  -0.00000

 Dipole moment (field-independent basis, Debye):
    X=              4.1129    Y=              3.0853    Z=              0.5787  Tot=              5.1740
 Quadrupole moment (field-independent basis, Debye-Ang):
   XX=           -123.8750   YY=            -92.8874   ZZ=            -91.4600
   XY=            -11.7011   XZ=             -0.5931   YZ=             -2.6870

 Normal termination of Gaussian 16 at Thu May  6 11:03:53 2021.
