 Gaussian 16, Revision A.03,
 Gaussian 16:  EM64L-G16RevA.03 25-Dec-2016

 -------------
 #p 6-31g* mp2
 -------------

 ------------------------------------------------------
 Input file generated by CHIRIPA (05-May-2021 14:57:24)
 ------------------------------------------------------
 Symbolic Z-matrix:
 Charge =  0 Multiplicity = 1

                         Standard orientation:
 ---------------------------------------------------------------------
 Center     Atomic      Atomic             Coordinates (Angstroms)
 Number     Number       Type             X           Y           Z
 ---------------------------------------------------------------------
      1          6           0       -2.506327    1.871459    0.024488
      2          6           0       -3.775603    2.249611   -0.425467
      3          6           0       -4.812459    1.314302   -0.493838
      4          6           0       -4.543745    0.003559   -0.102641
      5          6           0       -3.289825   -0.403949    0.350030
      6          6           0       -2.267909    0.548219    0.410121
      7          1           0       -1.706675    2.604579    0.074385
      8          1           0       -3.963644    3.276551   -0.725600
      9          1           0       -5.804524    1.579924   -0.838323
     10          1           0       -3.132756   -1.435094    0.642414
     11          1           0       -1.283161    0.251698    0.759967
     12          7           0       -5.633510   -0.995535   -0.170639
     13          8           0       -5.371124   -2.144020    0.179750
     14          8           0       -6.729418   -0.611222   -0.573038
     15          6           0        2.053472   -0.432771    1.069572
     16          6           0        2.723182    0.790543    1.176869
     17          6           0        4.003773    0.948519    0.638649
     18          6           0        4.587526   -0.142646   -0.003129
     19          6           0        3.945921   -1.374104   -0.126196
     20          6           0        2.665898   -1.509292    0.419528
     21          1           0        1.058899   -0.546640    1.490590
     22          1           0        2.250008    1.628303    1.681159
     23          1           0        4.544869    1.884415    0.707453
     24          1           0        4.443356   -2.191096   -0.634624
     25          1           0        2.148164   -2.460501    0.334705
     26          7           0        5.942928    0.012535   -0.576890
     27          8           0        6.435475   -0.964089   -1.137463
     28          8           0        6.487082    1.107851   -0.455168
 ---------------------------------------------------------------------

 SCF Done:  E(RHF) =  -868.336501969     A.U. after   16 cycles
 E2 =    -0.2599604921D+01 EUMP2 =    -0.87093610689031D+03

 The electronic state is 1-A.
 Alpha  occ. eigenvalues --  -20.61306 -20.61296 -20.61296 -20.61289 -15.86364
 Alpha  occ. eigenvalues --  -15.86353 -11.31874 -11.31837 -11.28485 -11.28457
 Alpha  occ. eigenvalues --  -11.28416 -11.28392 -11.28348 -11.28222 -11.27592
 Alpha  occ. eigenvalues --  -11.27584 -11.27509 -11.27415  -1.60377  -1.60366
 Alpha  occ. eigenvalues --   -1.39928  -1.39915  -1.20068  -1.20034  -1.09465
 Alpha  occ. eigenvalues --   -1.09409  -1.05483  -1.05468  -0.96269  -0.96222
 Alpha  occ. eigenvalues --   -0.86892  -0.86864  -0.83106  -0.83044  -0.78098
 Alpha  occ. eigenvalues --   -0.78076  -0.72580  -0.72569  -0.71701  -0.71690
 Alpha  occ. eigenvalues --   -0.71267  -0.71142  -0.65733  -0.65695  -0.65569
 Alpha  occ. eigenvalues --   -0.65435  -0.62831  -0.62815  -0.56154  -0.55912
 Alpha  occ. eigenvalues --   -0.53825  -0.53770  -0.53585  -0.53548  -0.49353
 Alpha  occ. eigenvalues --   -0.49336  -0.49327  -0.49313  -0.45309  -0.45285
 Alpha  occ. eigenvalues --   -0.38101  -0.38011  -0.37072  -0.37066
 Alpha virt. eigenvalues --    0.04411   0.04473   0.10563   0.10585   0.15705
 Alpha virt. eigenvalues --    0.15936   0.18065   0.21904   0.24613   0.26442
 Alpha virt. eigenvalues --    0.27678   0.28728   0.29602   0.31563   0.31957

 Mulliken charges:
               1
     1  C   -0.171114
     2  C   -0.218128
     3  C   -0.169736
     4  C    0.159210
     5  C   -0.171451
     6  C   -0.219457
     7  H    0.225368
     8  H    0.225990
     9  H    0.277935
    10  H    0.274479
    11  H    0.215838
    12  N    0.488130
    13  O   -0.460216
    14  O   -0.458212
    15  C   -0.175441
    16  C   -0.219495
    17  C   -0.170262
    18  C    0.159778
    19  C   -0.169969
    20  C   -0.217662
    21  H    0.220950
    22  H    0.220788
    23  H    0.277166
    24  H    0.278500
    25  H    0.226218
    26  N    0.487869
    27  O   -0.457979
    28  O   -0.459098
 Sum of Mulliken charges =  -0.00000

 Dipole moment (field-independent basis, Debye):
    X=             -0.8940    Y=              2.9830    Z=              2.1362  Tot=              3.7763
 Quadrupole moment (field-independent basis, Debye-Ang):
   XX=           -180.7389   YY=            -97.6841   ZZ=           -105.4203
   XY=            -20.6770   XZ=              9.1719   YZ=             -0.3695

 Normal termination of Gaussian 16 at Thu May  6 05:05:17 2021.
