 Gaussian 16, Revision A.03,
 Gaussian 16:  EM64L-G16RevA.03 25-Dec-2016

 -------------
 #p 6-31g* mp2
 -------------

 ------------------------------------------------------
 Input file generated by CHIRIPA (05-May-2021 14:55:23)
 ------------------------------------------------------
 Symbolic Z-matrix:
 Charge =  0 Multiplicity = 1

                         Standard orientation:
 ---------------------------------------------------------------------
 Center     Atomic      Atomic             Coordinates (Angstroms)
 Number     Number       Type             X           Y           Z
 ---------------------------------------------------------------------
      1          6           0       -1.187897    1.820387    1.253062
      2          6           0       -0.883227    0.501356    1.604993
      3          6           0       -1.589240   -0.565222    1.040631
      4          6           0       -2.598250   -0.275172    0.123538
      5          6           0       -2.925276    1.028198   -0.247367
      6          6           0       -2.206154    2.079142    0.329633
      7          1           0       -0.634358    2.642858    1.696381
      8          1           0       -0.092945    0.297422    2.321868
      9          1           0       -1.374088   -1.595912    1.295201
     10          1           0       -3.718432    1.200064   -0.964850
     11          1           0       -2.444936    3.102518    0.054445
     12          7           0       -3.352613   -1.396035   -0.480617
     13          8           0       -4.237024   -1.113970   -1.286156
     14          8           0       -3.045188   -2.535410   -0.137174
     15          6           0        3.423836   -0.555943   -0.542644
     16          6           0        3.873763   -1.500056    0.572794
     17          6           0        4.385723   -2.839731    0.042732
     18          1           0        2.635538   -1.044169   -1.131852
     19          1           0        4.264764   -0.382789   -1.228394
     20          1           0        3.032635   -1.670281    1.257003
     21          1           0        4.660948   -1.009451    1.159532
     22          1           0        5.241169   -2.688836   -0.623634
     23          1           0        3.603604   -3.353421   -0.525610
     24          1           0        4.702088   -3.499174    0.856924
     25          6           0        2.909404    0.787471   -0.028517
     26          6           0        2.459477    1.731585   -1.143955
     27          6           0        1.947517    3.071259   -0.613893
     28          1           0        2.068477    0.614316    0.657233
     29          1           0        3.697703    1.275698    0.560690
     30          1           0        1.672292    1.240979   -1.730693
     31          1           0        3.300605    1.901809   -1.828164
     32          1           0        2.729636    3.584949   -0.045551
     33          1           0        1.092072    2.920365    0.052474
     34          1           0        1.631153    3.730702   -1.428085
 ---------------------------------------------------------------------

 SCF Done:  E(RHF) =  -669.534665241     A.U. after   15 cycles
 E2 =    -0.2093516972D+01 EUMP2 =    -0.67162818221349D+03

 The electronic state is 1-A.
 Alpha  occ. eigenvalues --  -20.60845 -20.60840 -15.85900 -11.31295 -11.27876
 Alpha  occ. eigenvalues --  -11.27864 -11.27605 -11.26890 -11.26872 -11.22077
 Alpha  occ. eigenvalues --  -11.22016 -11.21889 -11.21749 -11.21699 -11.21328
 Alpha  occ. eigenvalues --   -1.59920  -1.39473  -1.19481  -1.08924  -1.08830
 Alpha  occ. eigenvalues --   -1.04882  -1.03977  -0.96443  -0.95697  -0.87460
 Alpha  occ. eigenvalues --   -0.86276  -0.82528  -0.80053  -0.78707  -0.77560
 Alpha  occ. eigenvalues --   -0.72117  -0.71245  -0.70617  -0.65546  -0.65128
 Alpha  occ. eigenvalues --   -0.64850  -0.62223  -0.61387  -0.59805  -0.58064
 Alpha  occ. eigenvalues --   -0.55914  -0.55247  -0.53230  -0.53123  -0.52982
 Alpha  occ. eigenvalues --   -0.52820  -0.50366  -0.48877  -0.48870  -0.48363
 Alpha  occ. eigenvalues --   -0.47074  -0.46247  -0.46155  -0.44872  -0.44229
 Alpha  occ. eigenvalues --   -0.37378  -0.36465
 Alpha virt. eigenvalues --    0.04926   0.11038   0.16284   0.20281   0.22767
 Alpha virt. eigenvalues --    0.23918   0.25343   0.26531   0.26789   0.28486
 Alpha virt. eigenvalues --    0.28963   0.30588   0.31255   0.31631   0.31939

 Mulliken charges:
               1
     1  C   -0.170252
     2  C   -0.218069
     3  C   -0.172292
     4  C    0.158640
     5  C   -0.170543
     6  C   -0.218385
     7  H    0.227731
     8  H    0.224910
     9  H    0.276040
    10  H    0.276165
    11  H    0.224747
    12  N    0.488050
    13  O   -0.460038
    14  O   -0.460207
    15  C   -0.299191
    16  C   -0.298576
    17  C   -0.476314
    18  H    0.153080
    19  H    0.151335
    20  H    0.146244
    21  H    0.151757
    22  H    0.156348
    23  H    0.158081
    24  H    0.160933
    25  C   -0.301228
    26  C   -0.298310
    27  C   -0.479706
    28  H    0.145312
    29  H    0.148508
    30  H    0.156141
    31  H    0.154016
    32  H    0.154489
    33  H    0.149291
    34  H    0.161294
 Sum of Mulliken charges =  -0.00000

 Dipole moment (field-independent basis, Debye):
    X=              2.6248    Y=              3.8879    Z=              2.0519  Tot=              5.1201
 Quadrupole moment (field-independent basis, Debye-Ang):
   XX=           -106.7015   YY=            -96.1290   ZZ=            -93.4036
   XY=            -12.6763   XZ=             -3.7797   YZ=             -2.2849

 Normal termination of Gaussian 16 at Thu May  6 14:16:37 2021.
