 Gaussian 16, Revision A.03,
 Gaussian 16:  EM64L-G16RevA.03 25-Dec-2016

 -------------
 #p 6-31g* mp2
 -------------

 ------------------------------------------------------
 Input file generated by CHIRIPA (05-May-2021 14:57:26)
 ------------------------------------------------------
 Symbolic Z-matrix:
 Charge =  0 Multiplicity = 1

                         Standard orientation:
 ---------------------------------------------------------------------
 Center     Atomic      Atomic             Coordinates (Angstroms)
 Number     Number       Type             X           Y           Z
 ---------------------------------------------------------------------
      1          6           0       -0.302835    0.193510    1.848126
      2          6           0       -1.224994    1.230705    1.673861
      3          6           0       -2.376501    1.035329    0.905480
      4          6           0       -2.575150   -0.215562    0.323157
      5          6           0       -1.675006   -1.268643    0.478241
      6          6           0       -0.530383   -1.050660    1.250814
      7          1           0        0.589010    0.354064    2.446651
      8          1           0       -1.050873    2.197989    2.136558
      9          1           0       -3.106843    1.820909    0.754210
     10          1           0       -1.875928   -2.221874    0.004533
     11          1           0        0.184056   -1.857982    1.384436
     12          7           0       -3.790555   -0.434365   -0.492512
     13          8           0       -3.942475   -1.545692   -0.995014
     14          8           0       -4.568256    0.509609   -0.613887
     15          6           0        3.429684   -2.039273    0.117095
     16          6           0        3.771450   -0.892984    0.842173
     17          6           0        3.193261    0.341665    0.532514
     18          6           0        2.272858    0.394004   -0.513147
     19          6           0        1.911844   -0.730284   -1.254050
     20          6           0        2.502606   -1.954414   -0.926861
     21          1           0        3.883719   -2.994292    0.364455
     22          1           0        4.491130   -0.955908    1.653436
     23          1           0        3.439754    1.244780    1.077529
     24          1           0        1.191249   -0.636169   -2.057358
     25          1           0        2.235290   -2.842992   -1.491677
     26          7           0        1.654100    1.695503   -0.850248
     27          8           0        0.845910    1.715113   -1.776036
     28          8           0        1.989022    2.671365   -0.182297
 ---------------------------------------------------------------------

 SCF Done:  E(RHF) =  -868.336595576     A.U. after   16 cycles
 E2 =    -0.2605671922D+01 EUMP2 =    -0.87094226749837D+03

 The electronic state is 1-A.
 Alpha  occ. eigenvalues --  -20.61404 -20.61352 -20.60507 -20.60482 -15.86424
 Alpha  occ. eigenvalues --  -15.85547 -11.31896 -11.30905 -11.28577 -11.28445
 Alpha  occ. eigenvalues --  -11.28333 -11.27645 -11.27550 -11.27489 -11.27371
 Alpha  occ. eigenvalues --  -11.27156 -11.26513 -11.26406  -1.60441  -1.59568
 Alpha  occ. eigenvalues --   -1.39997  -1.39124  -1.20164  -1.19061  -1.09517
 Alpha  occ. eigenvalues --   -1.08474  -1.05585  -1.04456  -0.96318  -0.95313
 Alpha  occ. eigenvalues --   -0.86953  -0.85857  -0.83148  -0.82137  -0.78165
 Alpha  occ. eigenvalues --   -0.77181  -0.72655  -0.71791  -0.71771  -0.71243
 Alpha  occ. eigenvalues --   -0.70880  -0.70187  -0.65792  -0.65558  -0.64715
 Alpha  occ. eigenvalues --   -0.64467  -0.62900  -0.61814  -0.56059  -0.55005
 Alpha  occ. eigenvalues --   -0.54190  -0.53643  -0.52635  -0.52419  -0.49429
 Alpha  occ. eigenvalues --   -0.49397  -0.48534  -0.48516  -0.45381  -0.44534
 Alpha  occ. eigenvalues --   -0.38490  -0.37401  -0.36752  -0.35735
 Alpha virt. eigenvalues --    0.04190   0.05442   0.10347   0.11613   0.15746
 Alpha virt. eigenvalues --    0.16947   0.20585   0.21804   0.26372   0.27510
 Alpha virt. eigenvalues --    0.27641   0.28508   0.30296   0.31030   0.31963

 Mulliken charges:
               1
     1  C   -0.182197
     2  C   -0.214194
     3  C   -0.165706
     4  C    0.161776
     5  C   -0.177142
     6  C   -0.215583
     7  H    0.223539
     8  H    0.229598
     9  H    0.277746
    10  H    0.270585
    11  H    0.220974
    12  N    0.488332
    13  O   -0.464061
    14  O   -0.457965
    15  C   -0.175129
    16  C   -0.221391
    17  C   -0.180649
    18  C    0.165017
    19  C   -0.165638
    20  C   -0.224380
    21  H    0.228145
    22  H    0.225088
    23  H    0.274837
    24  H    0.280477
    25  H    0.227004
    26  N    0.490648
    27  O   -0.454389
    28  O   -0.465344
 Sum of Mulliken charges =  -0.00000

 Dipole moment (field-independent basis, Debye):
    X=              6.4262    Y=             -3.6181    Z=              3.8791  Tot=              8.3327
 Quadrupole moment (field-independent basis, Debye-Ang):
   XX=           -116.4587   YY=           -104.0004   ZZ=           -102.3875
   XY=            -13.4320   XZ=             -2.7807   YZ=              5.4622

 Normal termination of Gaussian 16 at Thu May  6 09:57:14 2021.
