 Gaussian 16, Revision A.03,
 Gaussian 16:  EM64L-G16RevA.03 25-Dec-2016

 -------------
 #p 6-31g* mp2
 -------------

 ------------------------------------------------------
 Input file generated by CHIRIPA (05-May-2021 14:55:23)
 ------------------------------------------------------
 Symbolic Z-matrix:
 Charge =  0 Multiplicity = 1

                         Standard orientation:
 ---------------------------------------------------------------------
 Center     Atomic      Atomic             Coordinates (Angstroms)
 Number     Number       Type             X           Y           Z
 ---------------------------------------------------------------------
      1          6           0       -2.959223    2.735352    0.466896
      2          6           0       -4.020751    2.175655   -0.251727
      3          6           0       -4.049666    0.804496   -0.523085
      4          6           0       -2.995816    0.018977   -0.058705
      5          6           0       -1.924271    0.546978    0.659833
      6          6           0       -1.916210    1.920664    0.919584
      7          1           0       -2.944862    3.801483    0.673185
      8          1           0       -4.832126    2.805932   -0.604527
      9          1           0       -4.859184    0.345045   -1.077164
     10          1           0       -1.129750   -0.106823    0.998505
     11          1           0       -1.090527    2.352591    1.477913
     12          7           0       -3.015388   -1.433945   -0.339836
     13          8           0       -2.074874   -2.104451    0.080273
     14          8           0       -3.970872   -1.874727   -0.974971
     15          6           0        4.478726   -0.086426   -0.305937
     16          6           0        4.734221    1.406546   -0.096785
     17          6           0        6.034742    1.880414   -0.746314
     18          1           0        5.323659   -0.657324    0.102851
     19          1           0        4.450099   -0.298968   -1.383620
     20          1           0        4.760979    1.616445    0.980175
     21          1           0        3.888492    1.973948   -0.505947
     22          1           0        6.014323    1.699667   -1.825905
     23          1           0        6.891768    1.340133   -0.331339
     24          1           0        6.197626    2.950530   -0.584514
     25          6           0        3.182305   -0.575171    0.337607
     26          6           0        2.926809   -2.068143    0.128455
     27          6           0        1.626288   -2.542011    0.777985
     28          1           0        3.210931   -0.362629    1.415289
     29          1           0        2.337371   -0.004273   -0.071181
     30          1           0        3.772538   -2.635545    0.537617
     31          1           0        2.900051   -2.278042   -0.948504
     32          1           0        0.769262   -2.001731    0.363009
     33          1           0        1.646707   -2.361265    1.857575
     34          1           0        1.463404   -3.612128    0.616185
 ---------------------------------------------------------------------

 SCF Done:  E(RHF) =  -669.535884298     A.U. after   15 cycles
 E2 =    -0.2091332191D+01 EUMP2 =    -0.67162721648951D+03

 The electronic state is 1-A.
 Alpha  occ. eigenvalues --  -20.60850 -20.60843 -15.85887 -11.31228 -11.27796
 Alpha  occ. eigenvalues --  -11.27783 -11.27536 -11.26810 -11.26796 -11.21725
 Alpha  occ. eigenvalues --  -11.21410 -11.21352 -11.21250 -11.21174 -11.20401
 Alpha  occ. eigenvalues --   -1.59917  -1.39472  -1.19400  -1.08801  -1.08372
 Alpha  occ. eigenvalues --   -1.04799  -1.03379  -0.95814  -0.95633  -0.86819
 Alpha  occ. eigenvalues --   -0.86199  -0.82472  -0.79457  -0.78202  -0.77514
 Alpha  occ. eigenvalues --   -0.72111  -0.71234  -0.70509  -0.65062  -0.65000
 Alpha  occ. eigenvalues --   -0.64799  -0.62152  -0.60765  -0.59211  -0.57426
 Alpha  occ. eigenvalues --   -0.55305  -0.55086  -0.53132  -0.52898  -0.52457
 Alpha  occ. eigenvalues --   -0.52234  -0.49777  -0.48865  -0.48853  -0.47746
 Alpha  occ. eigenvalues --   -0.46495  -0.45722  -0.45654  -0.44851  -0.43643
 Alpha  occ. eigenvalues --   -0.37383  -0.36402
 Alpha virt. eigenvalues --    0.04983   0.11235   0.16480   0.20818   0.22919
 Alpha virt. eigenvalues --    0.24027   0.25974   0.27000   0.27587   0.27812
 Alpha virt. eigenvalues --    0.29204   0.30564   0.31530   0.31827   0.32354

 Mulliken charges:
               1
     1  C   -0.170539
     2  C   -0.218708
     3  C   -0.170691
     4  C    0.156995
     5  C   -0.173357
     6  C   -0.220015
     7  H    0.225796
     8  H    0.223574
     9  H    0.275633
    10  H    0.281116
    11  H    0.224528
    12  N    0.490484
    13  O   -0.463024
    14  O   -0.459696
    15  C   -0.297793
    16  C   -0.299294
    17  C   -0.475561
    18  H    0.150650
    19  H    0.150828
    20  H    0.150316
    21  H    0.149257
    22  H    0.155940
    23  H    0.155985
    24  H    0.159124
    25  C   -0.297782
    26  C   -0.300248
    27  C   -0.483418
    28  H    0.146391
    29  H    0.143992
    30  H    0.150587
    31  H    0.153362
    32  H    0.170871
    33  H    0.148338
    34  H    0.166361
 Sum of Mulliken charges =  -0.00000

 Dipole moment (field-independent basis, Debye):
    X=             -0.0405    Y=              5.0273    Z=              0.9387  Tot=              5.1144
 Quadrupole moment (field-independent basis, Debye-Ang):
   XX=            -92.3208   YY=            -95.0170   ZZ=            -93.9180
   XY=            -16.7207   XZ=              0.1318   YZ=             -0.4314

 Normal termination of Gaussian 16 at Thu May  6 03:08:03 2021.
