 Gaussian 16, Revision A.03,
 Gaussian 16:  EM64L-G16RevA.03 25-Dec-2016

 -------------
 #p 6-31g* mp2
 -------------

 ------------------------------------------------------
 Input file generated by CHIRIPA (05-May-2021 14:57:27)
 ------------------------------------------------------
 Symbolic Z-matrix:
 Charge =  0 Multiplicity = 1

                         Standard orientation:
 ---------------------------------------------------------------------
 Center     Atomic      Atomic             Coordinates (Angstroms)
 Number     Number       Type             X           Y           Z
 ---------------------------------------------------------------------
      1          6           0       -1.647676    1.967225    1.516150
      2          6           0       -1.431831    0.669454    1.991253
      3          6           0       -2.016180   -0.427404    1.350951
      4          6           0       -2.814273   -0.188984    0.233144
      5          6           0       -3.048252    1.092085   -0.264257
      6          6           0       -2.453776    2.174034    0.391893
      7          1           0       -1.189806    2.813500    2.019708
      8          1           0       -0.806269    0.505850    2.864151
      9          1           0       -1.865780   -1.442624    1.697544
     10          1           0       -3.676758    1.223625   -1.136664
     11          1           0       -2.623155    3.180796    0.020698
     12          7           0       -3.438258   -1.342286   -0.453104
     13          8           0       -4.137229   -1.105602   -1.435986
     14          8           0       -3.216550   -2.461091    0.004890
     15          6           0        0.811747    1.344541   -1.319068
     16          6           0        2.056880    1.944749   -1.104790
     17          6           0        3.116584    1.208799   -0.566315
     18          6           0        2.895088   -0.131186   -0.252197
     19          6           0        1.666180   -0.757574   -0.453971
     20          6           0        0.620707   -0.002331   -0.993548
     21          1           0       -0.005928    1.923737   -1.737796
     22          1           0        2.208126    2.990568   -1.356649
     23          1           0        4.090802    1.648414   -0.390090
     24          1           0        1.545777   -1.801985   -0.192960
     25          1           0       -0.345201   -0.471086   -1.158875
     26          7           0        4.009416   -0.920516    0.318445
     27          8           0        3.788641   -2.099450    0.586787
     28          8           0        5.082500   -0.345310    0.486568
 ---------------------------------------------------------------------

 SCF Done:  E(RHF) =  -868.335703553     A.U. after   16 cycles
 E2 =    -0.2604925520D+01 EUMP2 =    -0.87094062907250D+03

 The electronic state is 1-A.
 Alpha  occ. eigenvalues --  -20.61716 -20.61705 -20.60939 -20.60930 -15.86768
 Alpha  occ. eigenvalues --  -15.85989 -11.32169 -11.31341 -11.28807 -11.28679
 Alpha  occ. eigenvalues --  -11.28424 -11.27916 -11.27839 -11.27808 -11.27633
 Alpha  occ. eigenvalues --  -11.27588 -11.26955 -11.26785  -1.60804  -1.60016
 Alpha  occ. eigenvalues --   -1.40347  -1.39569  -1.20393  -1.19499  -1.09740
 Alpha  occ. eigenvalues --   -1.08899  -1.05763  -1.04899  -0.96557  -0.95737
 Alpha  occ. eigenvalues --   -0.87142  -0.86306  -0.83370  -0.82571  -0.78428
 Alpha  occ. eigenvalues --   -0.77634  -0.72959  -0.72225  -0.72162  -0.71408
 Alpha  occ. eigenvalues --   -0.71346  -0.70611  -0.65988  -0.65717  -0.65146
 Alpha  occ. eigenvalues --   -0.64945  -0.63079  -0.62284  -0.56194  -0.55410
 Alpha  occ. eigenvalues --   -0.54526  -0.53807  -0.53116  -0.52656  -0.49732
 Alpha  occ. eigenvalues --   -0.49725  -0.48962  -0.48962  -0.45723  -0.44977
 Alpha  occ. eigenvalues --   -0.38467  -0.37623  -0.37285  -0.36221
 Alpha virt. eigenvalues --    0.03945   0.04976   0.10223   0.11142   0.15481
 Alpha virt. eigenvalues --    0.16450   0.20437   0.21319   0.26150   0.26857
 Alpha virt. eigenvalues --    0.27498   0.28338   0.29942   0.31115   0.31619

 Mulliken charges:
               1
     1  C   -0.166590
     2  C   -0.210825
     3  C   -0.174066
     4  C    0.148486
     5  C   -0.178714
     6  C   -0.223055
     7  H    0.229471
     8  H    0.230142
     9  H    0.279148
    10  H    0.277258
    11  H    0.224460
    12  N    0.487590
    13  O   -0.458624
    14  O   -0.457281
    15  C   -0.170221
    16  C   -0.221718
    17  C   -0.172863
    18  C    0.157721
    19  C   -0.177067
    20  C   -0.212447
    21  H    0.222059
    22  H    0.220751
    23  H    0.274682
    24  H    0.277253
    25  H    0.227448
    26  N    0.487726
    27  O   -0.459685
    28  O   -0.461038
 Sum of Mulliken charges =  -0.00000

 Dipole moment (field-independent basis, Debye):
    X=             -1.8992    Y=              6.8181    Z=              0.6351  Tot=              7.1061
 Quadrupole moment (field-independent basis, Debye-Ang):
   XX=           -138.7493   YY=           -102.4643   ZZ=           -101.3320
   XY=             -2.1846   XZ=             -9.9489   YZ=             -2.2634

 Normal termination of Gaussian 16 at Thu May  6 13:12:46 2021.
