 Gaussian 16, Revision A.03,
 Gaussian 16:  EM64L-G16RevA.03 25-Dec-2016

 -------------
 #p 6-31g* mp2
 -------------

 ------------------------------------------------------
 Input file generated by CHIRIPA (05-May-2021 14:55:22)
 ------------------------------------------------------
 Symbolic Z-matrix:
 Charge =  0 Multiplicity = 1

                         Standard orientation:
 ---------------------------------------------------------------------
 Center     Atomic      Atomic             Coordinates (Angstroms)
 Number     Number       Type             X           Y           Z
 ---------------------------------------------------------------------
      1          6           0       -0.937597    2.330002   -0.165819
      2          6           0       -2.240972    2.621597    0.249763
      3          6           0       -3.210723    1.616001    0.303686
      4          6           0       -2.840863    0.323998   -0.066750
      5          6           0       -1.550668    0.002011   -0.485091
      6          6           0       -0.597205    1.023443   -0.531275
      7          1           0       -0.190598    3.117324   -0.204701
      8          1           0       -2.508166    3.635385    0.534165
      9          1           0       -4.227154    1.813981    0.621632
     10          1           0       -1.314252   -1.018090   -0.762436
     11          1           0        0.414237    0.794077   -0.854417
     12          7           0       -3.858873   -0.748964   -0.013760
     13          8           0       -3.507752   -1.879194   -0.345317
     14          8           0       -4.988635   -0.439405    0.358326
     15          6           0        2.875528   -1.001652    0.490669
     16          6           0        1.999183   -1.906406   -0.376178
     17          6           0        0.911468   -2.620886    0.426436
     18          1           0        3.339001   -1.602649    1.284987
     19          1           0        2.240117   -0.258213    0.991614
     20          1           0        2.636229   -2.647047   -0.876418
     21          1           0        1.537893   -1.303222   -1.168640
     22          1           0        0.252128   -1.894882    0.913048
     23          1           0        1.356704   -3.246342    1.206929
     24          1           0        0.296772   -3.262291   -0.212789
     25          6           0        3.967564   -0.280485   -0.297433
     26          6           0        4.843910    0.624269    0.569415
     27          6           0        5.931624    1.338748   -0.233200
     28          1           0        4.602975   -1.023925   -0.798378
     29          1           0        3.504091    0.320511   -1.091750
     30          1           0        5.305200    0.021084    1.361877
     31          1           0        4.206864    1.364909    1.069655
     32          1           0        5.486389    1.964205   -1.013692
     33          1           0        6.590964    0.612744   -0.719811
     34          1           0        6.546320    1.980153    0.406025
 ---------------------------------------------------------------------

 SCF Done:  E(RHF) =  -669.534386242     A.U. after   15 cycles
 E2 =    -0.2093676337D+01 EUMP2 =    -0.67162806257879D+03

 The electronic state is 1-A.
 Alpha  occ. eigenvalues --  -20.60746 -20.60740 -15.85799 -11.31165 -11.27755
 Alpha  occ. eigenvalues --  -11.27689 -11.27498 -11.26765 -11.26725 -11.22440
 Alpha  occ. eigenvalues --  -11.22297 -11.22193 -11.22128 -11.21680 -11.21549
 Alpha  occ. eigenvalues --   -1.59821  -1.39374  -1.19352  -1.09213  -1.08742
 Alpha  occ. eigenvalues --   -1.04785  -1.04216  -0.96662  -0.95573  -0.87673
 Alpha  occ. eigenvalues --   -0.86144  -0.82415  -0.80299  -0.79013  -0.77469
 Alpha  occ. eigenvalues --   -0.72019  -0.71145  -0.70477  -0.65991  -0.64999
 Alpha  occ. eigenvalues --   -0.64723  -0.62439  -0.61266  -0.60004  -0.58261
 Alpha  occ. eigenvalues --   -0.55980  -0.55228  -0.53310  -0.53135  -0.53002
 Alpha  occ. eigenvalues --   -0.52883  -0.50528  -0.48779  -0.48770  -0.48584
 Alpha  occ. eigenvalues --   -0.47363  -0.46543  -0.46487  -0.44777  -0.44485
 Alpha  occ. eigenvalues --   -0.37336  -0.36324
 Alpha virt. eigenvalues --    0.05046   0.11211   0.16447   0.18951   0.22757
 Alpha virt. eigenvalues --    0.23777   0.25070   0.26300   0.26561   0.28674
 Alpha virt. eigenvalues --    0.29626   0.30471   0.31071   0.31287   0.31988

 Mulliken charges:
               1
     1  C   -0.171563
     2  C   -0.218643
     3  C   -0.170571
     4  C    0.157531
     5  C   -0.176142
     6  C   -0.226048
     7  H    0.225652
     8  H    0.223380
     9  H    0.275612
    10  H    0.284291
    11  H    0.230985
    12  N    0.488166
    13  O   -0.460278
    14  O   -0.460617
    15  C   -0.302335
    16  C   -0.304091
    17  C   -0.486328
    18  H    0.155519
    19  H    0.148508
    20  H    0.158584
    21  H    0.140543
    22  H    0.158472
    23  H    0.161457
    24  H    0.167963
    25  C   -0.298877
    26  C   -0.299629
    27  C   -0.475901
    28  H    0.153702
    29  H    0.142776
    30  H    0.155190
    31  H    0.149538
    32  H    0.153572
    33  H    0.157426
    34  H    0.162156
 Sum of Mulliken charges =  -0.00000

 Dipole moment (field-independent basis, Debye):
    X=              3.7104    Y=              3.6356    Z=             -0.0992  Tot=              5.1956
 Quadrupole moment (field-independent basis, Debye-Ang):
   XX=           -112.8086   YY=            -89.6994   ZZ=            -95.2036
   XY=            -13.4670   XZ=             -0.2934   YZ=              0.9470

 Normal termination of Gaussian 16 at Wed May  5 17:30:35 2021.
