 Gaussian 16, Revision A.03,
 Gaussian 16:  EM64L-G16RevA.03 25-Dec-2016

 -------------
 #p 6-31g* mp2
 -------------

 ------------------------------------------------------
 Input file generated by CHIRIPA (05-May-2021 14:53:12)
 ------------------------------------------------------
 Symbolic Z-matrix:
 Charge =  0 Multiplicity = 1

                         Standard orientation:
 ---------------------------------------------------------------------
 Center     Atomic      Atomic             Coordinates (Angstroms)
 Number     Number       Type             X           Y           Z
 ---------------------------------------------------------------------
      1          6           0        4.023979    0.466510   -0.515572
      2          6           0        2.886881    1.207998    0.188124
      3          6           0        2.024586    2.021273   -0.777704
      4          1           0        4.652900    1.193152   -1.047921
      5          1           0        3.600335   -0.199454   -1.280041
      6          1           0        3.312459    1.871337    0.951983
      7          1           0        2.260705    0.479525    0.719017
      8          1           0        1.572943    1.369852   -1.532866
      9          1           0        2.630674    2.769571   -1.298577
     10          1           0        1.217873    2.543153   -0.253571
     11          6           0        4.894873   -0.351006    0.436762
     12          6           0        6.031971   -1.092493   -0.266934
     13          6           0        6.894266   -1.905769    0.698894
     14          1           0        5.318517    0.314958    1.201232
     15          1           0        4.265952   -1.077648    0.969111
     16          1           0        6.658148   -0.364021   -0.797827
     17          1           0        5.606393   -1.755833   -1.030792
     18          1           0        6.288178   -2.654067    1.219767
     19          1           0        7.345909   -1.254348    1.454057
     20          1           0        7.700979   -2.427649    0.174761
     21          6           0       -1.831980    1.854676    0.197441
     22          6           0       -2.730379    1.614556    1.242305
     23          6           0       -3.650059    0.564752    1.160775
     24          6           0       -3.643630   -0.228784    0.014674
     25          6           0       -2.761167   -0.014850   -1.043051
     26          6           0       -1.850208    1.040641   -0.939898
     27          1           0       -1.120938    2.672398    0.269173
     28          1           0       -2.718497    2.245127    2.126773
     29          1           0       -4.356718    0.356533    1.954938
     30          1           0       -2.796977   -0.660496   -1.912118
     31          1           0       -1.153667    1.224781   -1.752897
     32          7           0       -4.612638   -1.343175   -0.083084
     33          8           0       -4.586742   -2.027877   -1.103452
     34          8           0       -5.379695   -1.510832    0.862512
 ---------------------------------------------------------------------

 SCF Done:  E(RHF) =  -669.535171357     A.U. after   15 cycles
 E2 =    -0.2091435454D+01 EUMP2 =    -0.67162660681074D+03

 The electronic state is 1-A.
 Alpha  occ. eigenvalues --  -20.60739 -20.60734 -15.85792 -11.31149 -11.27716
 Alpha  occ. eigenvalues --  -11.27707 -11.27433 -11.26728 -11.26695 -11.22431
 Alpha  occ. eigenvalues --  -11.22269 -11.22022 -11.21983 -11.21849 -11.21372
 Alpha  occ. eigenvalues --   -1.59815  -1.39368  -1.19317  -1.09033  -1.08712
 Alpha  occ. eigenvalues --   -1.04719  -1.04180  -0.96661  -0.95549  -0.87688
 Alpha  occ. eigenvalues --   -0.86109  -0.82385  -0.80254  -0.78798  -0.77432
 Alpha  occ. eigenvalues --   -0.72010  -0.71138  -0.70454  -0.65661  -0.64968
 Alpha  occ. eigenvalues --   -0.64727  -0.62090  -0.61544  -0.60091  -0.58259
 Alpha  occ. eigenvalues --   -0.55935  -0.55258  -0.53374  -0.53100  -0.52992
 Alpha  occ. eigenvalues --   -0.52786  -0.50574  -0.48773  -0.48765  -0.48555
 Alpha  occ. eigenvalues --   -0.47255  -0.46353  -0.46244  -0.44776  -0.44426
 Alpha  occ. eigenvalues --   -0.37284  -0.36321
 Alpha virt. eigenvalues --    0.05086   0.11287   0.16534   0.19957   0.22540
 Alpha virt. eigenvalues --    0.24006   0.25214   0.26084   0.26363   0.27360
 Alpha virt. eigenvalues --    0.28805   0.29599   0.31205   0.31626   0.32403

 Mulliken charges:
               1
     1  C   -0.299253
     2  C   -0.299885
     3  C   -0.478684
     4  H    0.150609
     5  H    0.150464
     6  H    0.153588
     7  H    0.155509
     8  H    0.153190
     9  H    0.159722
    10  H    0.150715
    11  C   -0.298983
    12  C   -0.300165
    13  C   -0.476104
    14  H    0.150049
    15  H    0.151302
    16  H    0.152224
    17  H    0.152842
    18  H    0.156231
    19  H    0.155419
    20  H    0.161567
    21  C   -0.172856
    22  C   -0.219077
    23  C   -0.171067
    24  C    0.158553
    25  C   -0.171778
    26  C   -0.220233
    27  H    0.228582
    28  H    0.223341
    29  H    0.275374
    30  H    0.275331
    31  H    0.226584
    32  N    0.488059
    33  O   -0.460616
    34  O   -0.460556
 Sum of Mulliken charges =  -0.00000

 Dipole moment (field-independent basis, Debye):
    X=              3.6200    Y=              3.8792    Z=              0.3633  Tot=              5.3183
 Quadrupole moment (field-independent basis, Debye-Ang):
   XX=           -119.1891   YY=            -96.8180   ZZ=            -91.1536
   XY=            -14.8087   XZ=             -3.4160   YZ=              1.7262

 Normal termination of Gaussian 16 at Thu May  6 08:49:16 2021.
