 Gaussian 16, Revision A.03,
 Gaussian 16:  EM64L-G16RevA.03 25-Dec-2016

 -------------
 #p 6-31g* mp2
 -------------

 ------------------------------------------------------
 Input file generated by CHIRIPA (05-May-2021 14:55:22)
 ------------------------------------------------------
 Symbolic Z-matrix:
 Charge =  0 Multiplicity = 1

                         Standard orientation:
 ---------------------------------------------------------------------
 Center     Atomic      Atomic             Coordinates (Angstroms)
 Number     Number       Type             X           Y           Z
 ---------------------------------------------------------------------
      1          6           0       -0.489580   -0.265335    2.404455
      2          6           0       -1.086291    0.898593    1.908746
      3          6           0       -1.873430    0.856555    0.754106
      4          6           0       -2.043536   -0.371895    0.117502
      5          6           0       -1.462217   -1.548818    0.586769
      6          6           0       -0.679113   -1.483179    1.743051
      7          1           0        0.120322   -0.223513    3.302045
      8          1           0       -0.940829    1.845781    2.420332
      9          1           0       -2.347031    1.742389    0.348619
     10          1           0       -1.625475   -2.478323    0.054993
     11          1           0       -0.216920   -2.388698    2.125748
     12          7           0       -2.874709   -0.428891   -1.105732
     13          8           0       -3.009162   -1.523567   -1.648175
     14          8           0       -3.375992    0.622191   -1.498899
     15          6           0        2.987885   -0.009647   -0.652034
     16          6           0        2.823317   -1.441009   -0.140072
     17          6           0        3.926258   -2.376664   -0.635919
     18          1           0        2.996652   -0.018654   -1.750573
     19          1           0        3.966856    0.375540   -0.334791
     20          1           0        1.844373   -1.822893   -0.457010
     21          1           0        2.814749   -1.428571    0.957374
     22          1           0        4.908649   -2.022216   -0.307476
     23          1           0        3.932759   -2.418778   -1.729896
     24          1           0        3.789120   -3.394629   -0.258029
     25          6           0        1.892880    0.937650   -0.164877
     26          6           0        2.057449    2.369013   -0.676839
     27          6           0        0.954507    3.304668   -0.180993
     28          1           0        0.913910    0.552463   -0.482120
     29          1           0        1.884114    0.946657    0.933661
     30          1           0        2.066016    2.356574   -1.774285
     31          1           0        3.036392    2.750896   -0.359902
     32          1           0        0.948006    3.346782    0.912984
     33          1           0       -0.027884    2.950220   -0.509435
     34          1           0        1.091646    4.322632   -0.558883
 ---------------------------------------------------------------------

 SCF Done:  E(RHF) =  -669.533145510     A.U. after   15 cycles
 E2 =    -0.2097092875D+01 EUMP2 =    -0.67163023838545D+03

 The electronic state is 1-A.
 Alpha  occ. eigenvalues --  -20.60842 -20.60837 -15.85895 -11.31262 -11.27822
 Alpha  occ. eigenvalues --  -11.27773 -11.27494 -11.26827 -11.26761 -11.21929
 Alpha  occ. eigenvalues --  -11.21840 -11.21589 -11.21491 -11.21457 -11.21363
 Alpha  occ. eigenvalues --   -1.59920  -1.39472  -1.19431  -1.08848  -1.08637
 Alpha  occ. eigenvalues --   -1.04831  -1.03824  -0.96283  -0.95653  -0.87309
 Alpha  occ. eigenvalues --   -0.86215  -0.82479  -0.79909  -0.78512  -0.77529
 Alpha  occ. eigenvalues --   -0.72109  -0.71248  -0.70526  -0.65332  -0.65067
 Alpha  occ. eigenvalues --   -0.64799  -0.62179  -0.61238  -0.59654  -0.57907
 Alpha  occ. eigenvalues --   -0.55581  -0.55312  -0.53469  -0.52914  -0.52883
 Alpha  occ. eigenvalues --   -0.52654  -0.50228  -0.48869  -0.48867  -0.48241
 Alpha  occ. eigenvalues --   -0.46943  -0.46047  -0.45750  -0.44874  -0.44047
 Alpha  occ. eigenvalues --   -0.37296  -0.36316
 Alpha virt. eigenvalues --    0.04932   0.11083   0.16330   0.20463   0.22930
 Alpha virt. eigenvalues --    0.23586   0.25749   0.26297   0.27263   0.28277
 Alpha virt. eigenvalues --    0.28644   0.29287   0.31266   0.31607   0.32171

 Mulliken charges:
               1
     1  C   -0.170905
     2  C   -0.210298
     3  C   -0.174224
     4  C    0.158774
     5  C   -0.174418
     6  C   -0.212481
     7  H    0.225159
     8  H    0.224571
     9  H    0.275778
    10  H    0.275775
    11  H    0.224355
    12  N    0.487802
    13  O   -0.460267
    14  O   -0.460430
    15  C   -0.298709
    16  C   -0.298760
    17  C   -0.475726
    18  H    0.152095
    19  H    0.148081
    20  H    0.152693
    21  H    0.143723
    22  H    0.155228
    23  H    0.158167
    24  H    0.157975
    25  C   -0.298649
    26  C   -0.299391
    27  C   -0.476546
    28  H    0.156931
    29  H    0.142879
    30  H    0.155472
    31  H    0.150838
    32  H    0.145357
    33  H    0.156611
    34  H    0.162540
 Sum of Mulliken charges =  -0.00000

 Dipole moment (field-independent basis, Debye):
    X=              2.8496    Y=              0.1826    Z=              4.2797  Tot=              5.1448
 Quadrupole moment (field-independent basis, Debye-Ang):
   XX=           -107.9085   YY=            -90.9389   ZZ=            -93.6704
   XY=             -1.7339   XZ=             -8.1495   YZ=             -1.3432

 Normal termination of Gaussian 16 at Wed May  5 20:40:50 2021.
