 Gaussian 16, Revision A.03,
 Gaussian 16:  EM64L-G16RevA.03 25-Dec-2016

 -------------
 #p 6-31g* mp2
 -------------

 ------------------------------------------------------
 Input file generated by CHIRIPA (05-May-2021 14:51:14)
 ------------------------------------------------------
 Symbolic Z-matrix:
 Charge =  0 Multiplicity = 1

                         Standard orientation:
 ---------------------------------------------------------------------
 Center     Atomic      Atomic             Coordinates (Angstroms)
 Number     Number       Type             X           Y           Z
 ---------------------------------------------------------------------
      1          6           0       -3.425959    0.643039    0.225482
      2          6           0       -2.125217    0.538184    1.022389
      3          6           0       -1.339644    1.849696    1.046972
      4          1           0       -3.194559    0.952834   -0.802830
      5          1           0       -4.049946    1.437227    0.658265
      6          1           0       -1.504467   -0.256505    0.589082
      7          1           0       -2.359725    0.228416    2.048872
      8          1           0       -1.937087    2.648201    1.498696
      9          1           0       -1.076969    2.160525    0.030612
     10          1           0       -0.413501    1.752210    1.621963
     11          6           0       -4.222463   -0.660099    0.191713
     12          6           0       -5.523205   -0.555244   -0.605194
     13          6           0       -6.308778   -1.866757   -0.629777
     14          1           0       -3.598476   -1.454287   -0.241070
     15          1           0       -4.453864   -0.969894    1.220025
     16          1           0       -5.288697   -0.245477   -1.631677
     17          1           0       -6.143955    0.239445   -0.171887
     18          1           0       -6.571453   -2.177585    0.386583
     19          1           0       -5.711336   -2.665261   -1.081501
     20          1           0       -7.234921   -1.769270   -1.204768
     21          6           0        3.424528    0.607155    0.047006
     22          6           0        3.000078    1.570846   -1.061654
     23          6           0        2.201323    2.763326   -0.534607
     24          1           0        2.530026    0.247228    0.573564
     25          1           0        4.024854    1.153140    0.787887
     26          1           0        2.401892    1.022896   -1.800937
     27          1           0        3.895682    1.928372   -1.585757
     28          1           0        2.793573    3.334922    0.187278
     29          1           0        1.291296    2.424300   -0.029125
     30          1           0        1.908115    3.439349   -1.343855
     31          6           0        4.223894   -0.590095   -0.464201
     32          6           0        4.648344   -1.553786    0.644458
     33          6           0        5.447100   -2.746266    0.117413
     34          1           0        3.623568   -1.136080   -1.205082
     35          1           0        5.118396   -0.230168   -0.990759
     36          1           0        3.752740   -1.911312    1.168562
     37          1           0        5.246530   -1.005835    1.383742
     38          1           0        6.357127   -2.407239   -0.388070
     39          1           0        4.854849   -3.317862   -0.604473
     40          1           0        5.740307   -3.422289    0.926660
 ---------------------------------------------------------------------

 SCF Done:  E(RHF) =  -470.732615399     A.U. after   11 cycles
 E2 =    -0.1582833838D+01 EUMP2 =    -0.47231544923729D+03

 The electronic state is 1-A.
 Alpha  occ. eigenvalues --  -11.21664 -11.21629 -11.21588 -11.21532 -11.21447
 Alpha  occ. eigenvalues --  -11.21387 -11.21379 -11.21319 -11.21124 -11.21094
 Alpha  occ. eigenvalues --  -11.21062 -11.20867  -1.08476  -1.08392  -1.03590
 Alpha  occ. eigenvalues --   -1.03468  -0.96065  -0.95897  -0.87113  -0.86889
 Alpha  occ. eigenvalues --   -0.79697  -0.79496  -0.78288  -0.78206  -0.65132
 Alpha  occ. eigenvalues --   -0.65008  -0.61106  -0.60788  -0.59439  -0.59268
 Alpha  occ. eigenvalues --   -0.57651  -0.57528  -0.55538  -0.55037  -0.52826
 Alpha  occ. eigenvalues --   -0.52620  -0.52447  -0.52264  -0.50178  -0.49638
 Alpha  occ. eigenvalues --   -0.47958  -0.47847  -0.46765  -0.46451  -0.45835
 Alpha  occ. eigenvalues --   -0.45764  -0.45720  -0.45650  -0.43798  -0.43736
 Alpha virt. eigenvalues --    0.21677   0.23126   0.23638   0.25095   0.26356
 Alpha virt. eigenvalues --    0.26696   0.27160   0.27219   0.27920   0.29197
 Alpha virt. eigenvalues --    0.30625   0.31147   0.31706   0.31817   0.32035

 Mulliken charges:
               1
     1  C   -0.298786
     2  C   -0.299665
     3  C   -0.481180
     4  H    0.150022
     5  H    0.149836
     6  H    0.151489
     7  H    0.152327
     8  H    0.156330
     9  H    0.158845
    10  H    0.162243
    11  C   -0.298337
    12  C   -0.299697
    13  C   -0.475730
    14  H    0.149450
    15  H    0.149771
    16  H    0.151999
    17  H    0.152038
    18  H    0.155230
    19  H    0.155179
    20  H    0.160370
    21  C   -0.298652
    22  C   -0.298777
    23  C   -0.485936
    24  H    0.149309
    25  H    0.149481
    26  H    0.150793
    27  H    0.151470
    28  H    0.154081
    29  H    0.168099
    30  H    0.158701
    31  C   -0.298179
    32  C   -0.299644
    33  C   -0.475671
    34  H    0.149249
    35  H    0.149723
    36  H    0.151836
    37  H    0.151919
    38  H    0.155182
    39  H    0.155079
    40  H    0.160202
 Sum of Mulliken charges =  -0.00000

 Dipole moment (field-independent basis, Debye):
    X=             -0.0670    Y=              0.0064    Z=              0.0266  Tot=              0.0724
 Quadrupole moment (field-independent basis, Debye-Ang):
   XX=            -84.6841   YY=            -86.0888   ZZ=            -84.1290
   XY=              0.1466   XZ=             -0.2182   YZ=              0.0805

 Normal termination of Gaussian 16 at Wed May  5 23:14:53 2021.
