 Gaussian 16, Revision A.03,
 Gaussian 16:  EM64L-G16RevA.03 25-Dec-2016

 -------------
 #p 6-31g* mp2
 -------------

 ------------------------------------------------------
 Input file generated by CHIRIPA (05-May-2021 14:53:13)
 ------------------------------------------------------
 Symbolic Z-matrix:
 Charge =  0 Multiplicity = 1

                         Standard orientation:
 ---------------------------------------------------------------------
 Center     Atomic      Atomic             Coordinates (Angstroms)
 Number     Number       Type             X           Y           Z
 ---------------------------------------------------------------------
      1          6           0        3.287328    1.101273   -0.359920
      2          6           0        2.082317    2.034834   -0.239937
      3          6           0        2.447730    3.503056   -0.460376
      4          1           0        4.051544    1.403842    0.369032
      5          1           0        3.738632    1.222440   -1.354424
      6          1           0        1.632590    1.910934    0.753548
      7          1           0        1.320802    1.729889   -0.969128
      8          1           0        2.876315    3.647883   -1.457341
      9          1           0        3.189875    3.829956    0.275122
     10          1           0        1.571596    4.152746   -0.370083
     11          6           0        2.937999   -0.369865   -0.142086
     12          6           0        4.143011   -1.303426   -0.262069
     13          6           0        3.777598   -2.771648   -0.041630
     14          1           0        2.486696   -0.491032    0.852419
     15          1           0        2.173784   -0.672434   -0.871038
     16          1           0        4.904525   -0.998481    0.467122
     17          1           0        4.592737   -1.179526   -1.255553
     18          1           0        3.035452   -3.098548   -0.777128
     19          1           0        3.349012   -2.916475    0.955336
     20          1           0        4.653731   -3.421337   -0.131923
     21          6           0       -4.726045    0.137780   -0.764569
     22          6           0       -3.960910   -0.937748   -1.227527
     23          6           0       -2.688412   -1.181888   -0.702465
     24          6           0       -2.209967   -0.326648    0.288969
     25          6           0       -2.948187    0.753171    0.770959
     26          6           0       -4.218136    0.978324    0.231440
     27          1           0       -5.713563    0.320060   -1.178065
     28          1           0       -4.352807   -1.592171   -2.000956
     29          1           0       -2.074803   -2.007253   -1.042577
     30          1           0       -2.530630    1.388198    1.542843
     31          1           0       -4.810122    1.814356    0.592896
     32          7           0       -0.864178   -0.575058    0.852481
     33          8           0       -0.465374    0.193045    1.725184
     34          8           0       -0.233636   -1.533162    0.410789
 ---------------------------------------------------------------------

 SCF Done:  E(RHF) =  -669.536006285     A.U. after   15 cycles
 E2 =    -0.2093507161D+01 EUMP2 =    -0.67162951344578D+03

 The electronic state is 1-A.
 Alpha  occ. eigenvalues --  -20.61076 -20.61065 -15.86051 -11.31352 -11.27906
 Alpha  occ. eigenvalues --  -11.27901 -11.27636 -11.26904 -11.26894 -11.20334
 Alpha  occ. eigenvalues --  -11.20197 -11.20196 -11.20028 -11.19689 -11.19464
 Alpha  occ. eigenvalues --   -1.60099  -1.39662  -1.19512  -1.08925  -1.06984
 Alpha  occ. eigenvalues --   -1.04902  -1.02241  -0.95774  -0.94686  -0.86305
 Alpha  occ. eigenvalues --   -0.85707  -0.82615  -0.78318  -0.77670  -0.76734
 Alpha  occ. eigenvalues --   -0.72286  -0.71374  -0.70622  -0.65170  -0.64906
 Alpha  occ. eigenvalues --   -0.63629  -0.62250  -0.59657  -0.58076  -0.56298
 Alpha  occ. eigenvalues --   -0.55409  -0.53981  -0.53236  -0.52994  -0.51468
 Alpha  occ. eigenvalues --   -0.51129  -0.49119  -0.49057  -0.48621  -0.46703
 Alpha  occ. eigenvalues --   -0.45425  -0.45036  -0.44131  -0.43969  -0.42433
 Alpha  occ. eigenvalues --   -0.37481  -0.36500
 Alpha virt. eigenvalues --    0.04816   0.11155   0.16288   0.21276   0.24223
 Alpha virt. eigenvalues --    0.25497   0.27209   0.27922   0.28122   0.29043
 Alpha virt. eigenvalues --    0.29282   0.30992   0.32301   0.32597   0.32816

 Mulliken charges:
               1
     1  C   -0.297404
     2  C   -0.305236
     3  C   -0.474209
     4  H    0.145382
     5  H    0.141739
     6  H    0.171868
     7  H    0.141358
     8  H    0.151047
     9  H    0.153821
    10  H    0.153995
    11  C   -0.300162
    12  C   -0.299882
    13  C   -0.472279
    14  H    0.171039
    15  H    0.151067
    16  H    0.146849
    17  H    0.144267
    18  H    0.154829
    19  H    0.160436
    20  H    0.151772
    21  C   -0.170450
    22  C   -0.218558
    23  C   -0.170887
    24  C    0.159437
    25  C   -0.170342
    26  C   -0.218582
    27  H    0.226223
    28  H    0.224012
    29  H    0.275688
    30  H    0.275886
    31  H    0.224058
    32  N    0.489170
    33  O   -0.459707
    34  O   -0.456244
 Sum of Mulliken charges =  -0.00000

 Dipole moment (field-independent basis, Debye):
    X=             -5.1498    Y=              0.7048    Z=             -1.7498  Tot=              5.4845
 Quadrupole moment (field-independent basis, Debye-Ang):
   XX=            -75.7610   YY=            -94.5671   ZZ=            -93.7155
   XY=             -1.1633   XZ=              3.6639   YZ=              4.1670

 Normal termination of Gaussian 16 at Wed May  5 15:31:34 2021.
