 Gaussian 16, Revision A.03,
 Gaussian 16:  EM64L-G16RevA.03 25-Dec-2016

 -------------
 #p 6-31g* mp2
 -------------

 ------------------------------------------------------
 Input file generated by CHIRIPA (05-May-2021 14:53:12)
 ------------------------------------------------------
 Symbolic Z-matrix:
 Charge =  0 Multiplicity = 1

                         Standard orientation:
 ---------------------------------------------------------------------
 Center     Atomic      Atomic             Coordinates (Angstroms)
 Number     Number       Type             X           Y           Z
 ---------------------------------------------------------------------
      1          6           0       -4.142190   -0.401300   -0.254503
      2          6           0       -5.573262   -0.827498    0.074697
      3          6           0       -5.794454   -2.331585   -0.088374
      4          1           0       -3.905836   -0.698472   -1.285411
      5          1           0       -3.445411   -0.947962    0.395924
      6          1           0       -6.267219   -0.279172   -0.575209
      7          1           0       -5.806301   -0.529107    1.104877
      8          1           0       -5.125392   -2.893147    0.571631
      9          1           0       -5.588929   -2.641792   -1.118001
     10          1           0       -6.824072   -2.614343    0.152030
     11          6           0       -3.905466    1.099574   -0.096172
     12          6           0       -2.474394    1.525773   -0.425372
     13          6           0       -2.253202    3.029859   -0.262302
     14          1           0       -4.602245    1.646236   -0.746599
     15          1           0       -4.141820    1.396746    0.934736
     16          1           0       -2.241354    1.227381   -1.455552
     17          1           0       -1.780437    0.977446    0.224534
     18          1           0       -2.458727    3.340067    0.767325
     19          1           0       -2.922263    3.591421   -0.922306
     20          1           0       -1.223584    3.312618   -0.502705
     21          6           0        5.573683   -0.198302   -0.537665
     22          6           0        4.866306   -1.403359   -0.600735
     23          6           0        3.519513   -1.456353   -0.229403
     24          6           0        2.908686   -0.279962    0.202205
     25          6           0        3.586535    0.935915    0.276044
     26          6           0        4.932671    0.965437   -0.100248
     27          1           0        6.619650   -0.166253   -0.828051
     28          1           0        5.361551   -2.308699   -0.940051
     29          1           0        2.948124   -2.375810   -0.268523
     30          1           0        3.065727    1.821907    0.618386
     31          1           0        5.479538    1.902710   -0.050249
     32          7           0        1.483244   -0.323640    0.597943
     33          8           0        0.968003    0.726690    0.974733
     34          8           0        0.908215   -1.407377    0.523840
 ---------------------------------------------------------------------

 SCF Done:  E(RHF) =  -669.536568979     A.U. after   15 cycles
 E2 =    -0.2091232697D+01 EUMP2 =    -0.67162780167531D+03

 The electronic state is 1-A.
 Alpha  occ. eigenvalues --  -20.61040 -20.61019 -15.86041 -11.31338 -11.27894
 Alpha  occ. eigenvalues --  -11.27891 -11.27628 -11.26895 -11.26885 -11.20657
 Alpha  occ. eigenvalues --  -11.20252 -11.20184 -11.20102 -11.19921 -11.19785
 Alpha  occ. eigenvalues --   -1.60077  -1.39634  -1.19501  -1.08911  -1.07202
 Alpha  occ. eigenvalues --   -1.04892  -1.02329  -0.95757  -0.94831  -0.86294
 Alpha  occ. eigenvalues --   -0.85858  -0.82592  -0.78404  -0.77648  -0.76970
 Alpha  occ. eigenvalues --   -0.72259  -0.71382  -0.70609  -0.65156  -0.64896
 Alpha  occ. eigenvalues --   -0.63833  -0.62239  -0.59725  -0.58211  -0.56417
 Alpha  occ. eigenvalues --   -0.55398  -0.54134  -0.53225  -0.52983  -0.51554
 Alpha  occ. eigenvalues --   -0.51255  -0.49114  -0.49019  -0.48756  -0.46711
 Alpha  occ. eigenvalues --   -0.45424  -0.45049  -0.44554  -0.44298  -0.42588
 Alpha  occ. eigenvalues --   -0.37477  -0.36491
 Alpha virt. eigenvalues --    0.04865   0.11164   0.16364   0.21297   0.24051
 Alpha virt. eigenvalues --    0.25450   0.27220   0.27869   0.28160   0.28838
 Alpha virt. eigenvalues --    0.29095   0.30866   0.32327   0.32530   0.32977

 Mulliken charges:
               1
     1  C   -0.299080
     2  C   -0.298726
     3  C   -0.475080
     4  H    0.146786
     5  H    0.158505
     6  H    0.148637
     7  H    0.150531
     8  H    0.156472
     9  H    0.153454
    10  H    0.156635
    11  C   -0.297365
    12  C   -0.310047
    13  C   -0.472449
    14  H    0.142995
    15  H    0.147449
    16  H    0.143907
    17  H    0.183004
    18  H    0.153148
    19  H    0.147083
    20  H    0.158304
    21  C   -0.170475
    22  C   -0.218606
    23  C   -0.170672
    24  C    0.158355
    25  C   -0.170717
    26  C   -0.218570
    27  H    0.226163
    28  H    0.223979
    29  H    0.275978
    30  H    0.275953
    31  H    0.224020
    32  N    0.488915
    33  O   -0.459385
    34  O   -0.459099
 Sum of Mulliken charges =  -0.00000

 Dipole moment (field-independent basis, Debye):
    X=              5.4330    Y=              0.0240    Z=             -1.2696  Tot=              5.5794
 Quadrupole moment (field-independent basis, Debye-Ang):
   XX=            -67.5761   YY=            -91.7952   ZZ=            -95.1671
   XY=             -0.8652   XZ=             -3.3022   YZ=              1.5866

 Normal termination of Gaussian 16 at Thu May  6 17:01:59 2021.
