 Gaussian 16, Revision A.03,
 Gaussian 16:  EM64L-G16RevA.03 25-Dec-2016

 -------------
 #p 6-31g* mp2
 -------------

 ------------------------------------------------------
 Input file generated by CHIRIPA (05-May-2021 14:53:13)
 ------------------------------------------------------
 Symbolic Z-matrix:
 Charge =  0 Multiplicity = 1

                         Standard orientation:
 ---------------------------------------------------------------------
 Center     Atomic      Atomic             Coordinates (Angstroms)
 Number     Number       Type             X           Y           Z
 ---------------------------------------------------------------------
      1          6           0        2.827016    0.150889   -0.516650
      2          6           0        3.360814   -0.626954    0.686680
      3          6           0        4.391910   -1.686124    0.295793
      4          1           0        2.378721   -0.553310   -1.230850
      5          1           0        3.667788    0.630624   -1.036605
      6          1           0        2.519131   -1.103943    1.205011
      7          1           0        3.807719    0.079198    1.398186
      8          1           0        5.250142   -1.223100   -0.201848
      9          1           0        3.954233   -2.412964   -0.396120
     10          1           0        4.760213   -2.230172    1.171136
     11          6           0        1.795296    1.213384   -0.141967
     12          6           0        1.261498    1.991227   -1.345297
     13          6           0        0.230402    3.050398   -0.954410
     14          1           0        0.954524    0.733650    0.377988
     15          1           0        2.243591    1.917583    0.572232
     16          1           0        0.814593    1.285075   -2.056803
     17          1           0        2.103181    2.468217   -1.863628
     18          1           0        0.668079    3.777238   -0.262497
     19          1           0       -0.627830    2.587373   -0.456770
     20          1           0       -0.137901    3.594445   -1.829753
     21          6           0       -1.603504    0.635108    2.484557
     22          6           0       -2.335607    1.224784    1.448783
     23          6           0       -2.454279    0.586652    0.210537
     24          6           0       -1.825128   -0.645840    0.041947
     25          6           0       -1.088809   -1.258921    1.054496
     26          6           0       -0.983535   -0.602680    2.284460
     27          1           0       -1.516521    1.137859    3.443239
     28          1           0       -2.818143    2.185998    1.601334
     29          1           0       -3.014954    1.020595   -0.608460
     30          1           0       -0.618962   -2.217835    0.872437
     31          1           0       -0.414335   -1.062995    3.087060
     32          7           0       -1.943669   -1.330988   -1.264545
     33          8           0       -1.379956   -2.416199   -1.387755
     34          8           0       -2.598049   -0.769822   -2.140625
 ---------------------------------------------------------------------

 SCF Done:  E(RHF) =  -669.534020254     A.U. after   15 cycles
 E2 =    -0.2096521385D+01 EUMP2 =    -0.67163054163867D+03

 The electronic state is 1-A.
 Alpha  occ. eigenvalues --  -20.60922 -20.60915 -15.85977 -11.31370 -11.27944
 Alpha  occ. eigenvalues --  -11.27941 -11.27676 -11.26958 -11.26947 -11.21731
 Alpha  occ. eigenvalues --  -11.21469 -11.21299 -11.21189 -11.21106 -11.20977
 Alpha  occ. eigenvalues --   -1.59997  -1.39548  -1.19583  -1.08940  -1.08378
 Alpha  occ. eigenvalues --   -1.04992  -1.03513  -0.95957  -0.95770  -0.86984
 Alpha  occ. eigenvalues --   -0.86353  -0.82602  -0.79594  -0.78194  -0.77645
 Alpha  occ. eigenvalues --   -0.72190  -0.71332  -0.70648  -0.65211  -0.65059
 Alpha  occ. eigenvalues --   -0.64943  -0.62323  -0.60953  -0.59330  -0.57578
 Alpha  occ. eigenvalues --   -0.55447  -0.55279  -0.53423  -0.53039  -0.52657
 Alpha  occ. eigenvalues --   -0.52402  -0.49943  -0.48953  -0.48944  -0.47889
 Alpha  occ. eigenvalues --   -0.46621  -0.45697  -0.45485  -0.44941  -0.43743
 Alpha  occ. eigenvalues --   -0.37542  -0.36443
 Alpha virt. eigenvalues --    0.04844   0.11021   0.16225   0.20841   0.22927
 Alpha virt. eigenvalues --    0.24018   0.26260   0.26934   0.27581   0.28327
 Alpha virt. eigenvalues --    0.28603   0.30823   0.31499   0.31828   0.32094

 Mulliken charges:
               1
     1  C   -0.299658
     2  C   -0.297806
     3  C   -0.476372
     4  H    0.155427
     5  H    0.149841
     6  H    0.143131
     7  H    0.149969
     8  H    0.156379
     9  H    0.159111
    10  H    0.157989
    11  C   -0.307105
    12  C   -0.300071
    13  C   -0.481967
    14  H    0.158837
    15  H    0.144908
    16  H    0.156238
    17  H    0.152077
    18  H    0.150965
    19  H    0.156440
    20  H    0.160337
    21  C   -0.169411
    22  C   -0.216372
    23  C   -0.174445
    24  C    0.163541
    25  C   -0.175747
    26  C   -0.216972
    27  H    0.227172
    28  H    0.225945
    29  H    0.277846
    30  H    0.276539
    31  H    0.225291
    32  N    0.487912
    33  O   -0.460316
    34  O   -0.459653
 Sum of Mulliken charges =  -0.00000

 Dipole moment (field-independent basis, Debye):
    X=              0.2564    Y=              2.3123    Z=              4.6124  Tot=              5.1659
 Quadrupole moment (field-independent basis, Debye-Ang):
   XX=            -95.2619   YY=            -95.9521   ZZ=            -94.1302
   XY=             -6.2261   XZ=             -7.5194   YZ=             -4.2036

 Normal termination of Gaussian 16 at Thu May  6 07:21:22 2021.
