 Gaussian 16, Revision A.03,
 Gaussian 16:  EM64L-G16RevA.03 25-Dec-2016

 -------------
 #p 6-31g* mp2
 -------------

 ------------------------------------------------------
 Input file generated by CHIRIPA (05-May-2021 14:53:11)
 ------------------------------------------------------
 Symbolic Z-matrix:
 Charge =  0 Multiplicity = 1

                         Standard orientation:
 ---------------------------------------------------------------------
 Center     Atomic      Atomic             Coordinates (Angstroms)
 Number     Number       Type             X           Y           Z
 ---------------------------------------------------------------------
      1          6           0        3.358502    0.010089   -0.196448
      2          6           0        4.679434   -0.556605    0.325071
      3          6           0        5.014991   -1.922108   -0.275429
      4          1           0        2.549334   -0.698850    0.026256
      5          1           0        3.409542    0.092372   -1.290989
      6          1           0        4.626425   -0.636498    1.418425
      7          1           0        5.485522    0.153853    0.101270
      8          1           0        5.095061   -1.854542   -1.365211
      9          1           0        4.231083   -2.649384   -0.040572
     10          1           0        5.963185   -2.308611    0.111099
     11          6           0        3.009326    1.374777    0.394679
     12          6           0        1.688394    1.941471   -0.126839
     13          6           0        1.352837    3.306974    0.473660
     14          1           0        2.958286    1.292494    1.489220
     15          1           0        3.818494    2.083716    0.171976
     16          1           0        0.882306    1.231013    0.096962
     17          1           0        1.741403    2.021364   -1.220193
     18          1           0        2.136745    4.034250    0.238803
     19          1           0        1.272767    3.239408    1.563442
     20          1           0        0.404643    3.693477    0.087132
     21          6           0       -4.354659    1.155901   -0.083848
     22          6           0       -4.545510   -0.092675    0.517113
     23          6           0       -3.517933   -1.040590    0.526605
     24          6           0       -2.306916   -0.705010   -0.076814
     25          6           0       -2.086098    0.530424   -0.683634
     26          6           0       -3.127725    1.462924   -0.681252
     27          1           0       -5.158363    1.886276   -0.086610
     28          1           0       -5.497309   -0.333858    0.981824
     29          1           0       -3.638624   -2.014742    0.984731
     30          1           0       -1.126181    0.741919   -1.138878
     31          1           0       -2.976670    2.431794   -1.148712
     32          7           0       -1.211629   -1.700365   -0.073051
     33          8           0       -0.154109   -1.380295   -0.611421
     34          8           0       -1.431404   -2.781747    0.468196
 ---------------------------------------------------------------------

 SCF Done:  E(RHF) =  -669.535801415     A.U. after   15 cycles
 E2 =    -0.2093115173D+01 EUMP2 =    -0.67162891658816D+03

 The electronic state is 1-A.
 Alpha  occ. eigenvalues --  -20.61014 -20.61009 -15.86025 -11.31295 -11.27861
 Alpha  occ. eigenvalues --  -11.27811 -11.27588 -11.26857 -11.26840 -11.21246
 Alpha  occ. eigenvalues --  -11.21033 -11.20778 -11.20722 -11.20235 -11.20153
 Alpha  occ. eigenvalues --   -1.60070  -1.39628  -1.19463  -1.08880  -1.07717
 Alpha  occ. eigenvalues --   -1.04850  -1.02943  -0.95729  -0.95376  -0.86404
 Alpha  occ. eigenvalues --   -0.86248  -0.82565  -0.79069  -0.77728  -0.77327
 Alpha  occ. eigenvalues --   -0.72252  -0.71378  -0.70574  -0.65124  -0.64869
 Alpha  occ. eigenvalues --   -0.64329  -0.62219  -0.60331  -0.58809  -0.56980
 Alpha  occ. eigenvalues --   -0.55358  -0.54652  -0.53181  -0.52950  -0.52143
 Alpha  occ. eigenvalues --   -0.51792  -0.49368  -0.49021  -0.48965  -0.47324
 Alpha  occ. eigenvalues --   -0.46093  -0.45346  -0.44992  -0.44455  -0.43134
 Alpha  occ. eigenvalues --   -0.37442  -0.36437
 Alpha virt. eigenvalues --    0.04841   0.11127   0.16326   0.20911   0.23613
 Alpha virt. eigenvalues --    0.24583   0.26620   0.27458   0.27596   0.28576
 Alpha virt. eigenvalues --    0.29363   0.30882   0.31783   0.31933   0.32523

 Mulliken charges:
               1
     1  C   -0.308104
     2  C   -0.299054
     3  C   -0.475874
     4  H    0.178005
     5  H    0.146212
     6  H    0.149598
     7  H    0.146733
     8  H    0.153612
     9  H    0.162367
    10  H    0.155975
    11  C   -0.296724
    12  C   -0.309045
    13  C   -0.473632
    14  H    0.147841
    15  H    0.145836
    16  H    0.161350
    17  H    0.147867
    18  H    0.155756
    19  H    0.156059
    20  H    0.148987
    21  C   -0.170256
    22  C   -0.218655
    23  C   -0.170410
    24  C    0.156447
    25  C   -0.173008
    26  C   -0.220266
    27  H    0.226094
    28  H    0.223802
    29  H    0.275651
    30  H    0.282737
    31  H    0.224278
    32  N    0.490576
    33  O   -0.462239
    34  O   -0.458514
 Sum of Mulliken charges =  -0.00000

 Dipole moment (field-independent basis, Debye):
    X=             -4.0507    Y=              3.2548    Z=             -0.0084  Tot=              5.1963
 Quadrupole moment (field-independent basis, Debye-Ang):
   XX=            -76.2504   YY=            -99.2867   ZZ=            -93.8179
   XY=             -3.0778   XZ=             -1.6418   YZ=             -2.8296

 Normal termination of Gaussian 16 at Thu May  6 00:56:00 2021.
