 Gaussian 16, Revision A.03,
 Gaussian 16:  EM64L-G16RevA.03 25-Dec-2016

 -------------
 #p 6-31g* mp2
 -------------

 ------------------------------------------------------
 Input file generated by CHIRIPA (05-May-2021 14:57:21)
 ------------------------------------------------------
 Symbolic Z-matrix:
 Charge =  0 Multiplicity = 1

                         Standard orientation:
 ---------------------------------------------------------------------
 Center     Atomic      Atomic             Coordinates (Angstroms)
 Number     Number       Type             X           Y           Z
 ---------------------------------------------------------------------
      1          6           0       -1.459668   -1.355641    1.771218
      2          6           0       -1.784171   -0.003765    1.925006
      3          6           0       -2.628034    0.632426    1.009743
      4          6           0       -3.131820   -0.116823   -0.052385
      5          6           0       -2.827026   -1.465110   -0.232698
      6          6           0       -1.981211   -2.080720    0.694755
      7          1           0       -0.803377   -1.841855    2.486951
      8          1           0       -1.380599    0.561823    2.760041
      9          1           0       -2.895593    1.677785    1.104896
     10          1           0       -3.244765   -2.002764   -1.075218
     11          1           0       -1.730910   -3.130732    0.572816
     12          7           0       -4.026212    0.545790   -1.027785
     13          8           0       -4.457015   -0.136378   -1.954981
     14          8           0       -4.279500    1.734768   -0.846638
     15          6           0        2.267228    2.560953    0.523846
     16          6           0        3.359465    2.370970   -0.329058
     17          6           0        3.765698    1.081760   -0.686075
     18          6           0        3.053748    0.000298   -0.169494
     19          6           0        1.961470    0.157056    0.682356
     20          6           0        1.572941    1.455339    1.025945
     21          1           0        1.958531    3.565966    0.795969
     22          1           0        3.900526    3.227746   -0.720506
     23          1           0        4.607695    0.905981   -1.344529
     24          1           0        1.441814   -0.716600    1.056658
     25          1           0        0.724319    1.599874    1.688514
     26          7           0        3.474438   -1.369333   -0.540344
     27          8           0        2.830577   -2.305575   -0.071802
     28          8           0        4.440071   -1.480675   -1.292536
 ---------------------------------------------------------------------

 SCF Done:  E(RHF) =  -868.337135117     A.U. after   16 cycles
 E2 =    -0.2601860339D+01 EUMP2 =    -0.87093899545557D+03

 The electronic state is 1-A.
 Alpha  occ. eigenvalues --  -20.61191 -20.61179 -20.61172 -20.61148 -15.86242
 Alpha  occ. eigenvalues --  -15.86218 -11.31738 -11.31513 -11.28394 -11.28236
 Alpha  occ. eigenvalues --  -11.28096 -11.28088 -11.28057 -11.27811 -11.27504
 Alpha  occ. eigenvalues --  -11.27245 -11.27105 -11.27051  -1.60256  -1.60238
 Alpha  occ. eigenvalues --   -1.39806  -1.39796  -1.19934  -1.19682  -1.09313
 Alpha  occ. eigenvalues --   -1.09091  -1.05364  -1.05073  -0.96120  -0.95933
 Alpha  occ. eigenvalues --   -0.86758  -0.86486  -0.82948  -0.82777  -0.78005
 Alpha  occ. eigenvalues --   -0.77807  -0.72458  -0.72444  -0.71578  -0.71555
 Alpha  occ. eigenvalues --   -0.71069  -0.70765  -0.65587  -0.65489  -0.65335
 Alpha  occ. eigenvalues --   -0.65023  -0.62752  -0.62388  -0.55853  -0.55603
 Alpha  occ. eigenvalues --   -0.53693  -0.53523  -0.53337  -0.53096  -0.49229
 Alpha  occ. eigenvalues --   -0.49205  -0.49201  -0.49183  -0.45217  -0.45183
 Alpha  occ. eigenvalues --   -0.37947  -0.37668  -0.37012  -0.36547
 Alpha virt. eigenvalues --    0.04519   0.04707   0.10578   0.10975   0.15825
 Alpha virt. eigenvalues --    0.16227   0.19248   0.22202   0.25252   0.26415
 Alpha virt. eigenvalues --    0.28226   0.29412   0.29706   0.31598   0.32336

 Mulliken charges:
               1
     1  C   -0.179195
     2  C   -0.224542
     3  C   -0.170138
     4  C    0.160145
     5  C   -0.168848
     6  C   -0.215329
     7  H    0.230014
     8  H    0.218385
     9  H    0.274667
    10  H    0.279585
    11  H    0.232776
    12  N    0.488050
    13  O   -0.457067
    14  O   -0.460899
    15  C   -0.170549
    16  C   -0.218318
    17  C   -0.169905
    18  C    0.158340
    19  C   -0.170886
    20  C   -0.216929
    21  H    0.226727
    22  H    0.225176
    23  H    0.276621
    24  H    0.270982
    25  H    0.215734
    26  N    0.488519
    27  O   -0.465046
    28  O   -0.458072
 Sum of Mulliken charges =  -0.00000

 Dipole moment (field-independent basis, Debye):
    X=              1.5141    Y=              2.3519    Z=              4.5249  Tot=              5.3196
 Quadrupole moment (field-independent basis, Debye-Ang):
   XX=           -131.2775   YY=           -100.0580   ZZ=           -104.0829
   XY=             24.4684   XZ=             -8.8427   YZ=              0.0290

 Normal termination of Gaussian 16 at Wed May  5 22:31:37 2021.
