 Gaussian 16, Revision A.03,
 Gaussian 16:  EM64L-G16RevA.03 25-Dec-2016

 -------------
 #p 6-31g* mp2
 -------------

 ------------------------------------------------------
 Input file generated by CHIRIPA (05-May-2021 14:55:21)
 ------------------------------------------------------
 Symbolic Z-matrix:
 Charge =  0 Multiplicity = 1

                         Standard orientation:
 ---------------------------------------------------------------------
 Center     Atomic      Atomic             Coordinates (Angstroms)
 Number     Number       Type             X           Y           Z
 ---------------------------------------------------------------------
      1          6           0        5.245127   -1.569526   -0.155498
      2          6           0        4.809142   -1.129494    1.098619
      3          6           0        3.700821   -0.284479    1.208726
      4          6           0        3.049132    0.102640    0.038799
      5          6           0        3.459330   -0.318827   -1.225081
      6          6           0        4.570020   -1.163504   -1.311308
      7          1           0        6.107018   -2.225823   -0.231756
      8          1           0        5.331503   -1.443206    1.997935
      9          1           0        3.341956    0.071134    2.166939
     10          1           0        2.918210    0.010865   -2.103666
     11          1           0        4.906375   -1.503672   -2.286601
     12          7           0        1.874548    0.997041    0.142723
     13          8           0        1.317636    1.323769   -0.903094
     14          8           0        1.533063    1.354409    1.268029
     15          6           0       -4.337855   -0.672598    0.097325
     16          6           0       -5.828988   -0.956351   -0.087052
     17          6           0       -6.187859   -2.420815    0.166616
     18          1           0       -3.761965   -1.315724   -0.582149
     19          1           0       -4.042006   -0.952088    1.117989
     20          1           0       -6.122236   -0.675116   -1.106624
     21          1           0       -6.401404   -0.312339    0.592804
     22          1           0       -5.923130   -2.710879    1.188567
     23          1           0       -5.642377   -3.075718   -0.520518
     24          1           0       -7.258557   -2.601380    0.029276
     25          6           0       -3.963501    0.787203   -0.152803
     26          6           0       -2.472369    1.070956    0.031574
     27          6           0       -2.113498    2.535420   -0.222094
     28          1           0       -4.259351    1.066693   -1.173466
     29          1           0       -4.539391    1.430329    0.526671
     30          1           0       -1.899953    0.426944   -0.648282
     31          1           0       -2.179120    0.789722    1.051146
     32          1           0       -2.658980    3.190323    0.465040
     33          1           0       -2.378227    2.825484   -1.244045
     34          1           0       -1.042799    2.715985   -0.084754
 ---------------------------------------------------------------------

 SCF Done:  E(RHF) =  -669.536886964     A.U. after   15 cycles
 E2 =    -0.2091722835D+01 EUMP2 =    -0.67162860979929D+03

 The electronic state is 1-A.
 Alpha  occ. eigenvalues --  -20.61103 -20.61095 -15.86090 -11.31372 -11.27923
 Alpha  occ. eigenvalues --  -11.27919 -11.27652 -11.26918 -11.26908 -11.20917
 Alpha  occ. eigenvalues --  -11.20543 -11.20503 -11.20192 -11.19949 -11.18989
 Alpha  occ. eigenvalues --   -1.60130  -1.39689  -1.19530  -1.08944  -1.07359
 Alpha  occ. eigenvalues --   -1.04917  -1.02319  -0.95794  -0.94766  -0.86320
 Alpha  occ. eigenvalues --   -0.85802  -0.82626  -0.78476  -0.77689  -0.77083
 Alpha  occ. eigenvalues --   -0.72298  -0.71428  -0.70638  -0.65184  -0.64921
 Alpha  occ. eigenvalues --   -0.64009  -0.62264  -0.59738  -0.58242  -0.56344
 Alpha  occ. eigenvalues --   -0.55410  -0.54103  -0.53251  -0.53008  -0.51466
 Alpha  occ. eigenvalues --   -0.51233  -0.49065  -0.48942  -0.48776  -0.46723
 Alpha  occ. eigenvalues --   -0.45567  -0.45120  -0.44629  -0.44496  -0.42542
 Alpha  occ. eigenvalues --   -0.37505  -0.36515
 Alpha virt. eigenvalues --    0.04835   0.11141   0.16343   0.21278   0.23816
 Alpha virt. eigenvalues --    0.25620   0.27204   0.27633   0.28146   0.28513
 Alpha virt. eigenvalues --    0.29283   0.30856   0.32374   0.32509   0.32667

 Mulliken charges:
               1
     1  C   -0.170381
     2  C   -0.218604
     3  C   -0.170602
     4  C    0.159075
     5  C   -0.170668
     6  C   -0.218579
     7  H    0.226289
     8  H    0.224109
     9  H    0.276032
    10  H    0.275985
    11  H    0.224100
    12  N    0.488827
    13  O   -0.458352
    14  O   -0.458872
    15  C   -0.296916
    16  C   -0.298613
    17  C   -0.474965
    18  H    0.147032
    19  H    0.147849
    20  H    0.150671
    21  H    0.151029
    22  H    0.154023
    23  H    0.153512
    24  H    0.157994
    25  C   -0.297395
    26  C   -0.297110
    27  C   -0.482278
    28  H    0.146297
    29  H    0.146622
    30  H    0.152495
    31  H    0.151843
    32  H    0.143980
    33  H    0.145806
    34  H    0.189764
 Sum of Mulliken charges =  -0.00000

 Dipole moment (field-independent basis, Debye):
    X=              4.6432    Y=             -3.1226    Z=             -0.3488  Tot=              5.6064
 Quadrupole moment (field-independent basis, Debye-Ang):
   XX=            -71.6983   YY=            -97.4994   ZZ=            -88.8776
   XY=             -9.9014   XZ=             -0.5559   YZ=              0.3496

 Normal termination of Gaussian 16 at Thu May  6 12:30:55 2021.
