 Gaussian 16, Revision A.03,
 Gaussian 16:  EM64L-G16RevA.03 25-Dec-2016

 -------------
 #p 6-31g* mp2
 -------------

 ------------------------------------------------------
 Input file generated by CHIRIPA (05-May-2021 14:57:21)
 ------------------------------------------------------
 Symbolic Z-matrix:
 Charge =  0 Multiplicity = 1

                         Standard orientation:
 ---------------------------------------------------------------------
 Center     Atomic      Atomic             Coordinates (Angstroms)
 Number     Number       Type             X           Y           Z
 ---------------------------------------------------------------------
      1          6           0       -3.037569   -2.183201    0.313090
      2          6           0       -4.429508   -2.151345    0.178881
      3          6           0       -5.099794   -0.934841    0.019566
      4          6           0       -4.343416    0.235951   -0.001162
      5          6           0       -2.955588    0.236946    0.130069
      6          6           0       -2.306341   -0.991056    0.288300
      7          1           0       -2.525047   -3.132677    0.436429
      8          1           0       -4.999964   -3.075612    0.197766
      9          1           0       -6.176500   -0.881295   -0.086527
     10          1           0       -2.414058    1.174842    0.107373
     11          1           0       -1.225250   -1.012768    0.392299
     12          7           0       -5.041882    1.529896   -0.169247
     13          8           0       -4.352608    2.547400   -0.184240
     14          8           0       -6.265387    1.502085   -0.282817
     15          6           0        5.861863    1.891770    0.152984
     16          6           0        4.491386    2.123984    0.309163
     17          6           0        3.577165    1.070772    0.211732
     18          6           0        4.070374   -0.207777   -0.043896
     19          6           0        5.429869   -0.471077   -0.204323
     20          6           0        6.325912    0.597263   -0.102809
     21          1           0        6.564991    2.715806    0.230257
     22          1           0        4.128145    3.128280    0.507888
     23          1           0        2.510942    1.222362    0.328388
     24          1           0        5.761885   -1.483124   -0.401666
     25          1           0        7.389692    0.413968   -0.224546
     26          7           0        3.112151   -1.330771   -0.149204
     27          8           0        3.572065   -2.447960   -0.375051
     28          8           0        1.919326   -1.072523   -0.003902
 ---------------------------------------------------------------------

 SCF Done:  E(RHF) =  -868.340203995     A.U. after   16 cycles
 E2 =    -0.2598088841D+01 EUMP2 =    -0.87093829283577D+03

 The electronic state is 1-A.
 Alpha  occ. eigenvalues --  -20.61638 -20.61592 -20.60271 -20.60264 -15.86662
 Alpha  occ. eigenvalues --  -15.85313 -11.31755 -11.30489 -11.28303 -11.28277
 Alpha  occ. eigenvalues --  -11.27968 -11.27238 -11.27228 -11.27039 -11.26973
 Alpha  occ. eigenvalues --  -11.26630 -11.26024 -11.25779  -1.60677  -1.59348
 Alpha  occ. eigenvalues --   -1.40242  -1.38908  -1.19897  -1.18611  -1.09339
 Alpha  occ. eigenvalues --   -1.08027  -1.05261  -1.03971  -0.96222  -0.94908
 Alpha  occ. eigenvalues --   -0.86671  -0.85363  -0.83070  -0.81739  -0.78147
 Alpha  occ. eigenvalues --   -0.76824  -0.72902  -0.71978  -0.71537  -0.71003
 Alpha  occ. eigenvalues --   -0.70667  -0.69700  -0.65557  -0.65258  -0.64248
 Alpha  occ. eigenvalues --   -0.63916  -0.62615  -0.61307  -0.55764  -0.54438
 Alpha  occ. eigenvalues --   -0.53602  -0.53349  -0.52330  -0.52020  -0.49661
 Alpha  occ. eigenvalues --   -0.49605  -0.48305  -0.48270  -0.45705  -0.44356
 Alpha  occ. eigenvalues --   -0.37856  -0.36851  -0.36568  -0.35578
 Alpha virt. eigenvalues --    0.04380   0.05675   0.10808   0.12082   0.15933
 Alpha virt. eigenvalues --    0.17242   0.20907   0.22327   0.26853   0.27408
 Alpha virt. eigenvalues --    0.28508   0.29124   0.30562   0.31609   0.32390

 Mulliken charges:
               1
     1  C   -0.172512
     2  C   -0.218650
     3  C   -0.173015
     4  C    0.158366
     5  C   -0.173657
     6  C   -0.226474
     7  H    0.229348
     8  H    0.221138
     9  H    0.272783
    10  H    0.271242
    11  H    0.247031
    12  N    0.488274
    13  O   -0.463520
    14  O   -0.462317
    15  C   -0.169868
    16  C   -0.218287
    17  C   -0.169770
    18  C    0.157783
    19  C   -0.170390
    20  C   -0.218440
    21  H    0.228046
    22  H    0.226239
    23  H    0.272641
    24  H    0.276212
    25  H    0.225298
    26  N    0.494489
    27  O   -0.456875
    28  O   -0.475113
 Sum of Mulliken charges =  -0.00000

 Dipole moment (field-independent basis, Debye):
    X=              6.3578    Y=             -0.6689    Z=              0.9737  Tot=              6.4666
 Quadrupole moment (field-independent basis, Debye-Ang):
   XX=            -92.3727   YY=           -106.0788   ZZ=           -106.4824
   XY=             36.3011   XZ=             -1.7741   YZ=              0.6786

 Normal termination of Gaussian 16 at Wed May  5 16:14:20 2021.
