 Gaussian 16, Revision A.03,
 Gaussian 16:  EM64L-G16RevA.03 25-Dec-2016

 -------------
 #p 6-31g* mp2
 -------------

 ------------------------------------------------------
 Input file generated by CHIRIPA (05-May-2021 14:53:14)
 ------------------------------------------------------
 Symbolic Z-matrix:
 Charge =  0 Multiplicity = 1

                         Standard orientation:
 ---------------------------------------------------------------------
 Center     Atomic      Atomic             Coordinates (Angstroms)
 Number     Number       Type             X           Y           Z
 ---------------------------------------------------------------------
      1          6           0       -3.726910   -0.226595    0.504247
      2          6           0       -4.679530   -1.036752   -0.375609
      3          6           0       -5.111313   -2.351318    0.274987
      4          1           0       -2.839988   -0.834400    0.729826
      5          1           0       -4.215517   -0.017662    1.466019
      6          1           0       -4.189794   -1.242909   -1.335960
      7          1           0       -5.564201   -0.426878   -0.599278
      8          1           0       -5.623331   -2.161582    1.223901
      9          1           0       -4.241116   -2.982250    0.483034
     10          1           0       -5.791973   -2.914456   -0.371106
     11          6           0       -3.286340    1.090281   -0.132513
     12          6           0       -2.333720    1.900438    0.747343
     13          6           0       -1.901938    3.215004    0.096747
     14          1           0       -2.797734    0.881348   -1.094285
     15          1           0       -4.173263    1.698086   -0.358092
     16          1           0       -1.449049    1.290565    0.971012
     17          1           0       -2.823456    2.106596    1.707694
     18          1           0       -2.772134    3.845936   -0.111299
     19          1           0       -1.389919    3.025268   -0.852167
     20          1           0       -1.221277    3.778142    0.742841
     21          6           0        0.318566   -0.684140   -0.765300
     22          6           0        0.906921    0.575565   -0.918604
     23          6           0        2.247527    0.779231   -0.578244
     24          6           0        2.973603   -0.303854   -0.085260
     25          6           0        2.415819   -1.570827    0.078886
     26          6           0        1.073562   -1.751435   -0.267921
     27          1           0       -0.723490   -0.833396   -1.032204
     28          1           0        0.323000    1.406263   -1.304637
     29          1           0        2.728079    1.743953   -0.686863
     30          1           0        3.023381   -2.379697    0.466205
     31          1           0        0.619265   -2.730838   -0.147808
     32          7           0        4.393716   -0.100448    0.278476
     33          8           0        5.011878   -1.070866    0.710683
     34          8           0        4.861749    1.025547    0.124477
 ---------------------------------------------------------------------

 SCF Done:  E(RHF) =  -669.534783471     A.U. after   15 cycles
 E2 =    -0.2093663978D+01 EUMP2 =    -0.67162844744929D+03

 The electronic state is 1-A.
 Alpha  occ. eigenvalues --  -20.60779 -20.60773 -15.85832 -11.31215 -11.27781
 Alpha  occ. eigenvalues --  -11.27769 -11.27510 -11.26803 -11.26765 -11.22558
 Alpha  occ. eigenvalues --  -11.22520 -11.22453 -11.22401 -11.22084 -11.21897
 Alpha  occ. eigenvalues --   -1.59854  -1.39407  -1.19389  -1.09472  -1.08775
 Alpha  occ. eigenvalues --   -1.04802  -1.04477  -0.96958  -0.95613  -0.87963
 Alpha  occ. eigenvalues --   -0.86192  -0.82442  -0.80535  -0.79262  -0.77490
 Alpha  occ. eigenvalues --   -0.72051  -0.71177  -0.70540  -0.66207  -0.65034
 Alpha  occ. eigenvalues --   -0.64754  -0.62322  -0.61681  -0.60298  -0.58541
 Alpha  occ. eigenvalues --   -0.56419  -0.55157  -0.53599  -0.53370  -0.53121
 Alpha  occ. eigenvalues --   -0.52857  -0.50898  -0.48866  -0.48804  -0.48779
 Alpha  occ. eigenvalues --   -0.47587  -0.46789  -0.46754  -0.44808  -0.44755
 Alpha  occ. eigenvalues --   -0.37335  -0.36378
 Alpha virt. eigenvalues --    0.05014   0.11151   0.16395   0.18209   0.22093
 Alpha virt. eigenvalues --    0.23790   0.25242   0.25602   0.26472   0.28482
 Alpha virt. eigenvalues --    0.29381   0.30642   0.31008   0.31533   0.32361

 Mulliken charges:
               1
     1  C   -0.301255
     2  C   -0.300452
     3  C   -0.475477
     4  H    0.145360
     5  H    0.155452
     6  H    0.147604
     7  H    0.155945
     8  H    0.158370
     9  H    0.152673
    10  H    0.163169
    11  C   -0.300101
    12  C   -0.307936
    13  C   -0.477686
    14  H    0.138903
    15  H    0.155420
    16  H    0.158311
    17  H    0.157330
    18  H    0.160208
    19  H    0.145368
    20  H    0.166024
    21  C   -0.176332
    22  C   -0.221672
    23  C   -0.173169
    24  C    0.158694
    25  C   -0.170747
    26  C   -0.219829
    27  H    0.231922
    28  H    0.230951
    29  H    0.276225
    30  H    0.275721
    31  H    0.223531
    32  N    0.488040
    33  O   -0.460376
    34  O   -0.460191
 Sum of Mulliken charges =  -0.00000

 Dipole moment (field-independent basis, Debye):
    X=             -5.1677    Y=             -0.6609    Z=             -1.1515  Tot=              5.3355
 Quadrupole moment (field-independent basis, Debye-Ang):
   XX=           -123.7345   YY=            -90.1713   ZZ=            -94.9012
   XY=             -1.8781   XZ=             -3.8778   YZ=             -0.3280

 Normal termination of Gaussian 16 at Thu May  6 01:01:47 2021.
