 Gaussian 16, Revision A.03,
 Gaussian 16:  EM64L-G16RevA.03 25-Dec-2016

 -------------
 #p 6-31g* mp2
 -------------

 ------------------------------------------------------
 Input file generated by CHIRIPA (05-May-2021 14:53:17)
 ------------------------------------------------------
 Symbolic Z-matrix:
 Charge =  0 Multiplicity = 1

                         Standard orientation:
 ---------------------------------------------------------------------
 Center     Atomic      Atomic             Coordinates (Angstroms)
 Number     Number       Type             X           Y           Z
 ---------------------------------------------------------------------
      1          6           0       -3.159378    0.264333    0.006992
      2          6           0       -4.658776    0.233736   -0.291093
      3          6           0       -5.079620    1.288558   -1.314829
      4          1           0       -2.885174    1.263032    0.373541
      5          1           0       -2.603464    0.111164   -0.928366
      6          1           0       -5.211710    0.385538    0.644768
      7          1           0       -4.929476   -0.765063   -0.656794
      8          1           0       -4.553961    1.136406   -2.263056
      9          1           0       -4.837799    2.293545   -0.954099
     10          1           0       -6.155257    1.248952   -1.513060
     11          6           0       -2.723291   -0.784382    1.028634
     12          6           0       -1.223893   -0.753785    1.326719
     13          6           0       -0.803049   -1.808607    2.350455
     14          1           0       -3.279205   -0.631213    1.963992
     15          1           0       -2.997495   -1.783081    0.662085
     16          1           0       -0.953193    0.245014    1.692420
     17          1           0       -0.670959   -0.905586    0.390858
     18          1           0       -1.044870   -2.813593    1.989725
     19          1           0       -1.328708   -1.656455    3.298682
     20          1           0        0.272588   -1.769000    2.548686
     21          6           0        2.723416    2.385019    0.788897
     22          6           0        1.574968    2.227716    0.006052
     23          6           0        1.328996    1.023210   -0.659690
     24          6           0        2.256782   -0.007792   -0.519918
     25          6           0        3.410212    0.118265    0.252739
     26          6           0        3.635764    1.331649    0.909528
     27          1           0        2.906562    3.324157    1.302584
     28          1           0        0.864689    3.044067   -0.089443
     29          1           0        0.448026    0.874370   -1.272191
     30          1           0        4.099940   -0.713540    0.328848
     31          1           0        4.528515    1.450977    1.516819
     32          7           0        2.007191   -1.287647   -1.219971
     33          8           0        2.840034   -2.180743   -1.080720
     34          8           0        0.983445   -1.373469   -1.894669
 ---------------------------------------------------------------------

 SCF Done:  E(RHF) =  -669.535622672     A.U. after   15 cycles
 E2 =    -0.2093722072D+01 EUMP2 =    -0.67162934474355D+03

 The electronic state is 1-A.
 Alpha  occ. eigenvalues --  -20.60938 -20.60928 -15.85942 -11.31202 -11.27799
 Alpha  occ. eigenvalues --  -11.27778 -11.27531 -11.26774 -11.26759 -11.21566
 Alpha  occ. eigenvalues --  -11.21386 -11.21306 -11.21182 -11.21091 -11.20813
 Alpha  occ. eigenvalues --   -1.59984  -1.39545  -1.19392  -1.08805  -1.08319
 Alpha  occ. eigenvalues --   -1.04783  -1.03400  -0.95865  -0.95654  -0.86881
 Alpha  occ. eigenvalues --   -0.86191  -0.82490  -0.79492  -0.78195  -0.77520
 Alpha  occ. eigenvalues --   -0.72175  -0.71300  -0.70512  -0.65076  -0.64935
 Alpha  occ. eigenvalues --   -0.64759  -0.62138  -0.60777  -0.59248  -0.57496
 Alpha  occ. eigenvalues --   -0.55300  -0.55144  -0.53131  -0.52882  -0.52533
 Alpha  occ. eigenvalues --   -0.52295  -0.49802  -0.48961  -0.48923  -0.47810
 Alpha  occ. eigenvalues --   -0.46539  -0.45767  -0.45651  -0.44723  -0.43664
 Alpha  occ. eigenvalues --   -0.37353  -0.36324
 Alpha virt. eigenvalues --    0.04965   0.11236   0.16418   0.20889   0.23033
 Alpha virt. eigenvalues --    0.24416   0.25373   0.26627   0.27791   0.27914
 Alpha virt. eigenvalues --    0.29486   0.30968   0.31563   0.31897   0.31911

 Mulliken charges:
               1
     1  C   -0.301224
     2  C   -0.299295
     3  C   -0.476063
     4  H    0.142199
     5  H    0.153265
     6  H    0.151439
     7  H    0.155267
     8  H    0.156300
     9  H    0.151884
    10  H    0.160970
    11  C   -0.296552
    12  C   -0.310394
    13  C   -0.475680
    14  H    0.147418
    15  H    0.154377
    16  H    0.145737
    17  H    0.162951
    18  H    0.160316
    19  H    0.152566
    20  H    0.158107
    21  C   -0.170259
    22  C   -0.220337
    23  C   -0.168139
    24  C    0.158946
    25  C   -0.170766
    26  C   -0.219161
    27  H    0.225721
    28  H    0.223852
    29  H    0.277329
    30  H    0.275524
    31  H    0.223399
    32  N    0.488695
    33  O   -0.458176
    34  O   -0.460219
 Sum of Mulliken charges =  -0.00000

 Dipole moment (field-independent basis, Debye):
    X=              0.9428    Y=              4.4030    Z=              2.3758  Tot=              5.0912
 Quadrupole moment (field-independent basis, Debye-Ang):
   XX=            -87.4750   YY=            -94.6288   ZZ=            -97.4983
   XY=              8.9859   XZ=              6.7335   YZ=             -2.0453

 Normal termination of Gaussian 16 at Thu May  6 17:17:51 2021.
