 Gaussian 16, Revision A.03,
 Gaussian 16:  EM64L-G16RevA.03 25-Dec-2016

 -------------
 #p 6-31g* mp2
 -------------

 ------------------------------------------------------
 Input file generated by CHIRIPA (05-May-2021 14:55:23)
 ------------------------------------------------------
 Symbolic Z-matrix:
 Charge =  0 Multiplicity = 1

                         Standard orientation:
 ---------------------------------------------------------------------
 Center     Atomic      Atomic             Coordinates (Angstroms)
 Number     Number       Type             X           Y           Z
 ---------------------------------------------------------------------
      1          6           0       -4.641552    0.185104   -1.234733
      2          6           0       -4.305241   -1.137998   -0.930072
      3          6           0       -3.192831   -1.422167   -0.132363
      4          6           0       -2.435458   -0.354066    0.346005
      5          6           0       -2.744856    0.974754    0.059998
      6          6           0       -3.861661    1.235405   -0.739599
      7          1           0       -5.507406    0.396718   -1.855146
      8          1           0       -4.909096   -1.955679   -1.313218
      9          1           0       -2.909812   -2.437132    0.118966
     10          1           0       -2.123750    1.768750    0.456503
     11          1           0       -4.120471    2.263922   -0.974580
     12          7           0       -1.255473   -0.642455    1.191503
     13          8           0       -0.604396    0.316365    1.600649
     14          8           0       -1.004020   -1.821853    1.429049
     15          6           0        2.966102    0.880609    0.165455
     16          6           0        2.698468    2.218205   -0.525339
     17          6           0        1.896802    3.184314    0.347450
     18          1           0        2.007870    0.419215    0.440870
     19          1           0        3.506762    1.062586    1.104585
     20          1           0        2.159689    2.033651   -1.463566
     21          1           0        3.657442    2.676380   -0.799312
     22          1           0        2.432440    3.397681    1.278131
     23          1           0        0.926176    2.751301    0.610102
     24          1           0        1.716871    4.134070   -0.165823
     25          6           0        3.766529   -0.095877   -0.694497
     26          6           0        4.034162   -1.433472   -0.003704
     27          6           0        4.835829   -2.399581   -0.876491
     28          1           0        3.225868   -0.277852   -1.633627
     29          1           0        4.724760    0.365518   -0.969911
     30          1           0        3.075188   -1.891646    0.270270
     31          1           0        4.572942   -1.248919    0.934525
     32          1           0        5.806455   -1.966568   -1.139144
     33          1           0        4.300191   -2.612949   -1.807172
     34          1           0        5.015760   -3.349337   -0.363219
 ---------------------------------------------------------------------

 SCF Done:  E(RHF) =  -669.536466992     A.U. after   15 cycles
 E2 =    -0.2091914806D+01 EUMP2 =    -0.67162838179829D+03

 The electronic state is 1-A.
 Alpha  occ. eigenvalues --  -20.61100 -20.61087 -15.86103 -11.31371 -11.27927
 Alpha  occ. eigenvalues --  -11.27924 -11.27654 -11.26921 -11.26911 -11.20745
 Alpha  occ. eigenvalues --  -11.20621 -11.20439 -11.20320 -11.20213 -11.20103
 Alpha  occ. eigenvalues --   -1.60144  -1.39702  -1.19534  -1.08949  -1.07433
 Alpha  occ. eigenvalues --   -1.04921  -1.02631  -0.95799  -0.95081  -0.86325
 Alpha  occ. eigenvalues --   -0.86103  -0.82636  -0.78692  -0.77700  -0.77201
 Alpha  occ. eigenvalues --   -0.72324  -0.71452  -0.70642  -0.65192  -0.64923
 Alpha  occ. eigenvalues --   -0.64066  -0.62270  -0.60038  -0.58449  -0.56684
 Alpha  occ. eigenvalues --   -0.55428  -0.54375  -0.53256  -0.53011  -0.51830
 Alpha  occ. eigenvalues --   -0.51501  -0.49214  -0.49086  -0.48892  -0.47013
 Alpha  occ. eigenvalues --   -0.45780  -0.45267  -0.44773  -0.44372  -0.42856
 Alpha  occ. eigenvalues --   -0.37508  -0.36519
 Alpha virt. eigenvalues --    0.04776   0.11131   0.16256   0.20951   0.23725
 Alpha virt. eigenvalues --    0.24705   0.26506   0.27469   0.27859   0.28816
 Alpha virt. eigenvalues --    0.29119   0.30505   0.31529   0.32435   0.32665

 Mulliken charges:
               1
     1  C   -0.170294
     2  C   -0.218629
     3  C   -0.170638
     4  C    0.157768
     5  C   -0.171460
     6  C   -0.218890
     7  H    0.226361
     8  H    0.224112
     9  H    0.275931
    10  H    0.277605
    11  H    0.224490
    12  N    0.489231
    13  O   -0.460694
    14  O   -0.458086
    15  C   -0.307242
    16  C   -0.297545
    17  C   -0.480548
    18  H    0.172339
    19  H    0.148269
    20  H    0.145284
    21  H    0.147654
    22  H    0.155713
    23  H    0.165649
    24  H    0.151347
    25  C   -0.297410
    26  C   -0.300792
    27  C   -0.474987
    28  H    0.144496
    29  H    0.145041
    30  H    0.160646
    31  H    0.151579
    32  H    0.152336
    33  H    0.152320
    34  H    0.159045
 Sum of Mulliken charges =  -0.00000

 Dipole moment (field-independent basis, Debye):
    X=             -4.4846    Y=              0.8716    Z=             -2.8002  Tot=              5.3584
 Quadrupole moment (field-independent basis, Debye-Ang):
   XX=            -75.2993   YY=            -91.8464   ZZ=            -97.8285
   XY=              0.5801   XZ=              7.3727   YZ=              1.6509

 Normal termination of Gaussian 16 at Wed May  5 19:05:01 2021.
