 Gaussian 16, Revision A.03,
 Gaussian 16:  EM64L-G16RevA.03 25-Dec-2016

 -------------
 #p 6-31g* mp2
 -------------

 ------------------------------------------------------
 Input file generated by CHIRIPA (05-May-2021 14:57:22)
 ------------------------------------------------------
 Symbolic Z-matrix:
 Charge =  0 Multiplicity = 1

                         Standard orientation:
 ---------------------------------------------------------------------
 Center     Atomic      Atomic             Coordinates (Angstroms)
 Number     Number       Type             X           Y           Z
 ---------------------------------------------------------------------
      1          6           0        5.215924    1.372422    1.157681
      2          6           0        5.631886    0.677433    0.017292
      3          6           0        4.757460   -0.190350   -0.643676
      4          6           0        3.468382   -0.340010   -0.134590
      5          6           0        3.024338    0.338387    0.999382
      6          6           0        3.915770    1.200983    1.644229
      7          1           0        5.901804    2.044522    1.664875
      8          1           0        6.641020    0.808619   -0.362818
      9          1           0        5.053357   -0.740773   -1.528492
     10          1           0        2.012246    0.187003    1.354586
     11          1           0        3.589989    1.739422    2.529664
     12          7           0        2.533664   -1.255948   -0.825793
     13          8           0        1.403166   -1.370397   -0.357271
     14          8           0        2.949230   -1.842067   -1.822993
     15          6           0       -4.037612   -2.106930    0.980886
     16          6           0       -5.106180   -1.225236    0.787758
     17          6           0       -4.887866    0.049359    0.256443
     18          6           0       -3.582296    0.411020   -0.072159
     19          6           0       -2.496897   -0.444890    0.108445
     20          6           0       -2.738671   -1.714635    0.641213
     21          1           0       -4.216316   -3.095183    1.394189
     22          1           0       -6.116009   -1.527197    1.050646
     23          1           0       -5.696799    0.751830    0.096506
     24          1           0       -1.501362   -0.115429   -0.163187
     25          1           0       -1.906887   -2.397285    0.790105
     26          7           0       -3.338760    1.757809   -0.635407
     27          8           0       -2.179169    2.052413   -0.916824
     28          8           0       -4.312077    2.493317   -0.784799
 ---------------------------------------------------------------------

 SCF Done:  E(RHF) =  -868.340161722     A.U. after   16 cycles
 E2 =    -0.2598380727D+01 EUMP2 =    -0.87093854244863D+03

 The electronic state is 1-A.
 Alpha  occ. eigenvalues --  -20.61294 -20.61222 -20.60210 -20.60203 -15.86299
 Alpha  occ. eigenvalues --  -15.85254 -11.31397 -11.30442 -11.27952 -11.27930
 Alpha  occ. eigenvalues --  -11.27636 -11.27065 -11.26900 -11.26889 -11.26849
 Alpha  occ. eigenvalues --  -11.26749 -11.26070 -11.25859  -1.60310  -1.59288
 Alpha  occ. eigenvalues --   -1.39879  -1.38845  -1.19545  -1.18609  -1.08988
 Alpha  occ. eigenvalues --   -1.08052  -1.04914  -1.03959  -0.95870  -0.94906
 Alpha  occ. eigenvalues --   -0.86327  -0.85380  -0.82724  -0.81723  -0.77797
 Alpha  occ. eigenvalues --   -0.76780  -0.72545  -0.71603  -0.71478  -0.70663
 Alpha  occ. eigenvalues --   -0.70609  -0.69721  -0.65211  -0.64920  -0.64254
 Alpha  occ. eigenvalues --   -0.63949  -0.62272  -0.61275  -0.55429  -0.54514
 Alpha  occ. eigenvalues --   -0.53248  -0.53009  -0.52343  -0.52028  -0.49294
 Alpha  occ. eigenvalues --   -0.49246  -0.48238  -0.48221  -0.45336  -0.44288
 Alpha  occ. eigenvalues --   -0.37507  -0.36626  -0.36499  -0.35566
 Alpha virt. eigenvalues --    0.04713   0.05707   0.11157   0.12071   0.16241
 Alpha virt. eigenvalues --    0.17227   0.21116   0.22257   0.26832   0.27525
 Alpha virt. eigenvalues --    0.28523   0.29212   0.30936   0.31751   0.32174

 Mulliken charges:
               1
     1  C   -0.169777
     2  C   -0.218395
     3  C   -0.170213
     4  C    0.158798
     5  C   -0.168202
     6  C   -0.217863
     7  H    0.227002
     8  H    0.224478
     9  H    0.275957
    10  H    0.272642
    11  H    0.225190
    12  N    0.492533
    13  O   -0.474067
    14  O   -0.455620
    15  C   -0.171531
    16  C   -0.219338
    17  C   -0.172195
    18  C    0.157706
    19  C   -0.175891
    20  C   -0.222109
    21  H    0.223486
    22  H    0.220298
    23  H    0.272610
    24  H    0.287657
    25  H    0.233782
    26  N    0.487940
    27  O   -0.461342
    28  O   -0.463537
 Sum of Mulliken charges =  -0.00000

 Dipole moment (field-independent basis, Debye):
    X=              2.8839    Y=             -1.5595    Z=              4.3914  Tot=              5.4803
 Quadrupole moment (field-independent basis, Debye-Ang):
   XX=            -69.1600   YY=           -111.8906   ZZ=           -104.6541
   XY=             25.4425   XZ=             -2.0231   YZ=              1.0328

 Normal termination of Gaussian 16 at Wed May  5 19:19:37 2021.
