 Gaussian 16, Revision A.03,
 Gaussian 16:  EM64L-G16RevA.03 25-Dec-2016

 -------------
 #p 6-31g* mp2
 -------------

 ------------------------------------------------------
 Input file generated by CHIRIPA (05-May-2021 14:51:11)
 ------------------------------------------------------
 Symbolic Z-matrix:
 Charge =  0 Multiplicity = 1

                         Standard orientation:
 ---------------------------------------------------------------------
 Center     Atomic      Atomic             Coordinates (Angstroms)
 Number     Number       Type             X           Y           Z
 ---------------------------------------------------------------------
      1          6           0        3.232467    0.192752    0.033089
      2          6           0        3.577200   -0.859886   -1.020997
      3          6           0        4.640632   -1.849018   -0.542954
      4          1           0        4.145088    0.738435    0.309312
      5          1           0        2.882124   -0.311798    0.944178
      6          1           0        3.925477   -0.353450   -1.930306
      7          1           0        2.663618   -1.402998   -1.294883
      8          1           0        4.298400   -2.380424    0.350961
      9          1           0        5.567428   -1.324913   -0.288072
     10          1           0        4.871886   -2.592641   -1.311984
     11          6           0        2.170800    1.188803   -0.430021
     12          6           0        1.826067    2.241442    0.624065
     13          6           0        0.762635    3.230573    0.146022
     14          1           0        2.521143    1.693353   -1.341111
     15          1           0        1.258180    0.643120   -0.706244
     16          1           0        2.739649    2.784554    0.897950
     17          1           0        1.477790    1.735006    1.533373
     18          1           0       -0.164161    2.706468   -0.108861
     19          1           0        1.104867    3.761979   -0.747894
     20          1           0        0.531381    3.974196    0.915051
     21          6           0       -3.273886   -0.729521   -0.305973
     22          6           0       -4.411918    0.247291   -0.008140
     23          6           0       -5.549312    0.157892   -1.026049
     24          1           0       -2.882863   -0.530880   -1.313241
     25          1           0       -3.673281   -1.753055   -0.321954
     26          1           0       -4.010238    1.268558    0.008644
     27          1           0       -4.800150    0.046426    0.998611
     28          1           0       -5.977232   -0.849748   -1.038059
     29          1           0       -5.182832    0.379327   -2.033650
     30          1           0       -6.352132    0.864674   -0.794099
     31          6           0       -2.129382   -0.652034    0.702906
     32          6           0       -0.991348   -1.628846    0.405072
     33          6           0        0.146045   -1.539448    1.422982
     34          1           0       -1.729985    0.371500    0.718887
     35          1           0       -2.520405   -0.850675    1.710174
     36          1           0       -0.603117   -1.427982   -0.601678
     37          1           0       -1.393029   -2.650113    0.388288
     38          1           0       -0.220435   -1.760882    2.430583
     39          1           0        0.573965   -0.531807    1.434991
     40          1           0        0.948865   -2.246229    1.191032
 ---------------------------------------------------------------------

 SCF Done:  E(RHF) =  -470.731862782     A.U. after   11 cycles
 E2 =    -0.1585615434D+01 EUMP2 =    -0.47231747821616D+03

 The electronic state is 1-A.
 Alpha  occ. eigenvalues --  -11.21691 -11.21655 -11.21634 -11.21571 -11.21474
 Alpha  occ. eigenvalues --  -11.21407 -11.21386 -11.21266 -11.21141 -11.21104
 Alpha  occ. eigenvalues --  -11.21091 -11.21056  -1.08540  -1.08397  -1.03595
 Alpha  occ. eigenvalues --   -1.03543  -0.96106  -0.95932  -0.87068  -0.87008
 Alpha  occ. eigenvalues --   -0.79675  -0.79608  -0.78335  -0.78206  -0.65581
 Alpha  occ. eigenvalues --   -0.64775  -0.61103  -0.60825  -0.59387  -0.59350
 Alpha  occ. eigenvalues --   -0.57649  -0.57598  -0.55693  -0.54910  -0.52744
 Alpha  occ. eigenvalues --   -0.52706  -0.52464  -0.52391  -0.50009  -0.49901
 Alpha  occ. eigenvalues --   -0.48040  -0.47863  -0.46788  -0.46656  -0.45963
 Alpha  occ. eigenvalues --   -0.45840  -0.45639  -0.45448  -0.43823  -0.43781
 Alpha virt. eigenvalues --    0.19016   0.22050   0.23520   0.24661   0.25899
 Alpha virt. eigenvalues --    0.25965   0.26409   0.28090   0.28572   0.30004
 Alpha virt. eigenvalues --    0.30253   0.31421   0.31767   0.31887   0.32347

 Mulliken charges:
               1
     1  C   -0.301106
     2  C   -0.300834
     3  C   -0.476080
     4  H    0.149171
     5  H    0.155336
     6  H    0.151703
     7  H    0.152636
     8  H    0.155171
     9  H    0.155315
    10  H    0.160100
    11  C   -0.305137
    12  C   -0.303291
    13  C   -0.477684
    14  H    0.150916
    15  H    0.153334
    16  H    0.153136
    17  H    0.153711
    18  H    0.155816
    19  H    0.155750
    20  H    0.160790
    21  C   -0.298261
    22  C   -0.299768
    23  C   -0.475763
    24  H    0.149728
    25  H    0.149831
    26  H    0.152076
    27  H    0.152062
    28  H    0.155208
    29  H    0.155340
    30  H    0.160459
    31  C   -0.302206
    32  C   -0.301661
    33  C   -0.484884
    34  H    0.151957
    35  H    0.150326
    36  H    0.152654
    37  H    0.152771
    38  H    0.155489
    39  H    0.165016
    40  H    0.160872
 Sum of Mulliken charges =  -0.00000

 Dipole moment (field-independent basis, Debye):
    X=             -0.0145    Y=              0.0018    Z=              0.0201  Tot=              0.0249
 Quadrupole moment (field-independent basis, Debye-Ang):
   XX=            -85.4076   YY=            -84.5402   ZZ=            -84.7800
   XY=              1.4521   XZ=             -1.2280   YZ=             -0.4517

 Normal termination of Gaussian 16 at Thu May  6 02:17:11 2021.
