 Gaussian 16, Revision A.03,
 Gaussian 16:  EM64L-G16RevA.03 25-Dec-2016

 -------------
 #p 6-31g* mp2
 -------------

 ------------------------------------------------------
 Input file generated by CHIRIPA (05-May-2021 14:53:15)
 ------------------------------------------------------
 Symbolic Z-matrix:
 Charge =  0 Multiplicity = 1

                         Standard orientation:
 ---------------------------------------------------------------------
 Center     Atomic      Atomic             Coordinates (Angstroms)
 Number     Number       Type             X           Y           Z
 ---------------------------------------------------------------------
      1          6           0        5.203078   -0.328766   -0.319754
      2          6           0        6.571249   -0.594522    0.309108
      3          6           0        7.351937   -1.691412   -0.415566
      4          1           0        4.618741   -1.259084   -0.317726
      5          1           0        5.339833   -0.047847   -1.373214
      6          1           0        6.432043   -0.873512    1.361440
      7          1           0        7.152325    0.336583    0.305757
      8          1           0        7.520111   -1.417317   -1.462079
      9          1           0        6.795737   -2.634287   -0.400398
     10          1           0        8.326848   -1.865085    0.050531
     11          6           0        4.410644    0.765254    0.393616
     12          6           0        3.042473    1.031009   -0.235246
     13          6           0        2.261785    2.127899    0.489428
     14          1           0        4.273889    0.484334    1.447076
     15          1           0        4.994980    1.695572    0.391588
     16          1           0        2.461397    0.099905   -0.231895
     17          1           0        3.181678    1.309999   -1.287578
     18          1           0        2.817985    3.070774    0.474260
     19          1           0        2.093611    1.853804    1.535941
     20          1           0        1.286874    2.301572    0.023331
     21          6           0       -1.266225    0.240034   -0.068766
     22          6           0       -2.152762    1.286399   -0.343895
     23          6           0       -3.533895    1.070424   -0.324615
     24          6           0       -3.996000   -0.210192   -0.024993
     25          6           0       -3.138106   -1.273098    0.253461
     26          6           0       -1.760855   -1.034129    0.228509
     27          1           0       -0.194836    0.416739   -0.085946
     28          1           0       -1.771466    2.276960   -0.575081
     29          1           0       -4.242619    1.862495   -0.533783
     30          1           0       -3.548126   -2.249686    0.480568
     31          1           0       -1.074707   -1.848635    0.442579
     32          7           0       -5.456090   -0.451007   -0.001581
     33          8           0       -5.837939   -1.588393    0.265215
     34          8           0       -6.191011    0.502189   -0.250468
 ---------------------------------------------------------------------

 SCF Done:  E(RHF) =  -669.535249990     A.U. after   15 cycles
 E2 =    -0.2091380109D+01 EUMP2 =    -0.67162663009851D+03

 The electronic state is 1-A.
 Alpha  occ. eigenvalues --  -20.60710 -20.60705 -15.85765 -11.31114 -11.27693
 Alpha  occ. eigenvalues --  -11.27689 -11.27366 -11.26694 -11.26683 -11.22866
 Alpha  occ. eigenvalues --  -11.22433 -11.22338 -11.22237 -11.22145 -11.21600
 Alpha  occ. eigenvalues --   -1.59787  -1.39341  -1.19287  -1.09349  -1.08679
 Alpha  occ. eigenvalues --   -1.04694  -1.04475  -0.96919  -0.95516  -0.87928
 Alpha  occ. eigenvalues --   -0.86090  -0.82356  -0.80551  -0.79104  -0.77408
 Alpha  occ. eigenvalues --   -0.71983  -0.71110  -0.70429  -0.65973  -0.64940
 Alpha  occ. eigenvalues --   -0.64714  -0.62049  -0.61864  -0.60363  -0.58536
 Alpha  occ. eigenvalues --   -0.56210  -0.55114  -0.53606  -0.53299  -0.53017
 Alpha  occ. eigenvalues --   -0.52784  -0.50836  -0.48862  -0.48740  -0.48737
 Alpha  occ. eigenvalues --   -0.47582  -0.46654  -0.46542  -0.44750  -0.44712
 Alpha  occ. eigenvalues --   -0.37254  -0.36303
 Alpha virt. eigenvalues --    0.05133   0.11349   0.16621   0.19152   0.22383
 Alpha virt. eigenvalues --    0.23930   0.25050   0.25892   0.26377   0.27127
 Alpha virt. eigenvalues --    0.29116   0.29742   0.30600   0.31344   0.31664

 Mulliken charges:
               1
     1  C   -0.298861
     2  C   -0.300398
     3  C   -0.476164
     4  H    0.148939
     5  H    0.151152
     6  H    0.152749
     7  H    0.153344
     8  H    0.156121
     9  H    0.155464
    10  H    0.162304
    11  C   -0.298698
    12  C   -0.303715
    13  C   -0.480815
    14  H    0.151170
    15  H    0.153120
    16  H    0.145278
    17  H    0.156529
    18  H    0.163820
    19  H    0.159713
    20  H    0.150107
    21  C   -0.178514
    22  C   -0.222251
    23  C   -0.170559
    24  C    0.157924
    25  C   -0.170562
    26  C   -0.221101
    27  H    0.240611
    28  H    0.223168
    29  H    0.275351
    30  H    0.275244
    31  H    0.222822
    32  N    0.488038
    33  O   -0.460680
    34  O   -0.460650
 Sum of Mulliken charges =  -0.00000

 Dipole moment (field-independent basis, Debye):
    X=              5.4717    Y=              0.8908    Z=             -0.0585  Tot=              5.5440
 Quadrupole moment (field-independent basis, Debye-Ang):
   XX=           -135.4906   YY=            -90.5064   ZZ=            -95.0866
   XY=             -4.3889   XZ=              0.4980   YZ=             -2.0485

 Normal termination of Gaussian 16 at Thu May  6 04:16:16 2021.
