 Gaussian 16, Revision A.03,
 Gaussian 16:  EM64L-G16RevA.03 25-Dec-2016

 -------------
 #p 6-31g* mp2
 -------------

 ------------------------------------------------------
 Input file generated by CHIRIPA (05-May-2021 14:53:13)
 ------------------------------------------------------
 Symbolic Z-matrix:
 Charge =  0 Multiplicity = 1

                         Standard orientation:
 ---------------------------------------------------------------------
 Center     Atomic      Atomic             Coordinates (Angstroms)
 Number     Number       Type             X           Y           Z
 ---------------------------------------------------------------------
      1          6           0       -3.940720    0.051955   -0.437992
      2          6           0       -5.130970    0.848913    0.096938
      3          6           0       -5.642066    1.889145   -0.900304
      4          1           0       -3.128609    0.745852   -0.694756
      5          1           0       -4.232665   -0.447013   -1.372440
      6          1           0       -4.837286    1.345113    1.030828
      7          1           0       -5.940272    0.153022    0.352638
      8          1           0       -5.961753    1.407163   -1.829871
      9          1           0       -4.852500    2.606027   -1.147827
     10          1           0       -6.492988    2.447308   -0.497505
     11          6           0       -3.418490   -0.991928    0.547559
     12          6           0       -2.228240   -1.788886    0.012629
     13          6           0       -1.717144   -2.829118    1.009871
     14          1           0       -3.126545   -0.492960    1.482007
     15          1           0       -4.230601   -1.685825    0.804323
     16          1           0       -1.418938   -1.092995   -0.243071
     17          1           0       -2.521924   -2.285086   -0.921261
     18          1           0       -2.506710   -3.546000    1.257394
     19          1           0       -1.397457   -2.347136    1.939438
     20          1           0       -0.866222   -3.387281    0.607072
     21          6           0        2.120552    2.692102    0.583237
     22          6           0        3.479366    2.426947    0.383640
     23          6           0        3.908614    1.142505    0.036505
     24          6           0        2.947598    0.142412   -0.103323
     25          6           0        1.586659    0.375237    0.088840
     26          6           0        1.180194    1.667207    0.435462
     27          1           0        1.795950    3.692810    0.852701
     28          1           0        4.211891    3.220948    0.497720
     29          1           0        4.954281    0.909564   -0.123931
     30          1           0        0.879942   -0.436763   -0.032098
     31          1           0        0.124262    1.870229    0.589852
     32          7           0        3.389966   -1.221354   -0.470547
     33          8           0        2.523470   -2.085131   -0.587642
     34          8           0        4.594813   -1.400674   -0.634329
 ---------------------------------------------------------------------

 SCF Done:  E(RHF) =  -669.535550775     A.U. after   15 cycles
 E2 =    -0.2091501265D+01 EUMP2 =    -0.67162705204045D+03

 The electronic state is 1-A.
 Alpha  occ. eigenvalues --  -20.60772 -20.60766 -15.85823 -11.31178 -11.27756
 Alpha  occ. eigenvalues --  -11.27732 -11.27506 -11.26775 -11.26765 -11.22019
 Alpha  occ. eigenvalues --  -11.21983 -11.21848 -11.21763 -11.21457 -11.21089
 Alpha  occ. eigenvalues --   -1.59844  -1.39398  -1.19357  -1.08833  -1.08755
 Alpha  occ. eigenvalues --   -1.04763  -1.03862  -0.96280  -0.95590  -0.87290
 Alpha  occ. eigenvalues --   -0.86162  -0.82424  -0.79931  -0.78655  -0.77467
 Alpha  occ. eigenvalues --   -0.72044  -0.71166  -0.70479  -0.65501  -0.65010
 Alpha  occ. eigenvalues --   -0.64771  -0.62170  -0.61225  -0.59634  -0.57881
 Alpha  occ. eigenvalues --   -0.55593  -0.55259  -0.53091  -0.52936  -0.52852
 Alpha  occ. eigenvalues --   -0.52688  -0.50237  -0.48800  -0.48799  -0.48222
 Alpha  occ. eigenvalues --   -0.46990  -0.46191  -0.46121  -0.44805  -0.44110
 Alpha  occ. eigenvalues --   -0.37342  -0.36364
 Alpha virt. eigenvalues --    0.05064   0.11285   0.16551   0.19133   0.22830
 Alpha virt. eigenvalues --    0.23575   0.25307   0.26598   0.26886   0.28287
 Alpha virt. eigenvalues --    0.29380   0.30956   0.31331   0.31521   0.32140

 Mulliken charges:
               1
     1  C   -0.297383
     2  C   -0.299762
     3  C   -0.475553
     4  H    0.142853
     5  H    0.152929
     6  H    0.150005
     7  H    0.154267
     8  H    0.157080
     9  H    0.152986
    10  H    0.161307
    11  C   -0.298402
    12  C   -0.302098
    13  C   -0.479740
    14  H    0.146263
    15  H    0.153114
    16  H    0.141027
    17  H    0.157828
    18  H    0.156354
    19  H    0.152346
    20  H    0.174956
    21  C   -0.170593
    22  C   -0.219029
    23  C   -0.170043
    24  C    0.159966
    25  C   -0.182111
    26  C   -0.222188
    27  H    0.225575
    28  H    0.223488
    29  H    0.275618
    30  H    0.289525
    31  H    0.223029
    32  N    0.487272
    33  O   -0.460581
    34  O   -0.460305
 Sum of Mulliken charges =  -0.00000

 Dipole moment (field-independent basis, Debye):
    X=             -1.6390    Y=              4.6479    Z=              1.2741  Tot=              5.0904
 Quadrupole moment (field-independent basis, Debye-Ang):
   XX=            -98.8167   YY=            -93.0625   ZZ=            -96.1818
   XY=             16.9447   XZ=              3.9748   YZ=              0.4699

 Normal termination of Gaussian 16 at Thu May  6 04:11:51 2021.
