 Gaussian 16, Revision A.03,
 Gaussian 16:  EM64L-G16RevA.03 25-Dec-2016

 -------------
 #p 6-31g* mp2
 -------------

 ------------------------------------------------------
 Input file generated by CHIRIPA (05-May-2021 14:53:16)
 ------------------------------------------------------
 Symbolic Z-matrix:
 Charge =  0 Multiplicity = 1

                         Standard orientation:
 ---------------------------------------------------------------------
 Center     Atomic      Atomic             Coordinates (Angstroms)
 Number     Number       Type             X           Y           Z
 ---------------------------------------------------------------------
      1          6           0       -3.161141   -0.207827    0.945672
      2          6           0       -2.210882   -1.404867    0.991382
      3          6           0       -1.571915   -1.600224    2.366646
      4          1           0       -2.610842    0.700080    1.228196
      5          1           0       -3.947910   -0.344076    1.700539
      6          1           0       -1.426929   -1.267062    0.235708
      7          1           0       -2.763461   -2.310000    0.708530
      8          1           0       -2.340648   -1.762946    3.128992
      9          1           0       -0.996522   -0.714082    2.653484
     10          1           0       -0.896400   -2.461291    2.376816
     11          6           0       -3.807739    0.000465   -0.422631
     12          6           0       -4.757998    1.197505   -0.468342
     13          6           0       -5.396965    1.392862   -1.843606
     14          1           0       -3.020970    0.136714   -1.177499
     15          1           0       -4.358038   -0.907442   -0.705156
     16          1           0       -4.205419    2.102638   -0.185490
     17          1           0       -5.541951    1.059700    0.287332
     18          1           0       -5.972358    0.506720   -2.130444
     19          1           0       -4.628231    1.555584   -2.605952
     20          1           0       -6.072480    2.253929   -1.853776
     21          6           0        3.361640    2.276921    0.861048
     22          6           0        4.191751    1.699912   -0.105645
     23          6           0        3.847441    0.483504   -0.702596
     24          6           0        2.660402   -0.131293   -0.307308
     25          6           0        1.812451    0.418418    0.652947
     26          6           0        2.176728    1.635464    1.236596
     27          1           0        3.636864    3.222105    1.319608
     28          1           0        5.112569    2.195829   -0.399255
     29          1           0        4.471652    0.014585   -1.453524
     30          1           0        0.900852   -0.099622    0.925048
     31          1           0        1.530121    2.081249    1.987076
     32          7           0        2.285326   -1.419387   -0.932232
     33          8           0        1.234211   -1.941028   -0.566606
     34          8           0        3.049561   -1.882966   -1.775842
 ---------------------------------------------------------------------

 SCF Done:  E(RHF) =  -669.535795549     A.U. after   15 cycles
 E2 =    -0.2092188952D+01 EUMP2 =    -0.67162798450123D+03

 The electronic state is 1-A.
 Alpha  occ. eigenvalues --  -20.60897 -20.60885 -15.85930 -11.31241 -11.27812
 Alpha  occ. eigenvalues --  -11.27783 -11.27551 -11.26819 -11.26807 -11.21500
 Alpha  occ. eigenvalues --  -11.21257 -11.21171 -11.21128 -11.20970 -11.20957
 Alpha  occ. eigenvalues --   -1.59959  -1.39515  -1.19414  -1.08821  -1.08246
 Alpha  occ. eigenvalues --   -1.04811  -1.03347  -0.95843  -0.95654  -0.86850
 Alpha  occ. eigenvalues --   -0.86212  -0.82501  -0.79387  -0.78047  -0.77544
 Alpha  occ. eigenvalues --   -0.72159  -0.71273  -0.70531  -0.65081  -0.64987
 Alpha  occ. eigenvalues --   -0.64732  -0.62206  -0.60709  -0.59163  -0.57401
 Alpha  occ. eigenvalues --   -0.55369  -0.55116  -0.53143  -0.52885  -0.52498
 Alpha  occ. eigenvalues --   -0.52245  -0.49814  -0.48928  -0.48903  -0.47698
 Alpha  occ. eigenvalues --   -0.46419  -0.45605  -0.45507  -0.44874  -0.43591
 Alpha  occ. eigenvalues --   -0.37397  -0.36411
 Alpha virt. eigenvalues --    0.04955   0.11230   0.16452   0.19810   0.22988
 Alpha virt. eigenvalues --    0.23965   0.26393   0.27362   0.27716   0.28003
 Alpha virt. eigenvalues --    0.29424   0.30874   0.31639   0.31898   0.32145

 Mulliken charges:
               1
     1  C   -0.296930
     2  C   -0.312438
     3  C   -0.476867
     4  H    0.140140
     5  H    0.148404
     6  H    0.172937
     7  H    0.155787
     8  H    0.155293
     9  H    0.137944
    10  H    0.170984
    11  C   -0.298237
    12  C   -0.299108
    13  C   -0.475608
    14  H    0.151711
    15  H    0.151826
    16  H    0.148945
    17  H    0.151368
    18  H    0.156202
    19  H    0.155634
    20  H    0.159072
    21  C   -0.170214
    22  C   -0.219103
    23  C   -0.169946
    24  C    0.156093
    25  C   -0.177600
    26  C   -0.221877
    27  H    0.225873
    28  H    0.223653
    29  H    0.275645
    30  H    0.289832
    31  H    0.223844
    32  N    0.490446
    33  O   -0.464456
    34  O   -0.459248
 Sum of Mulliken charges =  -0.00000

 Dipole moment (field-independent basis, Debye):
    X=              1.3935    Y=              4.3746    Z=              2.0757  Tot=              5.0386
 Quadrupole moment (field-independent basis, Debye-Ang):
   XX=            -84.2168   YY=            -96.0411   ZZ=            -96.2475
   XY=             13.2708   XZ=              2.3218   YZ=             -1.6648

 Normal termination of Gaussian 16 at Thu May  6 02:43:47 2021.
