 Gaussian 16, Revision A.03,
 Gaussian 16:  EM64L-G16RevA.03 25-Dec-2016

 -------------
 #p 6-31g* mp2
 -------------

 ------------------------------------------------------
 Input file generated by CHIRIPA (05-May-2021 14:53:17)
 ------------------------------------------------------
 Symbolic Z-matrix:
 Charge =  0 Multiplicity = 1

                         Standard orientation:
 ---------------------------------------------------------------------
 Center     Atomic      Atomic             Coordinates (Angstroms)
 Number     Number       Type             X           Y           Z
 ---------------------------------------------------------------------
      1          6           0       -3.436031   -0.099937    0.154933
      2          6           0       -4.031306   -0.869613   -1.024572
      3          6           0       -4.816005   -2.106944   -0.587476
      4          1           0       -2.779153   -0.769197    0.727250
      5          1           0       -4.245861    0.199499    0.834571
      6          1           0       -3.220741   -1.166310   -1.702489
      7          1           0       -4.686693   -0.198389   -1.594258
      8          1           0       -5.643909   -1.825263    0.071183
      9          1           0       -4.169627   -2.798683   -0.037663
     10          1           0       -5.232788   -2.642136   -1.446383
     11          6           0       -2.648647    1.139653   -0.265987
     12          6           0       -2.053372    1.909329    0.913518
     13          6           0       -1.268673    3.146660    0.476421
     14          1           0       -1.838817    0.840218   -0.945625
     15          1           0       -3.305525    1.808913   -0.838304
     16          1           0       -1.397985    1.238105    1.483204
     17          1           0       -2.863937    2.206026    1.591435
     18          1           0       -1.915051    3.838399   -0.073392
     19          1           0       -0.440769    2.864979   -0.182238
     20          1           0       -0.851890    3.681852    1.335328
     21          6           0        1.773033   -2.707838    0.882150
     22          6           0        1.260130   -1.573537    1.519966
     23          6           0        1.587940   -0.293287    1.063843
     24          6           0        2.435200   -0.183620   -0.037708
     25          6           0        2.962264   -1.294554   -0.694457
     26          6           0        2.620969   -2.564980   -0.221081
     27          1           0        1.513144   -3.698552    1.243178
     28          1           0        0.601386   -1.681462    2.376969
     29          1           0        1.205027    0.601793    1.538845
     30          1           0        3.616554   -1.155132   -1.546445
     31          1           0        3.020780   -3.444118   -0.718385
     32          7           0        2.789377    1.166524   -0.529718
     33          8           0        3.537820    1.236263   -1.502140
     34          8           0        2.311830    2.129461    0.066384
 ---------------------------------------------------------------------

 SCF Done:  E(RHF) =  -669.535949098     A.U. after   15 cycles
 E2 =    -0.2092358537D+01 EUMP2 =    -0.67162830763458D+03

 The electronic state is 1-A.
 Alpha  occ. eigenvalues --  -20.60933 -20.60927 -15.85958 -11.31293 -11.27861
 Alpha  occ. eigenvalues --  -11.27849 -11.27597 -11.26871 -11.26861 -11.21727
 Alpha  occ. eigenvalues --  -11.21516 -11.21502 -11.21316 -11.21276 -11.20379
 Alpha  occ. eigenvalues --   -1.59995  -1.39550  -1.19466  -1.08867  -1.08437
 Alpha  occ. eigenvalues --   -1.04863  -1.03462  -0.95875  -0.95697  -0.86872
 Alpha  occ. eigenvalues --   -0.86260  -0.82539  -0.79537  -0.78255  -0.77592
 Alpha  occ. eigenvalues --   -0.72184  -0.71312  -0.70572  -0.65121  -0.65101
 Alpha  occ. eigenvalues --   -0.64845  -0.62228  -0.60835  -0.59274  -0.57492
 Alpha  occ. eigenvalues --   -0.55370  -0.55137  -0.53193  -0.52946  -0.52536
 Alpha  occ. eigenvalues --   -0.52285  -0.49813  -0.48941  -0.48926  -0.47843
 Alpha  occ. eigenvalues --   -0.46601  -0.45806  -0.45730  -0.44858  -0.43719
 Alpha  occ. eigenvalues --   -0.37443  -0.36455
 Alpha virt. eigenvalues --    0.04878   0.11143   0.16328   0.20283   0.22935
 Alpha virt. eigenvalues --    0.23942   0.25822   0.27121   0.27500   0.28192
 Alpha virt. eigenvalues --    0.29004   0.30999   0.31447   0.31807   0.32366

 Mulliken charges:
               1
     1  C   -0.296761
     2  C   -0.299675
     3  C   -0.475198
     4  H    0.143357
     5  H    0.149426
     6  H    0.152221
     7  H    0.153580
     8  H    0.155557
     9  H    0.151760
    10  H    0.160643
    11  C   -0.297970
    12  C   -0.299542
    13  C   -0.481024
    14  H    0.150625
    15  H    0.151663
    16  H    0.138185
    17  H    0.150546
    18  H    0.152510
    19  H    0.174607
    20  H    0.160492
    21  C   -0.170590
    22  C   -0.219744
    23  C   -0.173324
    24  C    0.157769
    25  C   -0.170709
    26  C   -0.218569
    27  H    0.226147
    28  H    0.224309
    29  H    0.280171
    30  H    0.275870
    31  H    0.223915
    32  N    0.487810
    33  O   -0.458957
    34  O   -0.459097
 Sum of Mulliken charges =  -0.00000

 Dipole moment (field-independent basis, Debye):
    X=             -1.1052    Y=             -4.6852    Z=              1.6229  Tot=              5.0800
 Quadrupole moment (field-independent basis, Debye-Ang):
   XX=            -99.5562   YY=            -92.9303   ZZ=            -92.8119
   XY=            -13.8518   XZ=              2.1751   YZ=              1.5520

 Normal termination of Gaussian 16 at Thu May  6 01:13:21 2021.
