 Gaussian 16, Revision A.03,
 Gaussian 16:  EM64L-G16RevA.03 25-Dec-2016

 -------------
 #p 6-31g* mp2
 -------------

 ------------------------------------------------------
 Input file generated by CHIRIPA (05-May-2021 14:53:16)
 ------------------------------------------------------
 Symbolic Z-matrix:
 Charge =  0 Multiplicity = 1

                         Standard orientation:
 ---------------------------------------------------------------------
 Center     Atomic      Atomic             Coordinates (Angstroms)
 Number     Number       Type             X           Y           Z
 ---------------------------------------------------------------------
      1          6           0        4.244755    0.102352    0.264009
      2          6           0        4.868182   -0.590689   -0.948021
      3          6           0        6.036764   -1.502021   -0.571613
      4          1           0        5.017052    0.688491    0.780673
      5          1           0        3.901551   -0.659906    0.977148
      6          1           0        5.208860    0.172626   -1.659291
      7          1           0        4.094267   -1.175093   -1.461970
      8          1           0        5.707856   -2.284497    0.119873
      9          1           0        6.828782   -0.929120   -0.078568
     10          1           0        6.467501   -1.987293   -1.452997
     11          6           0        3.075250    1.016823   -0.096173
     12          6           0        2.451823    1.709864    1.115857
     13          6           0        1.283241    2.621196    0.739448
     14          1           0        3.418454    1.779081   -0.809313
     15          1           0        2.302952    0.430684   -0.612838
     16          1           0        3.225738    2.294268    1.629806
     17          1           0        2.111145    0.946549    1.827126
     18          1           0        0.491223    2.048295    0.246404
     19          1           0        1.612149    3.403672    0.047962
     20          1           0        0.852504    3.106468    1.620832
     21          6           0       -4.764576    1.115322   -0.636421
     22          6           0       -5.025958   -0.127606   -0.050480
     23          6           0       -3.978143   -0.995872    0.270063
     24          6           0       -2.675190   -0.587267   -0.010372
     25          6           0       -2.382571    0.644635   -0.593537
     26          6           0       -3.446042    1.496804   -0.905605
     27          1           0       -5.584624    1.783561   -0.882135
     28          1           0       -6.048956   -0.426507    0.159704
     29          1           0       -4.152086   -1.963805    0.724229
     30          1           0       -1.352335    0.914795   -0.791130
     31          1           0       -3.240072    2.461482   -1.360598
     32          7           0       -1.557628   -1.497942    0.324486
     33          8           0       -0.418556   -1.114490    0.067352
     34          8           0       -1.841916   -2.577935    0.837742
 ---------------------------------------------------------------------

 SCF Done:  E(RHF) =  -669.535968670     A.U. after   15 cycles
 E2 =    -0.2091760535D+01 EUMP2 =    -0.67162772920542D+03

 The electronic state is 1-A.
 Alpha  occ. eigenvalues --  -20.60932 -20.60921 -15.85970 -11.31268 -11.27830
 Alpha  occ. eigenvalues --  -11.27818 -11.27562 -11.26837 -11.26822 -11.20982
 Alpha  occ. eigenvalues --  -11.20875 -11.20855 -11.20605 -11.20541 -11.20430
 Alpha  occ. eigenvalues --   -1.59993  -1.39550  -1.19436  -1.08843  -1.07702
 Alpha  occ. eigenvalues --   -1.04830  -1.02923  -0.95691  -0.95399  -0.86440
 Alpha  occ. eigenvalues --   -0.86225  -0.82523  -0.78993  -0.77616  -0.77472
 Alpha  occ. eigenvalues --   -0.72196  -0.71306  -0.70555  -0.65095  -0.64850
 Alpha  occ. eigenvalues --   -0.64288  -0.62209  -0.60291  -0.58772  -0.57015
 Alpha  occ. eigenvalues --   -0.55352  -0.54681  -0.53160  -0.52932  -0.52134
 Alpha  occ. eigenvalues --   -0.51834  -0.49343  -0.48954  -0.48927  -0.47319
 Alpha  occ. eigenvalues --   -0.45976  -0.45078  -0.44950  -0.44920  -0.43142
 Alpha  occ. eigenvalues --   -0.37413  -0.36424
 Alpha virt. eigenvalues --    0.04923   0.11184   0.16451   0.20593   0.23412
 Alpha virt. eigenvalues --    0.24396   0.26129   0.27470   0.27906   0.28464
 Alpha virt. eigenvalues --    0.29325   0.30634   0.31514   0.32153   0.32536

 Mulliken charges:
               1
     1  C   -0.298440
     2  C   -0.300128
     3  C   -0.475621
     4  H    0.145396
     5  H    0.155832
     6  H    0.148077
     7  H    0.156558
     8  H    0.157185
     9  H    0.152771
    10  H    0.158167
    11  C   -0.303227
    12  C   -0.296849
    13  C   -0.480369
    14  H    0.142686
    15  H    0.164911
    16  H    0.148364
    17  H    0.160643
    18  H    0.152276
    19  H    0.151476
    20  H    0.158277
    21  C   -0.170484
    22  C   -0.218626
    23  C   -0.170430
    24  C    0.156720
    25  C   -0.174381
    26  C   -0.220713
    27  H    0.225990
    28  H    0.223721
    29  H    0.275683
    30  H    0.284363
    31  H    0.224538
    32  N    0.490421
    33  O   -0.465692
    34  O   -0.459093
 Sum of Mulliken charges =  -0.00000

 Dipole moment (field-independent basis, Debye):
    X=             -4.0892    Y=              3.0380    Z=             -1.1440  Tot=              5.2211
 Quadrupole moment (field-independent basis, Debye-Ang):
   XX=            -72.7065   YY=            -96.9800   ZZ=            -94.9083
   XY=             -3.1919   XZ=              1.9466   YZ=             -0.8600

 Normal termination of Gaussian 16 at Thu May  6 20:26:56 2021.
