 Gaussian 16, Revision A.03,
 Gaussian 16:  EM64L-G16RevA.03 25-Dec-2016

 -------------
 #p 6-31g* mp2
 -------------

 ------------------------------------------------------
 Input file generated by CHIRIPA (05-May-2021 14:53:11)
 ------------------------------------------------------
 Symbolic Z-matrix:
 Charge =  0 Multiplicity = 1

                         Standard orientation:
 ---------------------------------------------------------------------
 Center     Atomic      Atomic             Coordinates (Angstroms)
 Number     Number       Type             X           Y           Z
 ---------------------------------------------------------------------
      1          6           0       -3.510077    0.543846   -0.115121
      2          6           0       -2.398240    0.563984   -1.164596
      3          6           0       -1.267486    1.529917   -0.809402
      4          1           0       -3.915277    1.558484    0.000057
      5          1           0       -3.081422    0.266153    0.857780
      6          1           0       -2.829105    0.840208   -2.135508
      7          1           0       -1.995770   -0.450858   -1.277428
      8          1           0       -0.810745    1.253555    0.146429
      9          1           0       -1.648815    2.551956   -0.716527
     10          1           0       -0.483470    1.528419   -1.573062
     11          6           0       -4.647671   -0.417059   -0.456106
     12          6           0       -5.759508   -0.437197    0.593369
     13          6           0       -6.890262   -1.403130    0.238175
     14          1           0       -5.076326   -0.139366   -1.429007
     15          1           0       -4.242471   -1.431698   -0.571284
     16          1           0       -6.161978    0.577645    0.706201
     17          1           0       -5.328643   -0.713421    1.564282
     18          1           0       -6.508933   -2.425169    0.145300
     19          1           0       -7.347003   -1.126768   -0.717656
     20          1           0       -7.674278   -1.401632    1.001835
     21          6           0        1.868089    1.969275    0.965997
     22          6           0        1.723819    0.752163    1.640047
     23          6           0        2.449343   -0.372935    1.237161
     24          6           0        3.314091   -0.244696    0.151318
     25          6           0        3.479616    0.954122   -0.540582
     26          6           0        2.743983    2.066199   -0.120253
     27          1           0        1.300558    2.838219    1.285744
     28          1           0        1.044320    0.673960    2.483974
     29          1           0        2.356876   -1.327377    1.741054
     30          1           0        4.164698    1.001212   -1.378354
     31          1           0        2.858040    3.010146   -0.645610
     32          7           0        4.087522   -1.428894   -0.284433
     33          8           0        4.842844   -1.289858   -1.244013
     34          8           0        3.923770   -2.473684    0.341857
 ---------------------------------------------------------------------

 SCF Done:  E(RHF) =  -669.534635713     A.U. after   15 cycles
 E2 =    -0.2092342295D+01 EUMP2 =    -0.67162697800828D+03

 The electronic state is 1-A.
 Alpha  occ. eigenvalues --  -20.60771 -20.60766 -15.85828 -11.31188 -11.27792
 Alpha  occ. eigenvalues --  -11.27789 -11.27510 -11.26771 -11.26760 -11.21938
 Alpha  occ. eigenvalues --  -11.21879 -11.21776 -11.21657 -11.21464 -11.21284
 Alpha  occ. eigenvalues --   -1.59848  -1.39402  -1.19382  -1.08797  -1.08738
 Alpha  occ. eigenvalues --   -1.04790  -1.03850  -0.96319  -0.95600  -0.87336
 Alpha  occ. eigenvalues --   -0.86187  -0.82438  -0.79924  -0.78576  -0.77483
 Alpha  occ. eigenvalues --   -0.72047  -0.71173  -0.70489  -0.65395  -0.65035
 Alpha  occ. eigenvalues --   -0.64791  -0.62138  -0.61259  -0.59674  -0.57923
 Alpha  occ. eigenvalues --   -0.55672  -0.55282  -0.53384  -0.52881  -0.52849
 Alpha  occ. eigenvalues --   -0.52618  -0.50223  -0.48805  -0.48800  -0.48242
 Alpha  occ. eigenvalues --   -0.46950  -0.46120  -0.46042  -0.44809  -0.44111
 Alpha  occ. eigenvalues --   -0.37244  -0.36383
 Alpha virt. eigenvalues --    0.05054   0.11127   0.16513   0.21100   0.22602
 Alpha virt. eigenvalues --    0.24060   0.26203   0.26889   0.27376   0.27472
 Alpha virt. eigenvalues --    0.28731   0.30614   0.31311   0.31530   0.31795

 Mulliken charges:
               1
     1  C   -0.297771
     2  C   -0.300046
     3  C   -0.478459
     4  H    0.148634
     5  H    0.145886
     6  H    0.152859
     7  H    0.154860
     8  H    0.154468
     9  H    0.149528
    10  H    0.162266
    11  C   -0.298606
    12  C   -0.299662
    13  C   -0.475920
    14  H    0.150595
    15  H    0.151228
    16  H    0.151521
    17  H    0.151004
    18  H    0.156168
    19  H    0.155783
    20  H    0.160637
    21  C   -0.164208
    22  C   -0.220665
    23  C   -0.170722
    24  C    0.158065
    25  C   -0.170865
    26  C   -0.219251
    27  H    0.227268
    28  H    0.223344
    29  H    0.275594
    30  H    0.275753
    31  H    0.223714
    32  N    0.488144
    33  O   -0.460516
    34  O   -0.460628
 Sum of Mulliken charges =  -0.00000

 Dipole moment (field-independent basis, Debye):
    X=             -2.7141    Y=              4.1631    Z=              1.5153  Tot=              5.1955
 Quadrupole moment (field-independent basis, Debye-Ang):
   XX=           -113.0954   YY=            -95.6962   ZZ=            -91.7972
   XY=             15.2572   XZ=              3.1457   YZ=             -2.4113

 Normal termination of Gaussian 16 at Wed May  5 18:27:43 2021.
