 Gaussian 16, Revision A.03,
 Gaussian 16:  EM64L-G16RevA.03 25-Dec-2016

 -------------
 #p 6-31g* mp2
 -------------

 ------------------------------------------------------
 Input file generated by CHIRIPA (05-May-2021 14:53:11)
 ------------------------------------------------------
 Symbolic Z-matrix:
 Charge =  0 Multiplicity = 1

                         Standard orientation:
 ---------------------------------------------------------------------
 Center     Atomic      Atomic             Coordinates (Angstroms)
 Number     Number       Type             X           Y           Z
 ---------------------------------------------------------------------
      1          6           0        3.814545    0.073573    0.142373
      2          6           0        3.750605   -1.158244   -0.761244
      3          6           0        5.051851   -1.961082   -0.759199
      4          1           0        4.644103    0.716283   -0.182746
      5          1           0        4.048748   -0.244283    1.167805
      6          1           0        3.515227   -0.838287   -1.784396
      7          1           0        2.920983   -1.798003   -0.434055
      8          1           0        5.288675   -2.308333    0.251708
      9          1           0        5.886295   -1.343164   -1.106305
     10          1           0        4.984078   -2.837172   -1.411680
     11          6           0        2.521138    0.886441    0.150907
     12          6           0        2.585078    2.118258    1.054523
     13          6           0        1.283832    2.921095    1.052478
     14          1           0        2.286935    1.204296   -0.874526
     15          1           0        1.691580    0.243731    0.476026
     16          1           0        3.414700    2.758016    0.727335
     17          1           0        2.820457    1.798301    2.077675
     18          1           0        0.449388    2.303178    1.399584
     19          1           0        1.047008    3.268347    0.041571
     20          1           0        1.351605    3.797186    1.704959
     21          6           0       -3.000942    1.917599   -1.027330
     22          6           0       -1.693579    1.423779   -1.086202
     23          6           0       -1.390585    0.154891   -0.583543
     24          6           0       -2.424018   -0.596646   -0.026319
     25          6           0       -3.736426   -0.132404    0.046860
     26          6           0       -4.016403    1.139303   -0.461985
     27          1           0       -3.227374    2.904396   -1.420209
     28          1           0       -0.902952    2.026003   -1.524698
     29          1           0       -0.387160   -0.251904   -0.616304
     30          1           0       -4.503411   -0.756022    0.489865
     31          1           0       -5.032629    1.520242   -0.414921
     32          7           0       -2.115436   -1.941453    0.509097
     33          8           0       -3.043750   -2.583895    0.995039
     34          8           0       -0.951099   -2.327607    0.432676
 ---------------------------------------------------------------------

 SCF Done:  E(RHF) =  -669.535547076     A.U. after   15 cycles
 E2 =    -0.2092783611D+01 EUMP2 =    -0.67162833068698D+03

 The electronic state is 1-A.
 Alpha  occ. eigenvalues --  -20.60780 -20.60773 -15.85827 -11.31140 -11.27712
 Alpha  occ. eigenvalues --  -11.27649 -11.27441 -11.26728 -11.26690 -11.21984
 Alpha  occ. eigenvalues --  -11.21820 -11.21585 -11.21535 -11.21475 -11.20939
 Alpha  occ. eigenvalues --   -1.59851  -1.39407  -1.19314  -1.08720  -1.08670
 Alpha  occ. eigenvalues --   -1.04707  -1.03711  -0.96198  -0.95560  -0.87217
 Alpha  occ. eigenvalues --   -0.86104  -0.82396  -0.79812  -0.78518  -0.77414
 Alpha  occ. eigenvalues --   -0.72047  -0.71173  -0.70423  -0.65320  -0.64963
 Alpha  occ. eigenvalues --   -0.64688  -0.62070  -0.61092  -0.59570  -0.57808
 Alpha  occ. eigenvalues --   -0.55509  -0.55199  -0.53102  -0.52948  -0.52836
 Alpha  occ. eigenvalues --   -0.52443  -0.50135  -0.48805  -0.48801  -0.48104
 Alpha  occ. eigenvalues --   -0.46826  -0.46009  -0.45885  -0.44818  -0.43986
 Alpha  occ. eigenvalues --   -0.37296  -0.36272
 Alpha virt. eigenvalues --    0.05047   0.11283   0.16521   0.20088   0.23035
 Alpha virt. eigenvalues --    0.23747   0.25157   0.25608   0.27330   0.28470
 Alpha virt. eigenvalues --    0.29546   0.30742   0.31485   0.31726   0.32323

 Mulliken charges:
               1
     1  C   -0.296940
     2  C   -0.304395
     3  C   -0.475777
     4  H    0.149149
     5  H    0.153374
     6  H    0.148088
     7  H    0.163423
     8  H    0.157085
     9  H    0.153280
    10  H    0.162250
    11  C   -0.307777
    12  C   -0.298773
    13  C   -0.478966
    14  H    0.141153
    15  H    0.157081
    16  H    0.152872
    17  H    0.156606
    18  H    0.160390
    19  H    0.145410
    20  H    0.162599
    21  C   -0.171506
    22  C   -0.218765
    23  C   -0.177319
    24  C    0.157800
    25  C   -0.170887
    26  C   -0.218627
    27  H    0.225530
    28  H    0.225719
    29  H    0.283834
    30  H    0.275251
    31  H    0.223228
    32  N    0.488071
    33  O   -0.460135
    34  O   -0.462325
 Sum of Mulliken charges =  -0.00000

 Dipole moment (field-independent basis, Debye):
    X=             -0.9987    Y=              4.6505    Z=             -1.7805  Tot=              5.0789
 Quadrupole moment (field-independent basis, Debye-Ang):
   XX=            -85.2568   YY=           -101.2131   ZZ=            -94.4420
   XY=             -9.8734   XZ=              3.3861   YZ=              0.4004

 Normal termination of Gaussian 16 at Wed May  5 16:57:16 2021.
