 Gaussian 16, Revision A.03,
 Gaussian 16:  EM64L-G16RevA.03 25-Dec-2016

 -------------
 #p 6-31g* mp2
 -------------

 ------------------------------------------------------
 Input file generated by CHIRIPA (05-May-2021 14:55:24)
 ------------------------------------------------------
 Symbolic Z-matrix:
 Charge =  0 Multiplicity = 1

                         Standard orientation:
 ---------------------------------------------------------------------
 Center     Atomic      Atomic             Coordinates (Angstroms)
 Number     Number       Type             X           Y           Z
 ---------------------------------------------------------------------
      1          6           0        2.858973    0.310678   -2.374771
      2          6           0        1.691362    0.803328   -1.782741
      3          6           0        1.401143    0.522847   -0.444215
      4          6           0        2.304706   -0.256945    0.276055
      5          6           0        3.476288   -0.762259   -0.285498
      6          6           0        3.746146   -0.469169   -1.625581
      7          1           0        3.076514    0.533460   -3.415175
      8          1           0        1.000555    1.409227   -2.362152
      9          1           0        0.504507    0.891468    0.039087
     10          1           0        4.145768   -1.363510    0.317588
     11          1           0        4.653693   -0.853106   -2.082743
     12          7           0        2.008242   -0.560553    1.693917
     13          8           0        2.820450   -1.249863    2.306946
     14          8           0        0.969278   -0.103461    2.165360
     15          6           0       -3.330912   -0.391612    0.171938
     16          6           0       -3.759663   -1.289309   -0.989224
     17          6           0       -4.394804   -2.598854   -0.520735
     18          1           0       -2.620739   -0.938601    0.807080
     19          1           0       -4.206102   -0.171994    0.799001
     20          1           0       -2.884194   -1.506037   -1.614683
     21          1           0       -4.468751   -0.740052   -1.621781
     22          1           0       -5.284493   -2.400232    0.085568
     23          1           0       -3.690934   -3.170568    0.092706
     24          1           0       -4.693833   -3.225282   -1.366919
     25          6           0       -2.694219    0.921294   -0.280417
     26          6           0       -2.265467    1.818991    0.880746
     27          6           0       -1.630327    3.128536    0.412257
     28          1           0       -1.819030    0.701676   -0.907479
     29          1           0       -3.404391    1.468283   -0.915558
     30          1           0       -1.556381    1.269734    1.513302
     31          1           0       -3.140936    2.035718    1.506206
     32          1           0       -2.334197    3.700250   -0.201185
     33          1           0       -0.740638    2.929914   -0.194047
     34          1           0       -1.331298    3.754964    1.258442
 ---------------------------------------------------------------------

 SCF Done:  E(RHF) =  -669.535284811     A.U. after   15 cycles
 E2 =    -0.2093683666D+01 EUMP2 =    -0.67162896847648D+03

 The electronic state is 1-A.
 Alpha  occ. eigenvalues --  -20.60902 -20.60894 -15.85941 -11.31232 -11.27813
 Alpha  occ. eigenvalues --  -11.27750 -11.27544 -11.26816 -11.26799 -11.21590
 Alpha  occ. eigenvalues --  -11.21585 -11.21485 -11.21361 -11.21282 -11.20984
 Alpha  occ. eigenvalues --   -1.59966  -1.39523  -1.19411  -1.08819  -1.08477
 Alpha  occ. eigenvalues --   -1.04812  -1.03578  -0.96055  -0.95663  -0.87065
 Alpha  occ. eigenvalues --   -0.86209  -0.82508  -0.79607  -0.78269  -0.77570
 Alpha  occ. eigenvalues --   -0.72174  -0.71281  -0.70553  -0.65325  -0.65067
 Alpha  occ. eigenvalues --   -0.64679  -0.62271  -0.60797  -0.59398  -0.57640
 Alpha  occ. eigenvalues --   -0.55438  -0.55256  -0.53138  -0.52875  -0.52715
 Alpha  occ. eigenvalues --   -0.52465  -0.50023  -0.48953  -0.48909  -0.47917
 Alpha  occ. eigenvalues --   -0.46612  -0.45828  -0.45681  -0.44935  -0.43816
 Alpha  occ. eigenvalues --   -0.37391  -0.36395
 Alpha virt. eigenvalues --    0.04936   0.11231   0.16402   0.19471   0.23160
 Alpha virt. eigenvalues --    0.24039   0.25495   0.26984   0.27809   0.28131
 Alpha virt. eigenvalues --    0.29638   0.30507   0.31607   0.31800   0.32412

 Mulliken charges:
               1
     1  C   -0.170084
     2  C   -0.225063
     3  C   -0.178316
     4  C    0.156493
     5  C   -0.169633
     6  C   -0.219226
     7  H    0.226055
     8  H    0.225312
     9  H    0.293484
    10  H    0.275681
    11  H    0.223756
    12  N    0.490629
    13  O   -0.459246
    14  O   -0.465886
    15  C   -0.300220
    16  C   -0.299525
    17  C   -0.476015
    18  H    0.159440
    19  H    0.151276
    20  H    0.149521
    21  H    0.150254
    22  H    0.155862
    23  H    0.157996
    24  H    0.159105
    25  C   -0.298627
    26  C   -0.320909
    27  C   -0.475231
    28  H    0.136324
    29  H    0.149174
    30  H    0.178332
    31  H    0.156901
    32  H    0.155519
    33  H    0.139514
    34  H    0.167353
 Sum of Mulliken charges =  -0.00000

 Dipole moment (field-independent basis, Debye):
    X=              1.0286    Y=              0.9975    Z=             -4.7833  Tot=              4.9933
 Quadrupole moment (field-independent basis, Debye-Ang):
   XX=            -85.5997   YY=            -95.3831   ZZ=            -98.0011
   XY=             -1.2820   XZ=            -11.5262   YZ=              1.7334

 Normal termination of Gaussian 16 at Wed May  5 16:06:13 2021.
