 Gaussian 16, Revision A.03,
 Gaussian 16:  EM64L-G16RevA.03 25-Dec-2016

 -------------
 #p 6-31g* mp2
 -------------

 ------------------------------------------------------
 Input file generated by CHIRIPA (05-May-2021 14:51:07)
 ------------------------------------------------------
 Symbolic Z-matrix:
 Charge =  0 Multiplicity = 1

                         Standard orientation:
 ---------------------------------------------------------------------
 Center     Atomic      Atomic             Coordinates (Angstroms)
 Number     Number       Type             X           Y           Z
 ---------------------------------------------------------------------
      1          6           0        2.201072   -1.120665    0.511248
      2          6           0        1.425267   -2.203033   -0.240145
      3          6           0        0.768849   -3.217813    0.696407
      4          1           0        2.969751   -1.596135    1.135752
      5          1           0        1.518923   -0.599938    1.197478
      6          1           0        2.108368   -2.720644   -0.925760
      7          1           0        0.658471   -1.724919   -0.863079
      8          1           0        0.065661   -2.719976    1.371895
      9          1           0        1.523796   -3.721359    1.308859
     10          1           0        0.219586   -3.982476    0.138320
     11          6           0        2.862985   -0.098757   -0.411411
     12          6           0        3.638790    0.983611    0.339982
     13          6           0        4.295208    1.998392   -0.596569
     14          1           0        3.545134   -0.619484   -1.097641
     15          1           0        2.094306    0.376714   -1.035915
     16          1           0        4.405587    0.505497    0.962916
     17          1           0        2.955689    1.501222    1.025597
     18          1           0        3.540261    2.501937   -1.209022
     19          1           0        4.998397    1.500554   -1.272058
     20          1           0        4.844471    2.763055   -0.038483
     21          6           0       -2.407833    1.210222    0.405487
     22          6           0       -2.268635    2.529422   -0.354986
     23          6           0       -2.020519    3.721511    0.569759
     24          1           0       -3.232740    1.295024    1.126099
     25          1           0       -1.495976    1.035916    0.993304
     26          1           0       -3.179920    2.700503   -0.942274
     27          1           0       -1.444087    2.441404   -1.074006
     28          1           0       -1.101010    3.577095    1.146169
     29          1           0       -2.846705    3.837666    1.278650
     30          1           0       -1.924132    4.654233    0.005313
     31          6           0       -2.656225    0.009200   -0.505324
     32          6           0       -2.795422   -1.310000    0.255149
     33          6           0       -3.043538   -2.502090   -0.669597
     34          1           0       -3.568082    0.183505   -1.093140
     35          1           0       -1.831318   -0.075602   -1.225937
     36          1           0       -3.619970   -1.221983    0.974168
     37          1           0       -1.884138   -1.481081    0.842437
     38          1           0       -2.217352   -2.618245   -1.378487
     39          1           0       -3.963047   -2.357675   -1.246007
     40          1           0       -3.139926   -3.434812   -0.105150
 ---------------------------------------------------------------------

 SCF Done:  E(RHF) =  -470.733113069     A.U. after   11 cycles
 E2 =    -0.1584074175D+01 EUMP2 =    -0.47231718724363D+03

 The electronic state is 1-A.
 Alpha  occ. eigenvalues --  -11.21669 -11.21653 -11.21651 -11.21586 -11.21473
 Alpha  occ. eigenvalues --  -11.21454 -11.21413 -11.21392 -11.21114 -11.21107
 Alpha  occ. eigenvalues --  -11.21085 -11.21062  -1.08514  -1.08447  -1.03627
 Alpha  occ. eigenvalues --   -1.03511  -0.96065  -0.95967  -0.87048  -0.87017
 Alpha  occ. eigenvalues --   -0.79678  -0.79591  -0.78341  -0.78248  -0.65378
 Alpha  occ. eigenvalues --   -0.64885  -0.61308  -0.60636  -0.59399  -0.59365
 Alpha  occ. eigenvalues --   -0.57662  -0.57599  -0.55487  -0.55108  -0.52744
 Alpha  occ. eigenvalues --   -0.52662  -0.52461  -0.52425  -0.50035  -0.49904
 Alpha  occ. eigenvalues --   -0.48047  -0.47848  -0.46876  -0.46488  -0.45952
 Alpha  occ. eigenvalues --   -0.45927  -0.45704  -0.45512  -0.43850  -0.43797
 Alpha virt. eigenvalues --    0.18789   0.22583   0.24001   0.24507   0.25460
 Alpha virt. eigenvalues --    0.26044   0.26761   0.28518   0.28993   0.29672
 Alpha virt. eigenvalues --    0.30249   0.30703   0.31215   0.32057   0.32353

 Mulliken charges:
               1
     1  C   -0.298742
     2  C   -0.303550
     3  C   -0.478827
     4  H    0.150270
     5  H    0.149067
     6  H    0.152562
     7  H    0.154017
     8  H    0.157925
     9  H    0.155251
    10  H    0.161959
    11  C   -0.298280
    12  C   -0.299612
    13  C   -0.475746
    14  H    0.149888
    15  H    0.149063
    16  H    0.152195
    17  H    0.151654
    18  H    0.155216
    19  H    0.155302
    20  H    0.160505
    21  C   -0.298701
    22  C   -0.299592
    23  C   -0.475686
    24  H    0.150079
    25  H    0.148891
    26  H    0.152298
    27  H    0.151448
    28  H    0.154914
    29  H    0.155401
    30  H    0.160491
    31  C   -0.299377
    32  C   -0.305586
    33  C   -0.476251
    34  H    0.149846
    35  H    0.149903
    36  H    0.151961
    37  H    0.158074
    38  H    0.156268
    39  H    0.154849
    40  H    0.160650
 Sum of Mulliken charges =  -0.00000

 Dipole moment (field-independent basis, Debye):
    X=              0.0055    Y=             -0.0192    Z=              0.0040  Tot=              0.0204
 Quadrupole moment (field-independent basis, Debye-Ang):
   XX=            -83.2664   YY=            -85.9101   ZZ=            -85.3849
   XY=             -1.2689   XZ=              0.0679   YZ=             -0.0473

 Normal termination of Gaussian 16 at Wed May  5 15:01:29 2021.
