 Gaussian 16, Revision A.03,
 Gaussian 16:  EM64L-G16RevA.03 25-Dec-2016

 -------------
 #p 6-31g* mp2
 -------------

 ------------------------------------------------------
 Input file generated by CHIRIPA (05-May-2021 14:53:13)
 ------------------------------------------------------
 Symbolic Z-matrix:
 Charge =  0 Multiplicity = 1

                         Standard orientation:
 ---------------------------------------------------------------------
 Center     Atomic      Atomic             Coordinates (Angstroms)
 Number     Number       Type             X           Y           Z
 ---------------------------------------------------------------------
      1          6           0       -3.428982    0.089942   -0.155257
      2          6           0       -4.852899   -0.284166    0.257647
      3          6           0       -5.729994    0.938325    0.529704
      4          1           0       -2.973295    0.701233    0.635703
      5          1           0       -3.469080    0.720922   -1.053951
      6          1           0       -4.810060   -0.915394    1.154492
      7          1           0       -5.305183   -0.894798   -0.534303
      8          1           0       -5.802471    1.566964   -0.363695
      9          1           0       -5.304535    1.546251    1.334696
     10          1           0       -6.743555    0.647906    0.823319
     11          6           0       -2.540015   -1.121511   -0.430660
     12          6           0       -1.116099   -0.747403   -0.843563
     13          6           0       -0.239004   -1.969894   -1.115620
     14          1           0       -2.499918   -1.752490    0.468035
     15          1           0       -2.995703   -1.732802   -1.221620
     16          1           0       -0.663815   -0.136771   -0.051614
     17          1           0       -1.158938   -0.116175   -1.740409
     18          1           0       -0.664463   -2.577820   -1.920612
     19          1           0       -0.166526   -2.598533   -0.222222
     20          1           0        0.774557   -1.679474   -1.409236
     21          6           0        2.971776   -1.972658    0.787985
     22          6           0        2.216502   -1.219711    1.693056
     23          6           0        1.856088    0.097512    1.393767
     24          6           0        2.269754    0.632622    0.174821
     25          6           0        3.022887   -0.092067   -0.747625
     26          6           0        3.371852   -1.407429   -0.427324
     27          1           0        3.247307   -2.995186    1.028641
     28          1           0        1.904405   -1.656080    2.637631
     29          1           0        1.271941    0.702911    2.076175
     30          1           0        3.319324    0.370256   -1.681327
     31          1           0        3.958466   -1.989821   -1.132129
     32          7           0        1.894260    2.026122   -0.153146
     33          8           0        2.271091    2.474483   -1.233704
     34          8           0        1.230226    2.643601    0.676563
 ---------------------------------------------------------------------

 SCF Done:  E(RHF) =  -669.532730392     A.U. after   15 cycles
 E2 =    -0.2096369099D+01 EUMP2 =    -0.67162909949168D+03

 The electronic state is 1-A.
 Alpha  occ. eigenvalues --  -20.60846 -20.60837 -15.85890 -11.31265 -11.27859
 Alpha  occ. eigenvalues --  -11.27830 -11.27569 -11.26881 -11.26818 -11.21425
 Alpha  occ. eigenvalues --  -11.21389 -11.21246 -11.21119 -11.20853 -11.20844
 Alpha  occ. eigenvalues --   -1.59912  -1.39466  -1.19480  -1.08847  -1.08247
 Alpha  occ. eigenvalues --   -1.04889  -1.03357  -0.95813  -0.95675  -0.86831
 Alpha  occ. eigenvalues --   -0.86269  -0.82514  -0.79436  -0.78063  -0.77559
 Alpha  occ. eigenvalues --   -0.72111  -0.71239  -0.70565  -0.65116  -0.64908
 Alpha  occ. eigenvalues --   -0.64861  -0.62224  -0.60811  -0.59321  -0.57538
 Alpha  occ. eigenvalues --   -0.55358  -0.55218  -0.53425  -0.52958  -0.52300
 Alpha  occ. eigenvalues --   -0.51793  -0.49753  -0.48873  -0.48866  -0.47774
 Alpha  occ. eigenvalues --   -0.46507  -0.45615  -0.45547  -0.44834  -0.43636
 Alpha  occ. eigenvalues --   -0.37343  -0.36356
 Alpha virt. eigenvalues --    0.04946   0.11037   0.16426   0.21262   0.23071
 Alpha virt. eigenvalues --    0.24540   0.26617   0.27276   0.27478   0.28059
 Alpha virt. eigenvalues --    0.28515   0.30803   0.31484   0.31924   0.32460

 Mulliken charges:
               1
     1  C   -0.298851
     2  C   -0.299423
     3  C   -0.475659
     4  H    0.152184
     5  H    0.152443
     6  H    0.149456
     7  H    0.151035
     8  H    0.156577
     9  H    0.156263
    10  H    0.158951
    11  C   -0.297402
    12  C   -0.303648
    13  C   -0.478646
    14  H    0.144997
    15  H    0.148776
    16  H    0.152482
    17  H    0.155131
    18  H    0.151524
    19  H    0.148037
    20  H    0.165170
    21  C   -0.165788
    22  C   -0.215744
    23  C   -0.174443
    24  C    0.167812
    25  C   -0.176206
    26  C   -0.219349
    27  H    0.226262
    28  H    0.223853
    29  H    0.275570
    30  H    0.276146
    31  H    0.224322
    32  N    0.488980
    33  O   -0.460090
    34  O   -0.460720
 Sum of Mulliken charges =  -0.00000

 Dipole moment (field-independent basis, Debye):
    X=              1.4815    Y=             -4.8104    Z=              1.1848  Tot=              5.1709
 Quadrupole moment (field-independent basis, Debye-Ang):
   XX=            -88.6859   YY=           -102.4611   ZZ=            -89.7838
   XY=            -10.5186   XZ=              0.9793   YZ=             -0.1154

 Normal termination of Gaussian 16 at Wed May  5 17:03:28 2021.
