 Gaussian 16, Revision A.03,
 Gaussian 16:  EM64L-G16RevA.03 25-Dec-2016

 -------------
 #p 6-31g* mp2
 -------------

 ------------------------------------------------------
 Input file generated by CHIRIPA (05-May-2021 14:57:26)
 ------------------------------------------------------
 Symbolic Z-matrix:
 Charge =  0 Multiplicity = 1

                         Standard orientation:
 ---------------------------------------------------------------------
 Center     Atomic      Atomic             Coordinates (Angstroms)
 Number     Number       Type             X           Y           Z
 ---------------------------------------------------------------------
      1          6           0        5.860893    1.383233    0.436165
      2          6           0        6.163968    0.029984    0.253454
      3          6           0        5.152079   -0.892361   -0.029228
      4          6           0        3.842144   -0.424752   -0.122523
      5          6           0        3.508388    0.917118    0.054339
      6          6           0        4.536405    1.821708    0.336201
      7          1           0        6.653217    2.092836    0.655441
      8          1           0        7.191687   -0.313386    0.330505
      9          1           0        5.358655   -1.945652   -0.175245
     10          1           0        2.474468    1.229443   -0.028611
     11          1           0        4.298093    2.872067    0.477618
     12          7           0        2.762365   -1.391799   -0.421352
     13          8           0        1.616281   -0.954539   -0.498360
     14          8           0        3.082565   -2.568719   -0.572907
     15          6           0       -2.021736    1.796631   -0.093112
     16          6           0       -1.898525    0.550069    0.529320
     17          6           0       -2.999077   -0.306523    0.627222
     18          6           0       -4.213300    0.117335    0.089358
     19          6           0       -4.367778    1.353227   -0.536741
     20          6           0       -3.253797    2.193532   -0.623221
     21          1           0       -1.161584    2.455727   -0.164728
     22          1           0       -0.942921    0.239203    0.941908
     23          1           0       -2.931681   -1.276942    1.103834
     24          1           0       -5.333343    1.635421   -0.938571
     25          1           0       -3.352417    3.161066   -1.107161
     26          7           0       -5.385514   -0.780880    0.186956
     27          8           0       -6.444294   -0.384081   -0.294885
     28          8           0       -5.223319   -1.864691    0.743448
 ---------------------------------------------------------------------

 SCF Done:  E(RHF) =  -868.338463471     A.U. after   16 cycles
 E2 =    -0.2598892826D+01 EUMP2 =    -0.87093735629643D+03

 The electronic state is 1-A.
 Alpha  occ. eigenvalues --  -20.61627 -20.61561 -20.60197 -20.60183 -15.86640
 Alpha  occ. eigenvalues --  -15.85240 -11.31922 -11.30535 -11.28547 -11.28428
 Alpha  occ. eigenvalues --  -11.28167 -11.27491 -11.27421 -11.27119 -11.27001
 Alpha  occ. eigenvalues --  -11.26867 -11.26182 -11.25971  -1.60658  -1.59268
 Alpha  occ. eigenvalues --   -1.40220  -1.38824  -1.20077  -1.18690  -1.09479
 Alpha  occ. eigenvalues --   -1.08117  -1.05473  -1.04064  -0.96333  -0.94967
 Alpha  occ. eigenvalues --   -0.86872  -0.85478  -0.83174  -0.81785  -0.78244
 Alpha  occ. eigenvalues --   -0.76827  -0.72862  -0.71971  -0.71464  -0.71182
 Alpha  occ. eigenvalues --   -0.70587  -0.69855  -0.65734  -0.65471  -0.64348
 Alpha  occ. eigenvalues --   -0.64053  -0.62833  -0.61400  -0.55954  -0.54645
 Alpha  occ. eigenvalues --   -0.53795  -0.53565  -0.52414  -0.52148  -0.49627
 Alpha  occ. eigenvalues --   -0.49591  -0.48221  -0.48214  -0.45640  -0.44244
 Alpha  occ. eigenvalues --   -0.38034  -0.37070  -0.36697  -0.35644
 Alpha virt. eigenvalues --    0.04281   0.05677   0.10587   0.11991   0.15786
 Alpha virt. eigenvalues --    0.17189   0.20102   0.21927   0.25960   0.27067
 Alpha virt. eigenvalues --    0.28396   0.28844   0.30731   0.31582   0.32053

 Mulliken charges:
               1
     1  C   -0.170213
     2  C   -0.218058
     3  C   -0.170245
     4  C    0.159139
     5  C   -0.170170
     6  C   -0.217707
     7  H    0.227916
     8  H    0.226162
     9  H    0.277764
    10  H    0.266954
    11  H    0.223317
    12  N    0.490427
    13  O   -0.469410
    14  O   -0.454370
    15  C   -0.170799
    16  C   -0.214772
    17  C   -0.171118
    18  C    0.158517
    19  C   -0.172510
    20  C   -0.218304
    21  H    0.217116
    22  H    0.234743
    23  H    0.277438
    24  H    0.273249
    25  H    0.219613
    26  N    0.488061
    27  O   -0.462822
    28  O   -0.459918
 Sum of Mulliken charges =  -0.00000

 Dipole moment (field-independent basis, Debye):
    X=              8.3647    Y=              6.3800    Z=              0.7455  Tot=             10.5465
 Quadrupole moment (field-independent basis, Debye-Ang):
   XX=           -106.6730   YY=           -102.6512   ZZ=           -105.5854
   XY=             -6.1202   XZ=              6.8153   YZ=             -2.2737

 Normal termination of Gaussian 16 at Thu May  6 05:11:20 2021.
