 Gaussian 16, Revision A.03,
 Gaussian 16:  EM64L-G16RevA.03 25-Dec-2016

 -------------
 #p 6-31g* mp2
 -------------

 ------------------------------------------------------
 Input file generated by CHIRIPA (05-May-2021 14:51:11)
 ------------------------------------------------------
 Symbolic Z-matrix:
 Charge =  0 Multiplicity = 1

                         Standard orientation:
 ---------------------------------------------------------------------
 Center     Atomic      Atomic             Coordinates (Angstroms)
 Number     Number       Type             X           Y           Z
 ---------------------------------------------------------------------
      1          6           0        3.482870    0.263463    0.133414
      2          6           0        2.389130   -0.156941    1.115747
      3          6           0        1.134396    0.710392    1.010055
      4          1           0        3.745643    1.314619    0.314976
      5          1           0        3.086083    0.212745   -0.890003
      6          1           0        2.788286   -0.106774    2.136910
      7          1           0        2.129066   -1.207275    0.931951
      8          1           0        0.709774    0.652460    0.002612
      9          1           0        1.372740    1.759214    1.214417
     10          1           0        0.365506    0.392442    1.721094
     11          6           0        4.743557   -0.594226    0.227041
     12          6           0        5.837297   -0.173823   -0.755292
     13          6           0        7.092031   -1.041155   -0.649601
     14          1           0        5.140344   -0.543509    1.250458
     15          1           0        4.480785   -1.645383    0.045478
     16          1           0        6.097361    0.876512   -0.571497
     17          1           0        5.438141   -0.223990   -1.776455
     18          1           0        6.853687   -2.089978   -0.853962
     19          1           0        7.516653   -0.983224    0.357842
     20          1           0        7.860922   -0.723206   -1.360639
     21          6           0       -3.618084    0.643533    0.150908
     22          6           0       -3.132476    1.754502   -0.780711
     23          6           0       -2.142500    2.702980   -0.103856
     24          1           0       -4.087064    1.094793    1.035988
     25          1           0       -2.751444    0.073203    0.512924
     26          1           0       -3.999889    2.321701   -1.141954
     27          1           0       -2.664768    1.300543   -1.663766
     28          1           0       -1.259399    2.155775    0.241539
     29          1           0       -2.602105    3.182735    0.766317
     30          1           0       -1.808310    3.489397   -0.787761
     31          6           0       -4.608343   -0.312769   -0.511363
     32          6           0       -5.093951   -1.423740    0.420256
     33          6           0       -6.083927   -2.372217   -0.256599
     34          1           0       -5.474983    0.257560   -0.873378
     35          1           0       -4.139363   -0.764030   -1.396442
     36          1           0       -5.561659   -0.969780    1.303311
     37          1           0       -4.226537   -1.990938    0.781499
     38          1           0       -5.624322   -2.851971   -1.126772
     39          1           0       -6.967029   -1.825012   -0.601994
     40          1           0       -6.418117   -3.158633    0.427306
 ---------------------------------------------------------------------

 SCF Done:  E(RHF) =  -470.733124208     A.U. after   11 cycles
 E2 =    -0.1582617204D+01 EUMP2 =    -0.47231574141240D+03

 The electronic state is 1-A.
 Alpha  occ. eigenvalues --  -11.21653 -11.21623 -11.21574 -11.21512 -11.21439
 Alpha  occ. eigenvalues --  -11.21379 -11.21354 -11.21290 -11.21158 -11.21088
 Alpha  occ. eigenvalues --  -11.21051 -11.20863  -1.08469  -1.08370  -1.03584
 Alpha  occ. eigenvalues --   -1.03452  -0.96054  -0.95885  -0.87097  -0.86883
 Alpha  occ. eigenvalues --   -0.79696  -0.79478  -0.78284  -0.78178  -0.65104
 Alpha  occ. eigenvalues --   -0.64998  -0.61008  -0.60834  -0.59411  -0.59261
 Alpha  occ. eigenvalues --   -0.57660  -0.57504  -0.55363  -0.55170  -0.52788
 Alpha  occ. eigenvalues --   -0.52604  -0.52514  -0.52217  -0.50005  -0.49803
 Alpha  occ. eigenvalues --   -0.48009  -0.47771  -0.46695  -0.46526  -0.45839
 Alpha  occ. eigenvalues --   -0.45751  -0.45709  -0.45608  -0.43807  -0.43716
 Alpha virt. eigenvalues --    0.21826   0.22979   0.23693   0.24748   0.26098
 Alpha virt. eigenvalues --    0.26616   0.27212   0.27362   0.27913   0.29054
 Alpha virt. eigenvalues --    0.30792   0.30907   0.31312   0.31827   0.32204

 Mulliken charges:
               1
     1  C   -0.298485
     2  C   -0.300638
     3  C   -0.478700
     4  H    0.149948
     5  H    0.149580
     6  H    0.152292
     7  H    0.151924
     8  H    0.155432
     9  H    0.156949
    10  H    0.161352
    11  C   -0.298348
    12  C   -0.299656
    13  C   -0.475730
    14  H    0.149646
    15  H    0.149641
    16  H    0.152052
    17  H    0.151950
    18  H    0.155183
    19  H    0.155235
    20  H    0.160346
    21  C   -0.299127
    22  C   -0.298818
    23  C   -0.486727
    24  H    0.149448
    25  H    0.150134
    26  H    0.151416
    27  H    0.150785
    28  H    0.170535
    29  H    0.154006
    30  H    0.158984
    31  C   -0.298171
    32  C   -0.299593
    33  C   -0.475654
    34  H    0.149482
    35  H    0.149347
    36  H    0.151885
    37  H    0.151746
    38  H    0.155057
    39  H    0.155169
    40  H    0.160120
 Sum of Mulliken charges =  -0.00000

 Dipole moment (field-independent basis, Debye):
    X=              0.0652    Y=             -0.0056    Z=              0.0228  Tot=              0.0693
 Quadrupole moment (field-independent basis, Debye-Ang):
   XX=            -85.6453   YY=            -85.0042   ZZ=            -84.3374
   XY=             -0.1567   XZ=             -0.2008   YZ=              0.4008

 Normal termination of Gaussian 16 at Thu May  6 03:50:30 2021.
