 Gaussian 16, Revision A.03,
 Gaussian 16:  EM64L-G16RevA.03 25-Dec-2016

 -------------
 #p 6-31g* mp2
 -------------

 ------------------------------------------------------
 Input file generated by CHIRIPA (05-May-2021 14:55:24)
 ------------------------------------------------------
 Symbolic Z-matrix:
 Charge =  0 Multiplicity = 1

                         Standard orientation:
 ---------------------------------------------------------------------
 Center     Atomic      Atomic             Coordinates (Angstroms)
 Number     Number       Type             X           Y           Z
 ---------------------------------------------------------------------
      1          6           0        0.782160    1.085604    1.120229
      2          6           0        0.709700   -0.188899    0.548467
      3          6           0        1.850579   -0.791466    0.010086
      4          6           0        3.052940   -0.087856    0.060589
      5          6           0        3.157251    1.183189    0.623488
      6          6           0        2.003551    1.766381    1.155852
      7          1           0       -0.109083    1.546168    1.536119
      8          1           0       -0.237503   -0.719942    0.519414
      9          1           0        1.822823   -1.777064   -0.438518
     10          1           0        4.115642    1.687866    0.637820
     11          1           0        2.062794    2.756290    1.599264
     12          7           0        4.267525   -0.715511   -0.506186
     13          8           0        5.314842   -0.074783   -0.449340
     14          8           0        4.149201   -1.836310   -0.996537
     15          6           0       -3.381942   -0.725213   -0.081525
     16          6           0       -4.476563   -1.753045    0.207179
     17          6           0       -3.921551   -3.159204    0.436243
     18          1           0       -2.811908   -1.044345   -0.964792
     19          1           0       -2.673616   -0.708518    0.758350
     20          1           0       -5.183378   -1.766806   -0.632368
     21          1           0       -5.044180   -1.431331    1.089748
     22          1           0       -3.232007   -3.167407    1.286574
     23          1           0       -3.371996   -3.504788   -0.445325
     24          1           0       -4.721126   -3.877992    0.640896
     25          6           0       -3.921129    0.685304   -0.312717
     26          6           0       -2.826508    1.713136   -0.601421
     27          6           0       -3.381520    3.119296   -0.830485
     28          1           0       -4.629455    0.668609   -1.152592
     29          1           0       -4.491164    1.004436    0.570550
     30          1           0       -2.258890    1.391422   -1.483989
     31          1           0       -2.119692    1.726897    0.238126
     32          1           0       -3.931075    3.464879    0.051083
     33          1           0       -4.071064    3.127499   -1.680816
     34          1           0       -2.581945    3.838084   -1.035138
 ---------------------------------------------------------------------

 SCF Done:  E(RHF) =  -669.534913617     A.U. after   15 cycles
 E2 =    -0.2092654525D+01 EUMP2 =    -0.67162756814187D+03

 The electronic state is 1-A.
 Alpha  occ. eigenvalues --  -20.60699 -20.60694 -15.85751 -11.31097 -11.27665
 Alpha  occ. eigenvalues --  -11.27643 -11.27380 -11.26681 -11.26601 -11.22648
 Alpha  occ. eigenvalues --  -11.22558 -11.22450 -11.22355 -11.21923 -11.21835
 Alpha  occ. eigenvalues --   -1.59775  -1.39329  -1.19263  -1.09448  -1.08661
 Alpha  occ. eigenvalues --   -1.04659  -1.04448  -0.96890  -0.95506  -0.87902
 Alpha  occ. eigenvalues --   -0.86064  -0.82339  -0.80521  -0.79320  -0.77375
 Alpha  occ. eigenvalues --   -0.71970  -0.71098  -0.70406  -0.66092  -0.64911
 Alpha  occ. eigenvalues --   -0.64648  -0.62016  -0.61846  -0.60262  -0.58515
 Alpha  occ. eigenvalues --   -0.56185  -0.55185  -0.53550  -0.53343  -0.52992
 Alpha  occ. eigenvalues --   -0.52724  -0.50821  -0.48837  -0.48727  -0.48707
 Alpha  occ. eigenvalues --   -0.47547  -0.46781  -0.46733  -0.44739  -0.44729
 Alpha  occ. eigenvalues --   -0.37224  -0.36260
 Alpha virt. eigenvalues --    0.05126   0.11349   0.16562   0.19402   0.22662
 Alpha virt. eigenvalues --    0.23031   0.25024   0.25750   0.26930   0.27546
 Alpha virt. eigenvalues --    0.29334   0.30563   0.30880   0.31303   0.31713

 Mulliken charges:
               1
     1  C   -0.173079
     2  C   -0.224344
     3  C   -0.173076
     4  C    0.158892
     5  C   -0.171457
     6  C   -0.219230
     7  H    0.226421
     8  H    0.233772
     9  H    0.275628
    10  H    0.275151
    11  H    0.222964
    12  N    0.487981
    13  O   -0.460767
    14  O   -0.460655
    15  C   -0.303980
    16  C   -0.299282
    17  C   -0.477357
    18  H    0.151742
    19  H    0.141662
    20  H    0.155893
    21  H    0.154017
    22  H    0.153555
    23  H    0.156388
    24  H    0.164675
    25  C   -0.298231
    26  C   -0.302752
    27  C   -0.476441
    28  H    0.154567
    29  H    0.151251
    30  H    0.157296
    31  H    0.141942
    32  H    0.155619
    33  H    0.159351
    34  H    0.161886
 Sum of Mulliken charges =  -0.00000

 Dipole moment (field-independent basis, Debye):
    X=             -4.5627    Y=              2.1991    Z=              1.8873  Tot=              5.4052
 Quadrupole moment (field-independent basis, Debye-Ang):
   XX=           -119.0336   YY=            -92.8878   ZZ=            -93.9554
   XY=             10.0584   XZ=              6.9821   YZ=              1.4395

 Normal termination of Gaussian 16 at Thu May  6 20:55:09 2021.
