 Gaussian 16, Revision A.03,
 Gaussian 16:  EM64L-G16RevA.03 25-Dec-2016

 -------------
 #p 6-31g* mp2
 -------------

 ------------------------------------------------------
 Input file generated by CHIRIPA (05-May-2021 14:53:12)
 ------------------------------------------------------
 Symbolic Z-matrix:
 Charge =  0 Multiplicity = 1

                         Standard orientation:
 ---------------------------------------------------------------------
 Center     Atomic      Atomic             Coordinates (Angstroms)
 Number     Number       Type             X           Y           Z
 ---------------------------------------------------------------------
      1          6           0        3.047336    1.100399   -0.533309
      2          6           0        1.757177    1.913341   -0.421065
      3          6           0        1.962553    3.394935   -0.738072
      4          1           0        3.799183    1.521803    0.147933
      5          1           0        3.451961    1.206249   -1.549414
      6          1           0        1.354368    1.804874    0.594118
      7          1           0        1.008252    1.489835   -1.102512
      8          1           0        2.342082    3.521845   -1.757117
      9          1           0        2.690165    3.838674   -0.050846
     10          1           0        1.027597    3.957311   -0.651763
     11          6           0        2.858167   -0.382627   -0.219343
     12          6           0        4.148327   -1.195569   -0.331587
     13          6           0        3.942950   -2.677164   -0.014580
     14          1           0        2.453542   -0.488478    0.796762
     15          1           0        2.106320   -0.804031   -0.900584
     16          1           0        4.897251   -0.772064    0.349861
     17          1           0        4.551135   -1.087102   -1.346769
     18          1           0        3.215338   -3.120902   -0.701805
     19          1           0        3.563421   -2.804074    1.004465
     20          1           0        4.877907   -3.239539   -0.100888
     21          6           0       -0.466814   -0.024962    2.001341
     22          6           0       -1.509267    0.906318    1.951040
     23          6           0       -2.534068    0.774725    1.009225
     24          6           0       -2.484724   -0.305072    0.128946
     25          6           0       -1.459607   -1.249420    0.154074
     26          6           0       -0.445348   -1.097967    1.104279
     27          1           0        0.325182    0.084977    2.736223
     28          1           0       -1.528523    1.740620    2.646462
     29          1           0       -3.353017    1.481138    0.948235
     30          1           0       -1.467658   -2.070632   -0.552300
     31          1           0        0.362985   -1.822736    1.141032
     32          7           0       -3.564055   -0.454897   -0.872552
     33          8           0       -3.497578   -1.415033   -1.636985
     34          8           0       -4.456072    0.390644   -0.874131
 ---------------------------------------------------------------------

 SCF Done:  E(RHF) =  -669.533767782     A.U. after   15 cycles
 E2 =    -0.2094782442D+01 EUMP2 =    -0.67162855022408D+03

 The electronic state is 1-A.
 Alpha  occ. eigenvalues --  -20.60765 -20.60760 -15.85818 -11.31183 -11.27738
 Alpha  occ. eigenvalues --  -11.27721 -11.27466 -11.26770 -11.26697 -11.22280
 Alpha  occ. eigenvalues --  -11.22131 -11.21948 -11.21887 -11.21876 -11.21406
 Alpha  occ. eigenvalues --   -1.59841  -1.39395  -1.19350  -1.09071  -1.08730
 Alpha  occ. eigenvalues --   -1.04747  -1.04093  -0.96573  -0.95591  -0.87589
 Alpha  occ. eigenvalues --   -0.86156  -0.82418  -0.80166  -0.78896  -0.77441
 Alpha  occ. eigenvalues --   -0.72037  -0.71164  -0.70481  -0.65707  -0.64998
 Alpha  occ. eigenvalues --   -0.64741  -0.62107  -0.61492  -0.59943  -0.58174
 Alpha  occ. eigenvalues --   -0.55876  -0.55269  -0.53387  -0.53055  -0.52987
 Alpha  occ. eigenvalues --   -0.52789  -0.50522  -0.48807  -0.48792  -0.48460
 Alpha  occ. eigenvalues --   -0.47212  -0.46360  -0.46321  -0.44801  -0.44359
 Alpha  occ. eigenvalues --   -0.37203  -0.36302
 Alpha virt. eigenvalues --    0.05021   0.11223   0.16422   0.19838   0.22844
 Alpha virt. eigenvalues --    0.23238   0.25445   0.26345   0.26889   0.28187
 Alpha virt. eigenvalues --    0.29661   0.30423   0.31143   0.31242   0.31645

 Mulliken charges:
               1
     1  C   -0.299103
     2  C   -0.300541
     3  C   -0.476204
     4  H    0.148578
     5  H    0.152383
     6  H    0.149388
     7  H    0.156119
     8  H    0.157176
     9  H    0.153280
    10  H    0.160914
    11  C   -0.297300
    12  C   -0.299548
    13  C   -0.477420
    14  H    0.138484
    15  H    0.151091
    16  H    0.152834
    17  H    0.155868
    18  H    0.155212
    19  H    0.149211
    20  H    0.165054
    21  C   -0.171569
    22  C   -0.217503
    23  C   -0.171215
    24  C    0.158843
    25  C   -0.174722
    26  C   -0.212067
    27  H    0.224628
    28  H    0.223312
    29  H    0.275439
    30  H    0.275243
    31  H    0.227164
    32  N    0.487993
    33  O   -0.460579
    34  O   -0.460443
 Sum of Mulliken charges =  -0.00000

 Dipole moment (field-independent basis, Debye):
    X=              3.8497    Y=              0.5375    Z=              3.4445  Tot=              5.1936
 Quadrupole moment (field-independent basis, Debye-Ang):
   XX=           -113.1618   YY=            -93.1329   ZZ=            -92.9047
   XY=             -4.6689   XZ=             -9.3109   YZ=              1.0899

 Normal termination of Gaussian 16 at Wed May  5 21:45:38 2021.
