 Gaussian 16, Revision A.03,
 Gaussian 16:  EM64L-G16RevA.03 25-Dec-2016

 -------------
 #p 6-31g* mp2
 -------------

 ------------------------------------------------------
 Input file generated by CHIRIPA (05-May-2021 14:57:25)
 ------------------------------------------------------
 Symbolic Z-matrix:
 Charge =  0 Multiplicity = 1

                         Standard orientation:
 ---------------------------------------------------------------------
 Center     Atomic      Atomic             Coordinates (Angstroms)
 Number     Number       Type             X           Y           Z
 ---------------------------------------------------------------------
      1          6           0       -3.807488    1.125004    1.046417
      2          6           0       -3.924446    0.952002   -0.336664
      3          6           0       -3.070192    0.079781   -1.017860
      4          6           0       -2.105963   -0.606544   -0.281306
      5          6           0       -1.964518   -0.455568    1.097277
      6          6           0       -2.829621    0.421906    1.757719
      7          1           0       -4.475307    1.804607    1.567525
      8          1           0       -4.682941    1.496725   -0.891648
      9          1           0       -3.138751   -0.073025   -2.088078
     10          1           0       -1.198623   -1.012403    1.623355
     11          1           0       -2.736485    0.554283    2.831892
     12          7           0       -1.195860   -1.532706   -0.991471
     13          8           0       -0.354639   -2.125685   -0.319638
     14          8           0       -1.340976   -1.648117   -2.206485
     15          6           0        2.705027   -1.813345    1.176119
     16          6           0        3.159557   -1.520012   -0.113795
     17          6           0        2.916473   -0.267090   -0.684451
     18          6           0        2.212545    0.673091    0.066439
     19          6           0        1.746759    0.410940    1.353921
     20          6           0        2.001320   -0.848634    1.904576
     21          1           0        2.898318   -2.789229    1.611649
     22          1           0        3.706325   -2.267278   -0.681847
     23          1           0        3.256950   -0.013438   -1.681022
     24          1           0        1.204449    1.176303    1.895712
     25          1           0        1.647130   -1.073656    2.906554
     26          7           0        1.949129    2.003023   -0.527101
     27          8           0        1.326657    2.814057    0.155093
     28          8           0        2.370123    2.209208   -1.663274
 ---------------------------------------------------------------------

 SCF Done:  E(RHF) =  -868.337473781     A.U. after   16 cycles
 E2 =    -0.2603161927D+01 EUMP2 =    -0.87094063570777D+03

 The electronic state is 1-A.
 Alpha  occ. eigenvalues --  -20.60856 -20.60849 -20.60348 -20.60323 -15.85887
 Alpha  occ. eigenvalues --  -15.85386 -11.31158 -11.30526 -11.27767 -11.27691
 Alpha  occ. eigenvalues --  -11.27439 -11.27191 -11.27029 -11.26763 -11.26760
 Alpha  occ. eigenvalues --  -11.26670 -11.26149 -11.25938  -1.59928  -1.59421
 Alpha  occ. eigenvalues --   -1.39485  -1.38980  -1.19323  -1.18670  -1.08735
 Alpha  occ. eigenvalues --   -1.08099  -1.04730  -1.04078  -0.95593  -0.94986
 Alpha  occ. eigenvalues --   -0.86127  -0.85498  -0.82443  -0.81855  -0.77507
 Alpha  occ. eigenvalues --   -0.76936  -0.72145  -0.71615  -0.71270  -0.70728
 Alpha  occ. eigenvalues --   -0.70445  -0.69811  -0.64991  -0.64747  -0.64358
 Alpha  occ. eigenvalues --   -0.64130  -0.62110  -0.61462  -0.55225  -0.54579
 Alpha  occ. eigenvalues --   -0.53037  -0.52870  -0.52308  -0.52213  -0.48910
 Alpha  occ. eigenvalues --   -0.48860  -0.48379  -0.48351  -0.44846  -0.44434
 Alpha  occ. eigenvalues --   -0.37322  -0.36553  -0.36366  -0.35493
 Alpha virt. eigenvalues --    0.04944   0.05682   0.11202   0.12098   0.16532
 Alpha virt. eigenvalues --    0.17082   0.21081   0.22190   0.26642   0.27852
 Alpha virt. eigenvalues --    0.28822   0.29050   0.30651   0.31592   0.32717

 Mulliken charges:
               1
     1  C   -0.167817
     2  C   -0.216930
     3  C   -0.168154
     4  C    0.156650
     5  C   -0.170774
     6  C   -0.218478
     7  H    0.226576
     8  H    0.224979
     9  H    0.276682
    10  H    0.270576
    11  H    0.220381
    12  N    0.489041
    13  O   -0.464556
    14  O   -0.459803
    15  C   -0.155568
    16  C   -0.207195
    17  C   -0.166494
    18  C    0.155500
    19  C   -0.174782
    20  C   -0.217111
    21  H    0.224444
    22  H    0.223889
    23  H    0.275179
    24  H    0.267960
    25  H    0.214186
    26  N    0.487817
    27  O   -0.466032
    28  O   -0.460165
 Sum of Mulliken charges =  -0.00000

 Dipole moment (field-independent basis, Debye):
    X=             -2.2640    Y=             -1.6326    Z=              4.3494  Tot=              5.1680
 Quadrupole moment (field-independent basis, Debye-Ang):
   XX=            -85.3881   YY=           -115.7947   ZZ=            -99.5158
   XY=            -17.2721   XZ=              0.1094   YZ=             -1.1310

 Normal termination of Gaussian 16 at Thu May  6 13:05:15 2021.
