 Gaussian 16, Revision A.03,
 Gaussian 16:  EM64L-G16RevA.03 25-Dec-2016

 -------------
 #p 6-31g* mp2
 -------------

 ------------------------------------------------------
 Input file generated by CHIRIPA (05-May-2021 14:57:22)
 ------------------------------------------------------
 Symbolic Z-matrix:
 Charge =  0 Multiplicity = 1

                         Standard orientation:
 ---------------------------------------------------------------------
 Center     Atomic      Atomic             Coordinates (Angstroms)
 Number     Number       Type             X           Y           Z
 ---------------------------------------------------------------------
      1          6           0        3.563584    2.404741   -0.454971
      2          6           0        4.583759    1.509033   -0.791825
      3          6           0        4.451582    0.145249   -0.514029
      4          6           0        3.280559   -0.290341    0.104240
      5          6           0        2.246395    0.577293    0.452099
      6          6           0        2.400209    1.936837    0.164823
      7          1           0        3.674667    3.462515   -0.674452
      8          1           0        5.488355    1.869584   -1.273235
      9          1           0        5.225715   -0.570046   -0.764007
     10          1           0        1.356269    0.188062    0.931259
     11          1           0        1.606287    2.630164    0.427561
     12          7           0        3.129176   -1.731874    0.403349
     13          8           0        2.087693   -2.090457    0.948663
     14          8           0        4.054871   -2.475869    0.086811
     15          6           0       -3.043027    2.520727    0.399107
     16          6           0       -1.913868    1.698403    0.326278
     17          6           0       -2.047395    0.329574    0.075221
     18          6           0       -3.330885   -0.185835   -0.098839
     19          6           0       -4.475179    0.607530   -0.032115
     20          6           0       -4.317831    1.973631    0.219994
     21          1           0       -2.930048    3.583005    0.594543
     22          1           0       -0.922602    2.120539    0.464973
     23          1           0       -1.190256   -0.329927    0.013688
     24          1           0       -5.450292    0.157801   -0.174656
     25          1           0       -5.196535    2.609860    0.276015
     26          7           0       -3.484852   -1.633508   -0.365179
     27          8           0       -4.626610   -2.063167   -0.514912
     28          8           0       -2.460860   -2.311123   -0.419160
 ---------------------------------------------------------------------

 SCF Done:  E(RHF) =  -868.335282185     A.U. after   16 cycles
 E2 =    -0.2601175868D+01 EUMP2 =    -0.87093645805336D+03

 The electronic state is 1-A.
 Alpha  occ. eigenvalues --  -20.60990 -20.60973 -20.60678 -20.60637 -15.86044
 Alpha  occ. eigenvalues --  -15.85723 -11.31682 -11.31354 -11.28394 -11.28222
 Alpha  occ. eigenvalues --  -11.28061 -11.28005 -11.27954 -11.27817 -11.27485
 Alpha  occ. eigenvalues --  -11.27278 -11.27186 -11.27010  -1.60050  -1.59736
 Alpha  occ. eigenvalues --   -1.39599  -1.39278  -1.19881  -1.19576  -1.09216
 Alpha  occ. eigenvalues --   -1.08927  -1.05358  -1.05034  -0.96008  -0.95708
 Alpha  occ. eigenvalues --   -0.86734  -0.86420  -0.82872  -0.82542  -0.77903
 Alpha  occ. eigenvalues --   -0.77510  -0.72253  -0.71933  -0.71378  -0.71068
 Alpha  occ. eigenvalues --   -0.71000  -0.70672  -0.65555  -0.65479  -0.65233
 Alpha  occ. eigenvalues --   -0.64991  -0.62898  -0.62195  -0.55817  -0.55525
 Alpha  occ. eigenvalues --   -0.53624  -0.53573  -0.53326  -0.53044  -0.49033
 Alpha  occ. eigenvalues --   -0.49001  -0.48725  -0.48670  -0.44941  -0.44626
 Alpha  occ. eigenvalues --   -0.37841  -0.37570  -0.36957  -0.36635
 Alpha virt. eigenvalues --    0.04680   0.05017   0.10654   0.11018   0.16064
 Alpha virt. eigenvalues --    0.16420   0.17766   0.22319   0.24574   0.25363
 Alpha virt. eigenvalues --    0.28040   0.28804   0.30583   0.31427   0.33435

 Mulliken charges:
               1
     1  C   -0.170255
     2  C   -0.217794
     3  C   -0.169105
     4  C    0.160681
     5  C   -0.175551
     6  C   -0.220772
     7  H    0.226553
     8  H    0.225891
     9  H    0.278541
    10  H    0.273266
    11  H    0.216248
    12  N    0.488194
    13  O   -0.456915
    14  O   -0.457709
    15  C   -0.171692
    16  C   -0.220534
    17  C   -0.176553
    18  C    0.159596
    19  C   -0.169534
    20  C   -0.218521
    21  H    0.224161
    22  H    0.214089
    23  H    0.282843
    24  H    0.277251
    25  H    0.224248
    26  N    0.487302
    27  O   -0.461169
    28  O   -0.452758
 Sum of Mulliken charges =  -0.00000

 Dipole moment (field-independent basis, Debye):
    X=              1.1895    Y=              9.8924    Z=             -0.2009  Tot=              9.9657
 Quadrupole moment (field-independent basis, Debye-Ang):
   XX=            -94.3887   YY=           -110.6757   ZZ=           -106.0792
   XY=             -2.1107   XZ=             -8.6339   YZ=              0.3830

 Normal termination of Gaussian 16 at Fri May  7 01:48:31 2021.
