 Gaussian 16, Revision A.03,
 Gaussian 16:  EM64L-G16RevA.03 25-Dec-2016

 -------------
 #p 6-31g* mp2
 -------------

 ------------------------------------------------------
 Input file generated by CHIRIPA (05-May-2021 14:57:27)
 ------------------------------------------------------
 Symbolic Z-matrix:
 Charge =  0 Multiplicity = 1

                         Standard orientation:
 ---------------------------------------------------------------------
 Center     Atomic      Atomic             Coordinates (Angstroms)
 Number     Number       Type             X           Y           Z
 ---------------------------------------------------------------------
      1          6           0        3.761767   -1.721652   -1.124823
      2          6           0        2.864023   -1.869711   -0.062441
      3          6           0        2.378027   -0.749197    0.617855
      4          6           0        2.812754    0.510110    0.207431
      5          6           0        3.706382    0.690235   -0.847213
      6          6           0        4.179345   -0.444403   -1.513134
      7          1           0        4.134238   -2.597580   -1.647710
      8          1           0        2.537998   -2.860414    0.241303
      9          1           0        1.682304   -0.835046    1.443699
     10          1           0        4.013171    1.690727   -1.127058
     11          1           0        4.876469   -0.326402   -2.337839
     12          7           0        2.305150    1.703825    0.920021
     13          8           0        2.703518    2.802376    0.539068
     14          8           0        1.518534    1.518304    1.846009
     15          6           0       -1.196550   -1.844470    0.974028
     16          6           0       -0.955424   -1.303996   -0.293358
     17          6           0       -1.890229   -0.454491   -0.892546
     18          6           0       -3.060749   -0.165351   -0.192852
     19          6           0       -3.329824   -0.688159    1.071094
     20          6           0       -2.380893   -1.535371    1.651015
     21          1           0       -0.464884   -2.503495    1.432008
     22          1           0       -0.036523   -1.542304   -0.821445
     23          1           0       -1.729000   -0.022239   -1.872640
     24          1           0       -4.255059   -0.432257    1.572963
     25          1           0       -2.570822   -1.953661    2.635396
     26          7           0       -4.057863    0.732768   -0.816988
     27          8           0       -5.081301    0.972014   -0.179828
     28          8           0       -3.797084    1.180462   -1.931530
 ---------------------------------------------------------------------

 SCF Done:  E(RHF) =  -868.335441166     A.U. after   16 cycles
 E2 =    -0.2602982446D+01 EUMP2 =    -0.87093842361133D+03

 The electronic state is 1-A.
 Alpha  occ. eigenvalues --  -20.61304 -20.61299 -20.60618 -20.60612 -15.86370
 Alpha  occ. eigenvalues --  -15.85670 -11.31968 -11.31120 -11.28648 -11.28551
 Alpha  occ. eigenvalues --  -11.28385 -11.27718 -11.27667 -11.27656 -11.27575
 Alpha  occ. eigenvalues --  -11.27556 -11.26770 -11.26715  -1.60375  -1.59686
 Alpha  occ. eigenvalues --   -1.39922  -1.39239  -1.20209  -1.19295  -1.09531
 Alpha  occ. eigenvalues --   -1.08725  -1.05670  -1.04699  -0.96328  -0.95540
 Alpha  occ. eigenvalues --   -0.87018  -0.86136  -0.83166  -0.82361  -0.78179
 Alpha  occ. eigenvalues --   -0.77359  -0.72585  -0.71899  -0.71708  -0.71312
 Alpha  occ. eigenvalues --   -0.71001  -0.70498  -0.65853  -0.65643  -0.64978
 Alpha  occ. eigenvalues --   -0.64766  -0.62970  -0.62060  -0.56109  -0.55352
 Alpha  occ. eigenvalues --   -0.54054  -0.53761  -0.52959  -0.52714  -0.49359
 Alpha  occ. eigenvalues --   -0.49322  -0.48659  -0.48641  -0.45275  -0.44626
 Alpha  occ. eigenvalues --   -0.38215  -0.37586  -0.37038  -0.36158
 Alpha virt. eigenvalues --    0.04353   0.05128   0.10058   0.11650   0.15701
 Alpha virt. eigenvalues --    0.16446   0.19356   0.22018   0.25218   0.27238
 Alpha virt. eigenvalues --    0.27651   0.29573   0.30325   0.31194   0.32215

 Mulliken charges:
               1
     1  C   -0.170545
     2  C   -0.228865
     3  C   -0.173899
     4  C    0.159090
     5  C   -0.169125
     6  C   -0.219192
     7  H    0.228530
     8  H    0.220269
     9  H    0.276709
    10  H    0.279579
    11  H    0.227223
    12  N    0.488328
    13  O   -0.457111
    14  O   -0.458187
    15  C   -0.175263
    16  C   -0.218860
    17  C   -0.170888
    18  C    0.161729
    19  C   -0.169500
    20  C   -0.214546
    21  H    0.213962
    22  H    0.225816
    23  H    0.275649
    24  H    0.276649
    25  H    0.223847
    26  N    0.488164
    27  O   -0.459482
    28  O   -0.460081
 Sum of Mulliken charges =  -0.00000

 Dipole moment (field-independent basis, Debye):
    X=              5.3604    Y=             -7.0808    Z=             -0.3514  Tot=              8.8879
 Quadrupole moment (field-independent basis, Debye-Ang):
   XX=           -112.8971   YY=           -107.7601   ZZ=           -102.2956
   XY=              0.4829   XZ=            -19.2634   YZ=             -4.2903

 Normal termination of Gaussian 16 at Thu May  6 14:51:21 2021.
