 Gaussian 16, Revision A.03,
 Gaussian 16:  EM64L-G16RevA.03 25-Dec-2016

 -------------
 #p 6-31g* mp2
 -------------

 ------------------------------------------------------
 Input file generated by CHIRIPA (05-May-2021 14:51:13)
 ------------------------------------------------------
 Symbolic Z-matrix:
 Charge =  0 Multiplicity = 1

                         Standard orientation:
 ---------------------------------------------------------------------
 Center     Atomic      Atomic             Coordinates (Angstroms)
 Number     Number       Type             X           Y           Z
 ---------------------------------------------------------------------
      1          6           0        3.156987    0.664094   -0.765685
      2          6           0        1.765144    1.250914   -1.003174
      3          6           0        1.804803    2.579421   -1.759011
      4          1           0        3.762674    1.388862   -0.204615
      5          1           0        3.657222    0.521545   -1.733590
      6          1           0        1.267154    1.391022   -0.035191
      7          1           0        1.162639    0.524586   -1.563578
      8          1           0        2.277846    2.451661   -2.738045
      9          1           0        2.382954    3.323019   -1.200974
     10          1           0        0.799178    2.981070   -1.917937
     11          6           0        3.133822   -0.664036   -0.011190
     12          6           0        4.525665   -1.250857    0.226298
     13          6           0        4.486007   -2.579364    0.982135
     14          1           0        2.633587   -0.521488    0.956714
     15          1           0        2.528136   -1.388804   -0.572261
     16          1           0        5.128170   -0.524529    0.786702
     17          1           0        5.023656   -1.390965   -0.741685
     18          1           0        3.907856   -3.322962    0.424099
     19          1           0        4.012964   -2.451604    1.961169
     20          1           0        5.491631   -2.981013    1.141061
     21          6           0       -3.773527   -0.428997    0.318579
     22          6           0       -3.902037   -1.097563   -1.050540
     23          6           0       -5.163654   -1.952341   -1.174922
     24          1           0       -3.772406   -1.202583    1.098649
     25          1           0       -4.659701    0.195225    0.498682
     26          1           0       -3.015236   -1.719251   -1.228598
     27          1           0       -3.902659   -0.322307   -1.827454
     28          1           0       -6.059406   -1.341394   -1.023351
     29          1           0       -5.166940   -2.746275   -0.421092
     30          1           0       -5.235495   -2.420879   -2.161417
     31          6           0       -2.517283    0.428940    0.458296
     32          6           0       -2.388772    1.097506    1.827416
     33          6           0       -1.127155    1.952284    1.951798
     34          1           0       -1.631108   -0.195282    0.278194
     35          1           0       -2.518404    1.202526   -0.321773
     36          1           0       -2.388150    0.322250    2.604330
     37          1           0       -3.275573    1.719194    2.005474
     38          1           0       -1.123869    2.746218    1.197968
     39          1           0       -0.231404    1.341337    1.800227
     40          1           0       -1.055314    2.420822    2.938292
 ---------------------------------------------------------------------

 SCF Done:  E(RHF) =  -470.733181114     A.U. after   11 cycles
 E2 =    -0.1583042290D+01 EUMP2 =    -0.47231622340361D+03

 The electronic state is 1-A.
 Alpha  occ. eigenvalues --  -11.21615 -11.21605 -11.21601 -11.21491 -11.21399
 Alpha  occ. eigenvalues --  -11.21396 -11.21336 -11.21322 -11.21097 -11.21080
 Alpha  occ. eigenvalues --  -11.21071 -11.21021  -1.08437  -1.08401  -1.03554
 Alpha  occ. eigenvalues --   -1.03485  -0.95996  -0.95951  -0.87017  -0.86966
 Alpha  occ. eigenvalues --   -0.79679  -0.79502  -0.78309  -0.78147  -0.65088
 Alpha  occ. eigenvalues --   -0.65018  -0.60992  -0.60862  -0.59412  -0.59272
 Alpha  occ. eigenvalues --   -0.57649  -0.57515  -0.55288  -0.55241  -0.52686
 Alpha  occ. eigenvalues --   -0.52653  -0.52442  -0.52369  -0.49997  -0.49850
 Alpha  occ. eigenvalues --   -0.48125  -0.47751  -0.46720  -0.46500  -0.45960
 Alpha  occ. eigenvalues --   -0.45736  -0.45697  -0.45399  -0.43790  -0.43756
 Alpha virt. eigenvalues --    0.21331   0.23134   0.23628   0.24684   0.25468
 Alpha virt. eigenvalues --    0.26210   0.26817   0.27911   0.28052   0.29223
 Alpha virt. eigenvalues --    0.30926   0.31476   0.31566   0.31905   0.32321

 Mulliken charges:
               1
     1  C   -0.297842
     2  C   -0.308029
     3  C   -0.475197
     4  H    0.149512
     5  H    0.149290
     6  H    0.161444
     7  H    0.151758
     8  H    0.154801
     9  H    0.155005
    10  H    0.159724
    11  C   -0.298479
    12  C   -0.299566
    13  C   -0.475725
    14  H    0.148463
    15  H    0.149362
    16  H    0.152095
    17  H    0.152119
    18  H    0.155046
    19  H    0.155063
    20  H    0.160328
    21  C   -0.298340
    22  C   -0.299599
    23  C   -0.475702
    24  H    0.149630
    25  H    0.149453
    26  H    0.151875
    27  H    0.151899
    28  H    0.155185
    29  H    0.155198
    30  H    0.160202
    31  C   -0.299125
    32  C   -0.299644
    33  C   -0.479798
    34  H    0.151406
    35  H    0.149472
    36  H    0.151877
    37  H    0.151949
    38  H    0.155904
    39  H    0.158681
    40  H    0.160305
 Sum of Mulliken charges =  -0.00000

 Dipole moment (field-independent basis, Debye):
    X=             -0.0159    Y=              0.0070    Z=              0.0150  Tot=              0.0230
 Quadrupole moment (field-independent basis, Debye-Ang):
   XX=            -85.3495   YY=            -85.2425   ZZ=            -84.2605
   XY=             -0.8368   XZ=             -0.0228   YZ=              0.5557

 Normal termination of Gaussian 16 at Wed May  5 18:23:19 2021.
