 Gaussian 16, Revision A.03,
 Gaussian 16:  EM64L-G16RevA.03 25-Dec-2016

 -------------
 #p 6-31g* mp2
 -------------

 ------------------------------------------------------
 Input file generated by CHIRIPA (05-May-2021 14:53:15)
 ------------------------------------------------------
 Symbolic Z-matrix:
 Charge =  0 Multiplicity = 1

                         Standard orientation:
 ---------------------------------------------------------------------
 Center     Atomic      Atomic             Coordinates (Angstroms)
 Number     Number       Type             X           Y           Z
 ---------------------------------------------------------------------
      1          6           0        4.600335   -0.134379   -0.339809
      2          6           0        5.123368   -1.434404    0.272038
      3          6           0        6.085014   -2.178931   -0.654627
      4          1           0        4.095780   -0.360379   -1.289174
      5          1           0        5.451563    0.515671   -0.585249
      6          1           0        4.271336   -2.081237    0.517524
      7          1           0        5.626570   -1.205306    1.220151
      8          1           0        6.953366   -1.555200   -0.890266
      9          1           0        5.590432   -2.436109   -1.596885
     10          1           0        6.446697   -3.105239   -0.197463
     11          6           0        3.637813    0.621295    0.574651
     12          6           0        3.114781    1.921320   -0.037197
     13          6           0        2.153135    2.665848    0.889469
     14          1           0        2.786586   -0.028755    0.820090
     15          1           0        4.142369    0.847295    1.524015
     16          1           0        2.611579    1.692222   -0.985310
     17          1           0        3.966813    2.568153   -0.282683
     18          1           0        2.647717    2.923025    1.831726
     19          1           0        1.284783    2.042117    1.125107
     20          1           0        1.791451    3.592155    0.432304
     21          6           0       -0.765825    0.337015   -0.364992
     22          6           0       -1.730693    1.201405   -0.892611
     23          6           0       -3.092241    0.919297   -0.747182
     24          6           0       -3.455097   -0.241171   -0.065317
     25          6           0       -2.517538   -1.122053    0.471638
     26          6           0       -1.161629   -0.819915    0.314250
     27          1           0        0.289668    0.563944   -0.482610
     28          1           0       -1.426219    2.100614   -1.420593
     29          1           0       -3.860178    1.571123   -1.145697
     30          1           0       -2.851746   -2.010838    0.992968
     31          1           0       -0.414498   -1.493031    0.725048
     32          7           0       -4.893522   -0.550429    0.094972
     33          8           0       -5.187285   -1.579211    0.699907
     34          8           0       -5.699959    0.241813   -0.387365
 ---------------------------------------------------------------------

 SCF Done:  E(RHF) =  -669.535069920     A.U. after   15 cycles
 E2 =    -0.2092186737D+01 EUMP2 =    -0.67162725665775D+03

 The electronic state is 1-A.
 Alpha  occ. eigenvalues --  -20.60755 -20.60750 -15.85809 -11.31181 -11.27749
 Alpha  occ. eigenvalues --  -11.27743 -11.27447 -11.26769 -11.26753 -11.22825
 Alpha  occ. eigenvalues --  -11.22539 -11.22401 -11.22298 -11.22166 -11.21717
 Alpha  occ. eigenvalues --   -1.59831  -1.39384  -1.19353  -1.09469  -1.08746
 Alpha  occ. eigenvalues --   -1.04755  -1.04513  -0.96942  -0.95580  -0.87947
 Alpha  occ. eigenvalues --   -0.86151  -0.82416  -0.80577  -0.79246  -0.77458
 Alpha  occ. eigenvalues --   -0.72027  -0.71154  -0.70537  -0.66112  -0.65003
 Alpha  occ. eigenvalues --   -0.64753  -0.62103  -0.61933  -0.60315  -0.58538
 Alpha  occ. eigenvalues --   -0.56342  -0.55108  -0.53610  -0.53349  -0.53068
 Alpha  occ. eigenvalues --   -0.52845  -0.50883  -0.48872  -0.48781  -0.48777
 Alpha  occ. eigenvalues --   -0.47653  -0.46773  -0.46718  -0.44788  -0.44761
 Alpha  occ. eigenvalues --   -0.37310  -0.36361
 Alpha virt. eigenvalues --    0.05037   0.11287   0.16413   0.18486   0.22804
 Alpha virt. eigenvalues --    0.23781   0.25091   0.25753   0.26960   0.28048
 Alpha virt. eigenvalues --    0.29517   0.30172   0.30828   0.30909   0.31734

 Mulliken charges:
               1
     1  C   -0.298746
     2  C   -0.299766
     3  C   -0.476296
     4  H    0.148607
     5  H    0.153046
     6  H    0.149784
     7  H    0.154158
     8  H    0.156871
     9  H    0.155789
    10  H    0.162652
    11  C   -0.298598
    12  C   -0.305579
    13  C   -0.481460
    14  H    0.140793
    15  H    0.155397
    16  H    0.144500
    17  H    0.159651
    18  H    0.161825
    19  H    0.153723
    20  H    0.162176
    21  C   -0.175777
    22  C   -0.221152
    23  C   -0.170645
    24  C    0.158503
    25  C   -0.170486
    26  C   -0.221841
    27  H    0.237193
    28  H    0.223974
    29  H    0.275618
    30  H    0.275568
    31  H    0.223330
    32  N    0.488000
    33  O   -0.460432
    34  O   -0.460381
 Sum of Mulliken charges =  -0.00000

 Dipole moment (field-independent basis, Debye):
    X=              5.3042    Y=              1.1336    Z=             -0.5259  Tot=              5.4494
 Quadrupole moment (field-independent basis, Debye-Ang):
   XX=           -128.7781   YY=            -91.9149   ZZ=            -94.1961
   XY=             -5.1753   XZ=              3.1937   YZ=             -2.4100

 Normal termination of Gaussian 16 at Thu May  6 02:41:56 2021.
