 Gaussian 16, Revision A.03,
 Gaussian 16:  EM64L-G16RevA.03 25-Dec-2016

 -------------
 #p 6-31g* mp2
 -------------

 ------------------------------------------------------
 Input file generated by CHIRIPA (05-May-2021 14:51:10)
 ------------------------------------------------------
 Symbolic Z-matrix:
 Charge =  0 Multiplicity = 1

                         Standard orientation:
 ---------------------------------------------------------------------
 Center     Atomic      Atomic             Coordinates (Angstroms)
 Number     Number       Type             X           Y           Z
 ---------------------------------------------------------------------
      1          6           0        3.437729   -0.251843   -0.154572
      2          6           0        3.685589    1.178509   -0.634824
      3          6           0        4.907306    1.292445   -1.547086
      4          1           0        4.328863   -0.613042    0.376806
      5          1           0        3.307264   -0.906765   -1.027183
      6          1           0        3.814172    1.830784    0.238457
      7          1           0        2.793691    1.536413   -1.164954
      8          1           0        4.784247    0.665175   -2.435900
      9          1           0        5.810527    0.961219   -1.024515
     10          1           0        5.065985    2.323325   -1.878700
     11          6           0        2.219773   -0.381886    0.758335
     12          6           0        1.971913   -1.812239    1.238587
     13          6           0        0.750196   -1.926175    2.150849
     14          1           0        2.350238    0.273036    1.630946
     15          1           0        1.328639   -0.020688    0.226957
     16          1           0        2.863811   -2.170142    1.768717
     17          1           0        1.843330   -2.464514    0.365306
     18          1           0       -0.153025   -1.594948    1.628278
     19          1           0        0.873255   -1.298904    3.039663
     20          1           0        0.591517   -2.957054    2.482463
     21          6           0       -2.432189    0.922650   -0.058580
     22          6           0       -3.317021    2.083655    0.396530
     23          6           0       -2.509146    3.288211    0.880448
     24          1           0       -1.780540    0.619083    0.772171
     25          1           0       -1.770409    1.269141   -0.864425
     26          1           0       -3.977897    1.734713    1.200331
     27          1           0       -3.966773    2.384367   -0.435342
     28          1           0       -1.861339    3.663625    0.081691
     29          1           0       -1.872527    3.010279    1.726657
     30          1           0       -3.161444    4.106503    1.201020
     31          6           0       -3.225313   -0.288920   -0.545183
     32          6           0       -2.340481   -1.449926   -1.000293
     33          6           0       -3.148356   -2.654481   -1.484211
     34          1           0       -3.887093   -0.635411    0.260662
     35          1           0       -3.876962    0.014647   -1.375934
     36          1           0       -1.690728   -1.750637   -0.168422
     37          1           0       -1.679605   -1.100983   -1.804094
     38          1           0       -3.784975   -2.376549   -2.330421
     39          1           0       -3.796162   -3.029895   -0.685455
     40          1           0       -2.496059   -3.472773   -1.804784
 ---------------------------------------------------------------------

 SCF Done:  E(RHF) =  -470.733333556     A.U. after   11 cycles
 E2 =    -0.1583369300D+01 EUMP2 =    -0.47231670285599D+03

 The electronic state is 1-A.
 Alpha  occ. eigenvalues --  -11.21642 -11.21621 -11.21595 -11.21583 -11.21442
 Alpha  occ. eigenvalues --  -11.21383 -11.21377 -11.21315 -11.21103 -11.21085
 Alpha  occ. eigenvalues --  -11.21071 -11.21059  -1.08472  -1.08406  -1.03564
 Alpha  occ. eigenvalues --   -1.03516  -0.96003  -0.95975  -0.87027  -0.86986
 Alpha  occ. eigenvalues --   -0.79645  -0.79570  -0.78335  -0.78169  -0.65170
 Alpha  occ. eigenvalues --   -0.64984  -0.61062  -0.60828  -0.59376  -0.59335
 Alpha  occ. eigenvalues --   -0.57616  -0.57583  -0.55300  -0.55263  -0.52700
 Alpha  occ. eigenvalues --   -0.52670  -0.52443  -0.52388  -0.50027  -0.49868
 Alpha  occ. eigenvalues --   -0.47999  -0.47873  -0.46792  -0.46551  -0.46024
 Alpha  occ. eigenvalues --   -0.45755  -0.45708  -0.45346  -0.43813  -0.43772
 Alpha virt. eigenvalues --    0.20332   0.23257   0.23734   0.24400   0.25619
 Alpha virt. eigenvalues --    0.26154   0.27134   0.27876   0.28240   0.29576
 Alpha virt. eigenvalues --    0.30618   0.31579   0.31657   0.31817   0.32085

 Mulliken charges:
               1
     1  C   -0.298307
     2  C   -0.299566
     3  C   -0.475704
     4  H    0.149516
     5  H    0.149489
     6  H    0.151983
     7  H    0.151917
     8  H    0.155082
     9  H    0.155153
    10  H    0.160181
    11  C   -0.300615
    12  C   -0.299107
    13  C   -0.484399
    14  H    0.149132
    15  H    0.152658
    16  H    0.151977
    17  H    0.152176
    18  H    0.162409
    19  H    0.155160
    20  H    0.160259
    21  C   -0.302614
    22  C   -0.299638
    23  C   -0.475794
    24  H    0.153372
    25  H    0.149212
    26  H    0.152172
    27  H    0.152057
    28  H    0.155170
    29  H    0.155698
    30  H    0.160259
    31  C   -0.297686
    32  C   -0.308116
    33  C   -0.475077
    34  H    0.149734
    35  H    0.149895
    36  H    0.159550
    37  H    0.151384
    38  H    0.155300
    39  H    0.155489
    40  H    0.160243
 Sum of Mulliken charges =  -0.00000

 Dipole moment (field-independent basis, Debye):
    X=             -0.0210    Y=              0.0042    Z=              0.0015  Tot=              0.0214
 Quadrupole moment (field-independent basis, Debye-Ang):
   XX=            -85.3465   YY=            -85.5687   ZZ=            -83.8292
   XY=             -0.5134   XZ=              0.8682   YZ=             -0.3921

 Normal termination of Gaussian 16 at Wed May  5 21:24:40 2021.
