 Gaussian 16, Revision A.03,
 Gaussian 16:  EM64L-G16RevA.03 25-Dec-2016

 -------------
 #p 6-31g* mp2
 -------------

 ------------------------------------------------------
 Input file generated by CHIRIPA (05-May-2021 14:51:14)
 ------------------------------------------------------
 Symbolic Z-matrix:
 Charge =  0 Multiplicity = 1

                         Standard orientation:
 ---------------------------------------------------------------------
 Center     Atomic      Atomic             Coordinates (Angstroms)
 Number     Number       Type             X           Y           Z
 ---------------------------------------------------------------------
      1          6           0        2.963577   -0.100116    0.346800
      2          6           0        1.904176   -1.158814    0.654718
      3          6           0        0.560651   -0.550756    1.058450
      4          1           0        3.099695    0.540609    1.228780
      5          1           0        2.597771    0.551065   -0.459143
      6          1           0        2.272448   -1.808655    1.458894
      7          1           0        1.770702   -1.797212   -0.228032
      8          1           0        0.167681    0.082264    0.256290
      9          1           0        0.672277    0.070757    1.952801
     10          1           0       -0.181971   -1.325274    1.274076
     11          6           0        4.312170   -0.692478   -0.058333
     12          6           0        5.371571    0.366219   -0.366251
     13          6           0        6.715096   -0.241839   -0.769983
     14          1           0        4.677976   -1.343659    0.747611
     15          1           0        4.176051   -1.333203   -0.940312
     16          1           0        5.505045    1.004617    0.516500
     17          1           0        5.003299    1.016060   -1.170427
     18          1           0        6.603469   -0.863351   -1.664334
     19          1           0        7.108066   -0.874859    0.032178
     20          1           0        7.457718    0.532679   -0.985609
     21          6           0       -4.285580    0.075492   -0.391202
     22          6           0       -4.414603   -1.400036   -0.011525
     23          6           0       -5.715597   -2.027810   -0.512633
     24          1           0       -5.142402    0.628842    0.016971
     25          1           0       -4.343162    0.172040   -1.484251
     26          1           0       -4.355407   -1.493913    1.080398
     27          1           0       -3.557275   -1.949904   -0.420487
     28          1           0       -5.779094   -1.963560   -1.603706
     29          1           0       -6.581761   -1.504978   -0.094294
     30          1           0       -5.787155   -3.082777   -0.230172
     31          6           0       -2.990168    0.717102    0.102734
     32          6           0       -2.861143    2.192631   -0.276942
     33          6           0       -1.560150    2.820404    0.224165
     34          1           0       -2.932585    0.620555    1.195784
     35          1           0       -2.133346    0.163752   -0.305438
     36          1           0       -3.718471    2.742499    0.132020
     37          1           0       -2.920339    2.286507   -1.368866
     38          1           0       -0.693986    2.297572   -0.194174
     39          1           0       -1.496652    2.756154    1.315239
     40          1           0       -1.488591    3.875371   -0.058296
 ---------------------------------------------------------------------

 SCF Done:  E(RHF) =  -470.732152848     A.U. after   11 cycles
 E2 =    -0.1583568126D+01 EUMP2 =    -0.47231572097386D+03

 The electronic state is 1-A.
 Alpha  occ. eigenvalues --  -11.21594 -11.21570 -11.21565 -11.21546 -11.21397
 Alpha  occ. eigenvalues --  -11.21338 -11.21329 -11.21238 -11.21066 -11.21049
 Alpha  occ. eigenvalues --  -11.21007 -11.20970  -1.08426  -1.08366  -1.03539
 Alpha  occ. eigenvalues --   -1.03461  -0.95962  -0.95931  -0.86987  -0.86947
 Alpha  occ. eigenvalues --   -0.79692  -0.79462  -0.78289  -0.78102  -0.65116
 Alpha  occ. eigenvalues --   -0.64960  -0.61038  -0.60785  -0.59340  -0.59308
 Alpha  occ. eigenvalues --   -0.57670  -0.57439  -0.55265  -0.55226  -0.52717
 Alpha  occ. eigenvalues --   -0.52616  -0.52446  -0.52266  -0.49971  -0.49882
 Alpha  occ. eigenvalues --   -0.48106  -0.47673  -0.46801  -0.46469  -0.45895
 Alpha  occ. eigenvalues --   -0.45737  -0.45655  -0.45277  -0.43754  -0.43714
 Alpha virt. eigenvalues --    0.21685   0.23112   0.23597   0.24686   0.25986
 Alpha virt. eigenvalues --    0.26608   0.27013   0.27123   0.28133   0.29768
 Alpha virt. eigenvalues --    0.30073   0.31384   0.31706   0.32050   0.32148

 Mulliken charges:
               1
     1  C   -0.298281
     2  C   -0.300183
     3  C   -0.479825
     4  H    0.149956
     5  H    0.148765
     6  H    0.151636
     7  H    0.151152
     8  H    0.161238
     9  H    0.155117
    10  H    0.160750
    11  C   -0.298192
    12  C   -0.299636
    13  C   -0.475699
    14  H    0.149607
    15  H    0.149471
    16  H    0.152032
    17  H    0.151882
    18  H    0.155109
    19  H    0.155179
    20  H    0.160252
    21  C   -0.297854
    22  C   -0.299668
    23  C   -0.475605
    24  H    0.149253
    25  H    0.148913
    26  H    0.151819
    27  H    0.151695
    28  H    0.155066
    29  H    0.155180
    30  H    0.160058
    31  C   -0.301919
    32  C   -0.300252
    33  C   -0.477197
    34  H    0.149982
    35  H    0.155271
    36  H    0.151597
    37  H    0.151040
    38  H    0.156906
    39  H    0.155694
    40  H    0.159689
 Sum of Mulliken charges =  -0.00000

 Dipole moment (field-independent basis, Debye):
    X=              0.0096    Y=              0.0008    Z=              0.0194  Tot=              0.0217
 Quadrupole moment (field-independent basis, Debye-Ang):
   XX=            -86.5717   YY=            -85.2741   ZZ=            -83.2098
   XY=             -0.3163   XZ=             -0.0991   YZ=             -0.0036

 Normal termination of Gaussian 16 at Wed May  5 21:37:31 2021.
