 Gaussian 16, Revision A.03,
 Gaussian 16:  EM64L-G16RevA.03 25-Dec-2016

 -------------
 #p 6-31g* mp2
 -------------

 ------------------------------------------------------
 Input file generated by CHIRIPA (05-May-2021 14:57:22)
 ------------------------------------------------------
 Symbolic Z-matrix:
 Charge =  0 Multiplicity = 1

                         Standard orientation:
 ---------------------------------------------------------------------
 Center     Atomic      Atomic             Coordinates (Angstroms)
 Number     Number       Type             X           Y           Z
 ---------------------------------------------------------------------
      1          6           0       -6.639750   -0.645785   -0.433252
      2          6           0       -6.306980    0.647387   -0.016729
      3          6           0       -4.975307    0.992376    0.232623
      4          6           0       -3.997444    0.014952    0.054530
      5          6           0       -4.297284   -1.281975   -0.359433
      6          6           0       -5.635610   -1.604648   -0.602976
      7          1           0       -7.676810   -0.905114   -0.624699
      8          1           0       -7.084720    1.394095    0.115912
      9          1           0       -4.689711    1.985999    0.555989
     10          1           0       -3.499983   -2.004808   -0.482892
     11          1           0       -5.891111   -2.609729   -0.926358
     12          7           0       -2.584139    0.368365    0.315432
     13          8           0       -1.741224   -0.510918    0.151133
     14          8           0       -2.346067    1.517959    0.679287
     15          6           0        1.872642    0.922729    0.171824
     16          6           0        2.848136    1.669212   -0.497276
     17          6           0        4.157705    1.191745   -0.604995
     18          6           0        4.458310   -0.041726   -0.029256
     19          6           0        3.508599   -0.808829    0.643717
     20          6           0        2.205400   -0.311733    0.739184
     21          1           0        0.857811    1.301262    0.250744
     22          1           0        2.592573    2.628239   -0.938863
     23          1           0        4.932489    1.749031   -1.117402
     24          1           0        3.793502   -1.761378    1.073715
     25          1           0        1.449871   -0.893622    1.259402
     26          7           0        5.841320   -0.557589   -0.136809
     27          8           0        6.080705   -1.647197    0.379028
     28          8           0        6.659752    0.137452   -0.734908
 ---------------------------------------------------------------------

 SCF Done:  E(RHF) =  -868.342253457     A.U. after   16 cycles
 E2 =    -0.2598627992D+01 EUMP2 =    -0.87094088144904D+03

 The electronic state is 1-A.
 Alpha  occ. eigenvalues --  -20.62233 -20.62218 -20.59794 -20.59788 -15.87183
 Alpha  occ. eigenvalues --  -15.84839 -11.32124 -11.29900 -11.28634 -11.28628
 Alpha  occ. eigenvalues --  -11.28293 -11.27547 -11.27536 -11.26491 -11.26427
 Alpha  occ. eigenvalues --  -11.25814 -11.25348 -11.25188  -1.61257  -1.58878
 Alpha  occ. eigenvalues --   -1.40817  -1.38440  -1.20251  -1.18020  -1.09730
 Alpha  occ. eigenvalues --   -1.07404  -1.05584  -1.03392  -0.96635  -0.94300
 Alpha  occ. eigenvalues --   -0.87003  -0.84759  -0.83482  -0.81171  -0.78575
 Alpha  occ. eigenvalues --   -0.76312  -0.73417  -0.72526  -0.71349  -0.71061
 Alpha  occ. eigenvalues --   -0.70201  -0.68960  -0.65905  -0.65581  -0.63635
 Alpha  occ. eigenvalues --   -0.63346  -0.62934  -0.60759  -0.56105  -0.53940
 Alpha  occ. eigenvalues --   -0.53674  -0.53667  -0.51733  -0.51448  -0.50193
 Alpha  occ. eigenvalues --   -0.50135  -0.47835  -0.47785  -0.46308  -0.43916
 Alpha  occ. eigenvalues --   -0.38202  -0.37166  -0.35888  -0.35032
 Alpha virt. eigenvalues --    0.03922   0.06227   0.10497   0.12652   0.15514
 Alpha virt. eigenvalues --    0.17836   0.20679   0.23080   0.26631   0.27540
 Alpha virt. eigenvalues --    0.28689   0.29974   0.30456   0.31730   0.32827

 Mulliken charges:
               1
     1  C   -0.169138
     2  C   -0.218614
     3  C   -0.170083
     4  C    0.158144
     5  C   -0.170108
     6  C   -0.218594
     7  H    0.228942
     8  H    0.226251
     9  H    0.276197
    10  H    0.276405
    11  H    0.226576
    12  N    0.490158
    13  O   -0.465755
    14  O   -0.463252
    15  C   -0.175999
    16  C   -0.221509
    17  C   -0.172716
    18  C    0.156448
    19  C   -0.173719
    20  C   -0.220813
    21  H    0.249248
    22  H    0.219697
    23  H    0.270540
    24  H    0.270619
    25  H    0.231290
    26  N    0.488401
    27  O   -0.464169
    28  O   -0.464449
 Sum of Mulliken charges =  -0.00000

 Dipole moment (field-independent basis, Debye):
    X=            -10.7775    Y=              0.5515    Z=             -0.5114  Tot=             10.8037
 Quadrupole moment (field-independent basis, Debye-Ang):
   XX=           -109.3282   YY=            -97.6968   ZZ=           -104.8846
   XY=             13.3000   XZ=              4.4525   YZ=             -1.0971

 Normal termination of Gaussian 16 at Fri May  7 04:48:52 2021.
