 Gaussian 16, Revision A.03,
 Gaussian 16:  EM64L-G16RevA.03 25-Dec-2016

 -------------
 #p 6-31g* mp2
 -------------

 ------------------------------------------------------
 Input file generated by CHIRIPA (05-May-2021 14:53:13)
 ------------------------------------------------------
 Symbolic Z-matrix:
 Charge =  0 Multiplicity = 1

                         Standard orientation:
 ---------------------------------------------------------------------
 Center     Atomic      Atomic             Coordinates (Angstroms)
 Number     Number       Type             X           Y           Z
 ---------------------------------------------------------------------
      1          6           0        3.510109    0.672233    0.008975
      2          6           0        3.331584    1.742578   -1.068279
      3          6           0        2.364147    2.849265   -0.647441
      4          1           0        2.531200    0.234323    0.247549
      5          1           0        3.873265    1.146925    0.931027
      6          1           0        2.970191    1.265807   -1.988442
      7          1           0        4.311058    2.177857   -1.304453
      8          1           0        2.722994    3.351317    0.256867
      9          1           0        1.374509    2.434084   -0.431008
     10          1           0        2.251308    3.603721   -1.432249
     11          6           0        4.474361   -0.440940   -0.396971
     12          6           0        4.652886   -1.511285    0.680283
     13          6           0        5.620323   -2.617972    0.259445
     14          1           0        4.111205   -0.915632   -1.319023
     15          1           0        5.453269   -0.003030   -0.635545
     16          1           0        3.673412   -1.946564    0.916458
     17          1           0        5.014278   -1.034513    1.600447
     18          1           0        6.609960   -2.202791    0.043013
     19          1           0        5.261475   -3.120024   -0.644863
     20          1           0        5.733161   -3.372427    1.044253
     21          6           0       -1.943239    0.961967    2.120393
     22          6           0       -1.536366    1.266984    0.817342
     23          6           0       -2.180537    0.689826   -0.281058
     24          6           0       -3.232595   -0.192082   -0.038779
     25          6           0       -3.661177   -0.515944    1.247581
     26          6           0       -3.002478    0.073043    2.330982
     27          1           0       -1.437189    1.414911    2.967830
     28          1           0       -0.714051    1.956986    0.650792
     29          1           0       -1.886025    0.908343   -1.300337
     30          1           0       -4.484106   -1.207426    1.381967
     31          1           0       -3.320607   -0.165683    3.341847
     32          7           0       -3.922241   -0.809356   -1.193666
     33          8           0       -4.846399   -1.583236   -0.953506
     34          8           0       -3.525566   -0.507606   -2.317158
 ---------------------------------------------------------------------

 SCF Done:  E(RHF) =  -669.535583018     A.U. after   15 cycles
 E2 =    -0.2090914953D+01 EUMP2 =    -0.67162649797130D+03

 The electronic state is 1-A.
 Alpha  occ. eigenvalues --  -20.60762 -20.60757 -15.85815 -11.31180 -11.27753
 Alpha  occ. eigenvalues --  -11.27747 -11.27489 -11.26764 -11.26737 -11.22227
 Alpha  occ. eigenvalues --  -11.21997 -11.21940 -11.21930 -11.21759 -11.21314
 Alpha  occ. eigenvalues --   -1.59838  -1.39391  -1.19353  -1.08922  -1.08746
 Alpha  occ. eigenvalues --   -1.04758  -1.04045  -0.96513  -0.95582  -0.87535
 Alpha  occ. eigenvalues --   -0.86154  -0.82417  -0.80115  -0.78714  -0.77464
 Alpha  occ. eigenvalues --   -0.72033  -0.71161  -0.70459  -0.65561  -0.65004
 Alpha  occ. eigenvalues --   -0.64771  -0.62150  -0.61413  -0.59879  -0.58108
 Alpha  occ. eigenvalues --   -0.55831  -0.55246  -0.53205  -0.53092  -0.53061
 Alpha  occ. eigenvalues --   -0.52727  -0.50450  -0.48796  -0.48789  -0.48420
 Alpha  occ. eigenvalues --   -0.47133  -0.46262  -0.46161  -0.44797  -0.44281
 Alpha  occ. eigenvalues --   -0.37332  -0.36360
 Alpha virt. eigenvalues --    0.05069   0.11266   0.16521   0.19887   0.22610
 Alpha virt. eigenvalues --    0.23779   0.25254   0.26494   0.27244   0.28304
 Alpha virt. eigenvalues --    0.28637   0.30111   0.31180   0.31550   0.32257

 Mulliken charges:
               1
     1  C   -0.299137
     2  C   -0.299789
     3  C   -0.480252
     4  H    0.148276
     5  H    0.148598
     6  H    0.155334
     7  H    0.155216
     8  H    0.156339
     9  H    0.146013
    10  H    0.165088
    11  C   -0.298835
    12  C   -0.300104
    13  C   -0.476069
    14  H    0.152034
    15  H    0.150703
    16  H    0.152458
    17  H    0.151104
    18  H    0.155573
    19  H    0.156846
    20  H    0.160971
    21  C   -0.171930
    22  C   -0.225850
    23  C   -0.173271
    24  C    0.158537
    25  C   -0.171018
    26  C   -0.218547
    27  H    0.226460
    28  H    0.233818
    29  H    0.275334
    30  H    0.275591
    31  H    0.223389
    32  N    0.488126
    33  O   -0.460531
    34  O   -0.460477
 Sum of Mulliken charges =  -0.00000

 Dipole moment (field-independent basis, Debye):
    X=              2.5850    Y=              2.1503    Z=              4.0385  Tot=              5.2551
 Quadrupole moment (field-independent basis, Debye-Ang):
   XX=           -108.4412   YY=            -95.3853   ZZ=            -93.2622
   XY=             -4.7622   XZ=            -15.3635   YZ=             -2.6121

 Normal termination of Gaussian 16 at Thu May  6 13:42:40 2021.
