 Gaussian 16, Revision A.03,
 Gaussian 16:  EM64L-G16RevA.03 25-Dec-2016

 -------------
 #p 6-31g* mp2
 -------------

 ------------------------------------------------------
 Input file generated by CHIRIPA (05-May-2021 14:57:25)
 ------------------------------------------------------
 Symbolic Z-matrix:
 Charge =  0 Multiplicity = 1

                         Standard orientation:
 ---------------------------------------------------------------------
 Center     Atomic      Atomic             Coordinates (Angstroms)
 Number     Number       Type             X           Y           Z
 ---------------------------------------------------------------------
      1          6           0        4.488408    2.252746    0.467942
      2          6           0        5.195693    1.104506    0.839174
      3          6           0        4.727953   -0.163809    0.482600
      4          6           0        3.544073   -0.247459   -0.248645
      5          6           0        2.816831    0.877880   -0.633380
      6          6           0        3.303323    2.135974   -0.265856
      7          1           0        4.859043    3.234033    0.749190
      8          1           0        6.116337    1.192169    1.409064
      9          1           0        5.255608   -1.069221    0.756877
     10          1           0        1.902159    0.758633   -1.201335
     11          1           0        2.751949    3.025984   -0.555535
     12          7           0        3.038971   -1.584757   -0.631929
     13          8           0        1.993378   -1.631554   -1.276275
     14          8           0        3.698230   -2.560812   -0.280744
     15          6           0       -1.308401   -0.465330    1.049245
     16          6           0       -2.425320   -0.745799    1.843192
     17          6           0       -3.714891   -0.477108    1.374831
     18          6           0       -3.851504    0.074659    0.101969
     19          6           0       -2.758385    0.365310   -0.712833
     20          6           0       -1.478199    0.088354   -0.223988
     21          1           0       -0.310278   -0.677266    1.421035
     22          1           0       -2.296464   -1.175807    2.832401
     23          1           0       -4.596949   -0.684343    1.968502
     24          1           0       -2.918566    0.793849   -1.694727
     25          1           0       -0.612607    0.307206   -0.842777
     26          7           0       -5.211746    0.363485   -0.404706
     27          8           0       -5.305313    0.849688   -1.529645
     28          8           0       -6.158582    0.098194    0.332695
 ---------------------------------------------------------------------

 SCF Done:  E(RHF) =  -868.338037032     A.U. after   16 cycles
 E2 =    -0.2599830965D+01 EUMP2 =    -0.87093786799724D+03

 The electronic state is 1-A.
 Alpha  occ. eigenvalues --  -20.61830 -20.61794 -20.60521 -20.60516 -15.86850
 Alpha  occ. eigenvalues --  -15.85573 -11.32175 -11.30875 -11.28795 -11.28655
 Alpha  occ. eigenvalues --  -11.28364 -11.27702 -11.27648 -11.27446 -11.27443
 Alpha  occ. eigenvalues --  -11.27141 -11.26441 -11.26429  -1.60883  -1.59598
 Alpha  occ. eigenvalues --   -1.40440  -1.39153  -1.20315  -1.19040  -1.09703
 Alpha  occ. eigenvalues --   -1.08436  -1.05705  -1.04442  -0.96555  -0.95284
 Alpha  occ. eigenvalues --   -0.87103  -0.85838  -0.83383  -0.82128  -0.78468
 Alpha  occ. eigenvalues --   -0.77190  -0.73058  -0.72215  -0.71793  -0.71405
 Alpha  occ. eigenvalues --   -0.70920  -0.70128  -0.65956  -0.65704  -0.64692
 Alpha  occ. eigenvalues --   -0.64460  -0.63058  -0.61785  -0.56163  -0.54919
 Alpha  occ. eigenvalues --   -0.54033  -0.53794  -0.52759  -0.52526  -0.49836
 Alpha  occ. eigenvalues --   -0.49802  -0.48552  -0.48545  -0.45844  -0.44574
 Alpha  occ. eigenvalues --   -0.38264  -0.37307  -0.36984  -0.36041
 Alpha virt. eigenvalues --    0.04041   0.05356   0.10284   0.11617   0.15598
 Alpha virt. eigenvalues --    0.16871   0.19220   0.21830   0.24882   0.26962
 Alpha virt. eigenvalues --    0.28422   0.28669   0.30128   0.30808   0.32262

 Mulliken charges:
               1
     1  C   -0.170312
     2  C   -0.217860
     3  C   -0.170565
     4  C    0.156476
     5  C   -0.177900
     6  C   -0.218619
     7  H    0.229386
     8  H    0.226938
     9  H    0.277857
    10  H    0.273784
    11  H    0.226643
    12  N    0.487124
    13  O   -0.465872
    14  O   -0.454956
    15  C   -0.168636
    16  C   -0.218938
    17  C   -0.171310
    18  C    0.158587
    19  C   -0.172793
    20  C   -0.217773
    21  H    0.225918
    22  H    0.222829
    23  H    0.274626
    24  H    0.274448
    25  H    0.225458
    26  N    0.488125
    27  O   -0.461424
    28  O   -0.461241
 Sum of Mulliken charges =  -0.00000

 Dipole moment (field-independent basis, Debye):
    X=              6.9465    Y=              3.6875    Z=              3.2116  Tot=              8.4950
 Quadrupole moment (field-independent basis, Debye-Ang):
   XX=           -125.1417   YY=           -106.6394   ZZ=           -101.3517
   XY=             19.9825   XZ=             -1.5967   YZ=             -4.2825

 Normal termination of Gaussian 16 at Thu May  6 08:18:07 2021.
