 Gaussian 16, Revision A.03,
 Gaussian 16:  EM64L-G16RevA.03 25-Dec-2016

 -------------
 #p 6-31g* mp2
 -------------

 ------------------------------------------------------
 Input file generated by CHIRIPA (05-May-2021 14:57:21)
 ------------------------------------------------------
 Symbolic Z-matrix:
 Charge =  0 Multiplicity = 1

                         Standard orientation:
 ---------------------------------------------------------------------
 Center     Atomic      Atomic             Coordinates (Angstroms)
 Number     Number       Type             X           Y           Z
 ---------------------------------------------------------------------
      1          6           0        6.843934    0.271838    0.460315
      2          6           0        5.867346    1.128715    0.978542
      3          6           0        4.512988    0.903795    0.714585
      4          6           0        4.169195   -0.192445   -0.074943
      5          6           0        5.118789   -1.064178   -0.605644
      6          6           0        6.467203   -0.819949   -0.328733
      7          1           0        7.893724    0.454061    0.670394
      8          1           0        6.157003    1.977394    1.591639
      9          1           0        3.736295    1.551273    1.103092
     10          1           0        4.799294   -1.901933   -1.213515
     11          1           0        7.223469   -1.487076   -0.732524
     12          7           0        2.738543   -0.440778   -0.361239
     13          8           0        2.461623   -1.413533   -1.059595
     14          8           0        1.921208    0.342035    0.118139
     15          6           0       -2.779962    2.020865   -0.452618
     16          6           0       -2.305850    0.764696   -0.060472
     17          6           0       -3.197086   -0.278391    0.208262
     18          6           0       -4.562085   -0.029206    0.074198
     19          6           0       -5.065328    1.211305   -0.314610
     20          6           0       -4.155761    2.239775   -0.578214
     21          1           0       -2.080509    2.825483   -0.659384
     22          1           0       -1.237917    0.591813    0.037892
     23          1           0       -2.857287   -1.260619    0.513520
     24          1           0       -6.135495    1.353352   -0.403963
     25          1           0       -4.526818    3.214311   -0.882583
     26          7           0       -5.515299   -1.125737    0.355980
     27          8           0       -6.713139   -0.880632    0.230524
     28          8           0       -5.046539   -2.209542    0.696961
 ---------------------------------------------------------------------

 SCF Done:  E(RHF) =  -868.340506571     A.U. after   16 cycles
 E2 =    -0.2598229964D+01 EUMP2 =    -0.87093873653509D+03

 The electronic state is 1-A.
 Alpha  occ. eigenvalues --  -20.61742 -20.61723 -20.59952 -20.59939 -15.86748
 Alpha  occ. eigenvalues --  -15.84990 -11.31845 -11.30183 -11.28393 -11.28360
 Alpha  occ. eigenvalues --  -11.28066 -11.27336 -11.27314 -11.26766 -11.26608
 Alpha  occ. eigenvalues --  -11.26387 -11.25787 -11.25436  -1.60784  -1.59026
 Alpha  occ. eigenvalues --   -1.40346  -1.38584  -1.19988  -1.18313  -1.09433
 Alpha  occ. eigenvalues --   -1.07742  -1.05350  -1.03662  -0.96314  -0.94615
 Alpha  occ. eigenvalues --   -0.86760  -0.85066  -0.83157  -0.81433  -0.78234
 Alpha  occ. eigenvalues --   -0.76503  -0.72984  -0.72078  -0.71214  -0.71091
 Alpha  occ. eigenvalues --   -0.70346  -0.69433  -0.65645  -0.65349  -0.63952
 Alpha  occ. eigenvalues --   -0.63613  -0.62700  -0.60986  -0.55858  -0.54185
 Alpha  occ. eigenvalues --   -0.53693  -0.53438  -0.52040  -0.51718  -0.49745
 Alpha  occ. eigenvalues --   -0.49701  -0.47979  -0.47950  -0.45807  -0.44028
 Alpha  occ. eigenvalues --   -0.37950  -0.36940  -0.36305  -0.35266
 Alpha virt. eigenvalues --    0.04288   0.05979   0.10719   0.12381   0.15840
 Alpha virt. eigenvalues --    0.17530   0.20881   0.22618   0.26814   0.27712
 Alpha virt. eigenvalues --    0.28674   0.29334   0.30478   0.31879   0.32271

 Mulliken charges:
               1
     1  C   -0.169760
     2  C   -0.218464
     3  C   -0.170590
     4  C    0.157625
     5  C   -0.170062
     6  C   -0.218531
     7  H    0.227868
     8  H    0.224965
     9  H    0.274105
    10  H    0.277117
    11  H    0.225792
    12  N    0.491085
    13  O   -0.455869
    14  O   -0.471495
    15  C   -0.173146
    16  C   -0.228341
    17  C   -0.173393
    18  C    0.158182
    19  C   -0.173540
    20  C   -0.218703
    21  H    0.224283
    22  H    0.250500
    23  H    0.276681
    24  H    0.271811
    25  H    0.218946
    26  N    0.488066
    27  O   -0.463911
    28  O   -0.461223
 Sum of Mulliken charges =  -0.00000

 Dipole moment (field-independent basis, Debye):
    X=              9.0526    Y=              4.6390    Z=              0.0011  Tot=             10.1721
 Quadrupole moment (field-independent basis, Debye-Ang):
   XX=            -91.3253   YY=           -101.1475   ZZ=           -104.8782
   XY=            -18.7965   XZ=              8.8043   YZ=              1.9946

 Normal termination of Gaussian 16 at Wed May  5 17:43:25 2021.
