 Gaussian 16, Revision A.03,
 Gaussian 16:  EM64L-G16RevA.03 25-Dec-2016

 -------------
 #p 6-31g* mp2
 -------------

 ------------------------------------------------------
 Input file generated by CHIRIPA (05-May-2021 14:55:24)
 ------------------------------------------------------
 Symbolic Z-matrix:
 Charge =  0 Multiplicity = 1

                         Standard orientation:
 ---------------------------------------------------------------------
 Center     Atomic      Atomic             Coordinates (Angstroms)
 Number     Number       Type             X           Y           Z
 ---------------------------------------------------------------------
      1          6           0        3.551200    2.689040    0.086191
      2          6           0        2.368470    2.156458   -0.437285
      3          6           0        2.194948    0.772628   -0.534518
      4          6           0        3.229355   -0.053073   -0.096899
      5          6           0        4.419392    0.447192    0.429254
      6          6           0        4.571088    1.834214    0.517030
      7          1           0        3.677519    3.765272    0.158051
      8          1           0        1.574722    2.817923   -0.772654
      9          1           0        1.289601    0.333532   -0.935716
     10          1           0        5.192836   -0.237512    0.755417
     11          1           0        5.490689    2.245017    0.923995
     12          7           0        3.057208   -1.519761   -0.194829
     13          8           0        3.983551   -2.225827    0.197594
     14          8           0        1.999195   -1.935515   -0.662157
     15          6           0       -3.406375   -0.253311    0.085035
     16          6           0       -2.816786   -1.650862    0.277959
     17          6           0       -1.288320   -1.658220    0.238818
     18          1           0       -3.060781    0.154208   -0.874881
     19          1           0       -3.015441    0.413047    0.866403
     20          1           0       -3.209790   -2.314722   -0.502714
     21          1           0       -3.163978   -2.055177    1.237440
     22          1           0       -0.879671   -1.018529    1.027741
     23          1           0       -0.925743   -1.279549   -0.722300
     24          1           0       -0.887993   -2.667187    0.378766
     25          6           0       -4.933405   -0.229647    0.121708
     26          6           0       -5.522994    1.167905   -0.071217
     27          6           0       -7.051460    1.175264   -0.032075
     28          1           0       -5.324339   -0.896003   -0.659660
     29          1           0       -5.279000   -0.637165    1.081624
     30          1           0       -5.175802    1.572220   -1.030697
     31          1           0       -5.129990    1.831766    0.709457
     32          1           0       -7.414037    0.796593    0.929043
     33          1           0       -7.460109    0.535572   -0.820999
     34          1           0       -7.451788    2.184229   -0.172024
 ---------------------------------------------------------------------

 SCF Done:  E(RHF) =  -669.535608401     A.U. after   15 cycles
 E2 =    -0.2091511325D+01 EUMP2 =    -0.67162711972664D+03

 The electronic state is 1-A.
 Alpha  occ. eigenvalues --  -20.60786 -20.60771 -15.85815 -11.31173 -11.27749
 Alpha  occ. eigenvalues --  -11.27725 -11.27494 -11.26764 -11.26750 -11.21583
 Alpha  occ. eigenvalues --  -11.21276 -11.21213 -11.21122 -11.21054 -11.20325
 Alpha  occ. eigenvalues --   -1.59847  -1.39401  -1.19348  -1.08748  -1.08243
 Alpha  occ. eigenvalues --   -1.04750  -1.03260  -0.95713  -0.95557  -0.86698
 Alpha  occ. eigenvalues --   -0.86148  -0.82416  -0.79340  -0.78076  -0.77440
 Alpha  occ. eigenvalues --   -0.72040  -0.71161  -0.70459  -0.65005  -0.64880
 Alpha  occ. eigenvalues --   -0.64755  -0.62103  -0.60660  -0.59070  -0.57302
 Alpha  occ. eigenvalues --   -0.55258  -0.54986  -0.53083  -0.52862  -0.52309
 Alpha  occ. eigenvalues --   -0.52111  -0.49662  -0.48808  -0.48791  -0.47624
 Alpha  occ. eigenvalues --   -0.46387  -0.45602  -0.45530  -0.44795  -0.43467
 Alpha  occ. eigenvalues --   -0.37333  -0.36352
 Alpha virt. eigenvalues --    0.05048   0.11282   0.16534   0.21061   0.23019
 Alpha virt. eigenvalues --    0.24258   0.26022   0.26948   0.27689   0.27768
 Alpha virt. eigenvalues --    0.29198   0.30537   0.31569   0.31862   0.32523

 Mulliken charges:
               1
     1  C   -0.170545
     2  C   -0.220235
     3  C   -0.171433
     4  C    0.156610
     5  C   -0.170652
     6  C   -0.218849
     7  H    0.225522
     8  H    0.223876
     9  H    0.280675
    10  H    0.275482
    11  H    0.223329
    12  N    0.489372
    13  O   -0.460519
    14  O   -0.460576
    15  C   -0.297454
    16  C   -0.302373
    17  C   -0.471321
    18  H    0.145144
    19  H    0.146238
    20  H    0.152308
    21  H    0.150724
    22  H    0.146848
    23  H    0.154827
    24  H    0.174080
    25  C   -0.297683
    26  C   -0.299206
    27  C   -0.475530
    28  H    0.150264
    29  H    0.150126
    30  H    0.150253
    31  H    0.150303
    32  H    0.155518
    33  H    0.155669
    34  H    0.159210
 Sum of Mulliken charges =  -0.00000

 Dipole moment (field-independent basis, Debye):
    X=              0.7235    Y=              5.0288    Z=              0.3334  Tot=              5.0915
 Quadrupole moment (field-independent basis, Debye-Ang):
   XX=            -88.5402   YY=            -95.5204   ZZ=            -93.8601
   XY=             16.5262   XZ=              3.2312   YZ=             -0.6564

 Normal termination of Gaussian 16 at Thu May  6 16:01:21 2021.
