 Gaussian 16, Revision A.03,
 Gaussian 16:  EM64L-G16RevA.03 25-Dec-2016

 -------------
 #p 6-31g* mp2
 -------------

 ------------------------------------------------------
 Input file generated by CHIRIPA (05-May-2021 14:51:12)
 ------------------------------------------------------
 Symbolic Z-matrix:
 Charge =  0 Multiplicity = 1

                         Standard orientation:
 ---------------------------------------------------------------------
 Center     Atomic      Atomic             Coordinates (Angstroms)
 Number     Number       Type             X           Y           Z
 ---------------------------------------------------------------------
      1          6           0       -3.522051    0.122321   -0.297724
      2          6           0       -4.330618    1.377203    0.033145
      3          6           0       -5.166450    1.870465   -1.148325
      4          1           0       -2.863927    0.332540   -1.151905
      5          1           0       -4.208183   -0.673091   -0.620115
      6          1           0       -3.643287    2.169583    0.356141
      7          1           0       -4.986755    1.164029    0.886760
      8          1           0       -5.874738    1.099190   -1.467800
      9          1           0       -4.523637    2.110457   -2.001435
     10          1           0       -5.736390    2.768349   -0.889807
     11          6           0       -2.681318   -0.382928    0.873438
     12          6           0       -1.872750   -1.637810    0.542569
     13          6           0       -1.036919   -2.131072    1.724039
     14          1           0       -1.995185    0.412484    1.195829
     15          1           0       -3.339442   -0.593148    1.727619
     16          1           0       -1.216614   -1.424637   -0.311046
     17          1           0       -2.560082   -2.430190    0.219573
     18          1           0       -1.679732   -2.371064    2.577149
     19          1           0       -0.328631   -1.359797    2.043514
     20          1           0       -0.466979   -3.028957    1.465521
     21          6           0        2.997455    0.885809   -0.245670
     22          6           0        4.132726    1.615327    0.473321
     23          6           0        3.909774    3.126040    0.549703
     24          1           0        2.892255    1.294117   -1.260146
     25          1           0        2.051437    1.091963    0.273894
     26          1           0        5.076525    1.406740   -0.046633
     27          1           0        4.235361    1.205103    1.486138
     28          1           0        2.983067    3.352002    1.087063
     29          1           0        3.829010    3.554785   -0.454416
     30          1           0        4.733187    3.627697    1.067575
     31          6           0        3.205914   -0.625202   -0.330044
     32          6           0        2.070643   -1.354720   -1.049035
     33          6           0        2.293595   -2.865432   -1.125417
     34          1           0        4.151932   -0.831355   -0.849607
     35          1           0        3.311113   -1.033510    0.684432
     36          1           0        1.968008   -0.944496   -2.061852
     37          1           0        1.126844   -1.146133   -0.529081
     38          1           0        2.374358   -3.294177   -0.121297
     39          1           0        3.220302   -3.091395   -1.662777
     40          1           0        1.470182   -3.367089   -1.643288
 ---------------------------------------------------------------------

 SCF Done:  E(RHF) =  -470.733227381     A.U. after   11 cycles
 E2 =    -0.1583264062D+01 EUMP2 =    -0.47231649144366D+03

 The electronic state is 1-A.
 Alpha  occ. eigenvalues --  -11.21622 -11.21610 -11.21608 -11.21577 -11.21425
 Alpha  occ. eigenvalues --  -11.21423 -11.21361 -11.21360 -11.21119 -11.21093
 Alpha  occ. eigenvalues --  -11.21074 -11.21072  -1.08469  -1.08425  -1.03593
 Alpha  occ. eigenvalues --   -1.03501  -0.96024  -0.95969  -0.87021  -0.87003
 Alpha  occ. eigenvalues --   -0.79672  -0.79555  -0.78309  -0.78213  -0.65235
 Alpha  occ. eigenvalues --   -0.64951  -0.61200  -0.60725  -0.59420  -0.59293
 Alpha  occ. eigenvalues --   -0.57666  -0.57539  -0.55354  -0.55208  -0.52701
 Alpha  occ. eigenvalues --   -0.52673  -0.52426  -0.52414  -0.49954  -0.49929
 Alpha  occ. eigenvalues --   -0.48039  -0.47854  -0.46837  -0.46485  -0.45935
 Alpha  occ. eigenvalues --   -0.45771  -0.45755  -0.45478  -0.43807  -0.43787
 Alpha virt. eigenvalues --    0.20264   0.23241   0.23492   0.25020   0.26099
 Alpha virt. eigenvalues --    0.26639   0.26818   0.27896   0.28007   0.29078
 Alpha virt. eigenvalues --    0.30578   0.31248   0.31699   0.32135   0.32370

 Mulliken charges:
               1
     1  C   -0.298456
     2  C   -0.299668
     3  C   -0.475737
     4  H    0.150079
     5  H    0.149584
     6  H    0.151956
     7  H    0.151913
     8  H    0.155176
     9  H    0.155291
    10  H    0.160284
    11  C   -0.297893
    12  C   -0.306152
    13  C   -0.477042
    14  H    0.148889
    15  H    0.149794
    16  H    0.157395
    17  H    0.152455
    18  H    0.155697
    19  H    0.154112
    20  H    0.161986
    21  C   -0.298213
    22  C   -0.299673
    23  C   -0.475706
    24  H    0.149626
    25  H    0.148420
    26  H    0.152120
    27  H    0.152088
    28  H    0.154994
    29  H    0.155169
    30  H    0.160406
    31  C   -0.297722
    32  C   -0.308600
    33  C   -0.475929
    34  H    0.149529
    35  H    0.149950
    36  H    0.151269
    37  H    0.161490
    38  H    0.155631
    39  H    0.155186
    40  H    0.160301
 Sum of Mulliken charges =  -0.00000

 Dipole moment (field-independent basis, Debye):
    X=             -0.0079    Y=             -0.0129    Z=             -0.0023  Tot=              0.0153
 Quadrupole moment (field-independent basis, Debye-Ang):
   XX=            -84.3480   YY=            -85.8649   ZZ=            -84.5060
   XY=              0.8745   XZ=             -1.1612   YZ=             -0.0966

 Normal termination of Gaussian 16 at Wed May  5 18:19:00 2021.
