 Gaussian 16, Revision A.03,
 Gaussian 16:  EM64L-G16RevA.03 25-Dec-2016

 -------------
 #p 6-31g* mp2
 -------------

 ------------------------------------------------------
 Input file generated by CHIRIPA (05-May-2021 14:57:22)
 ------------------------------------------------------
 Symbolic Z-matrix:
 Charge =  0 Multiplicity = 1

                         Standard orientation:
 ---------------------------------------------------------------------
 Center     Atomic      Atomic             Coordinates (Angstroms)
 Number     Number       Type             X           Y           Z
 ---------------------------------------------------------------------
      1          6           0       -4.428451    0.027960   -1.983626
      2          6           0       -3.434163   -0.944147   -1.832238
      3          6           0       -2.655056   -0.988242   -0.672239
      4          6           0       -2.898308   -0.040589    0.320772
      5          6           0       -3.881470    0.940212    0.199477
      6          6           0       -4.648543    0.965385   -0.969074
      7          1           0       -5.029006    0.054865   -2.888063
      8          1           0       -3.261020   -1.673428   -2.618505
      9          1           0       -1.878718   -1.729993   -0.528977
     10          1           0       -4.030708    1.653869    1.000626
     11          1           0       -5.420029    1.721471   -1.083912
     12          7           0       -2.079872   -0.077254    1.553338
     13          8           0       -2.313898    0.768881    2.413526
     14          8           0       -1.219853   -0.951433    1.635895
     15          6           0        3.354151    2.517393   -0.431287
     16          6           0        2.524514    2.042283    0.589739
     17          6           0        2.339339    0.668692    0.772786
     18          6           0        3.002167   -0.205487   -0.087307
     19          6           0        3.835199    0.237000   -1.113735
     20          6           0        4.005697    1.614827   -1.278272
     21          1           0        3.492299    3.586076   -0.566293
     22          1           0        2.017250    2.740909    1.249018
     23          1           0        1.702748    0.273632    1.555153
     24          1           0        4.327536   -0.483858   -1.755128
     25          1           0        4.650600    1.980948   -2.072061
     26          7           0        2.813900   -1.661888    0.096679
     27          8           0        3.409104   -2.411412   -0.674411
     28          8           0        2.074695   -2.026313    1.008495
 ---------------------------------------------------------------------

 SCF Done:  E(RHF) =  -868.338241973     A.U. after   16 cycles
 E2 =    -0.2599726860D+01 EUMP2 =    -0.87093796883277D+03

 The electronic state is 1-A.
 Alpha  occ. eigenvalues --  -20.60839 -20.60762 -20.60095 -20.60002 -15.85819
 Alpha  occ. eigenvalues --  -15.85094 -11.31153 -11.30527 -11.27758 -11.27659
 Alpha  occ. eigenvalues --  -11.27475 -11.27197 -11.26963 -11.26941 -11.26758
 Alpha  occ. eigenvalues --  -11.26695 -11.26228 -11.26101  -1.59884  -1.59138
 Alpha  occ. eigenvalues --   -1.39426  -1.38675  -1.19330  -1.18731  -1.08739
 Alpha  occ. eigenvalues --   -1.08130  -1.04720  -1.04130  -0.95571  -0.94937
 Alpha  occ. eigenvalues --   -0.86120  -0.85526  -0.82390  -0.81750  -0.77444
 Alpha  occ. eigenvalues --   -0.76766  -0.72027  -0.71311  -0.71198  -0.70475
 Alpha  occ. eigenvalues --   -0.70429  -0.69829  -0.64976  -0.64720  -0.64374
 Alpha  occ. eigenvalues --   -0.64130  -0.62055  -0.61439  -0.55234  -0.54664
 Alpha  occ. eigenvalues --   -0.53065  -0.52805  -0.52491  -0.52207  -0.48827
 Alpha  occ. eigenvalues --   -0.48789  -0.48106  -0.48040  -0.44842  -0.44045
 Alpha  occ. eigenvalues --   -0.37323  -0.36760  -0.36325  -0.35749
 Alpha virt. eigenvalues --    0.05034   0.05735   0.11327   0.11897   0.16526
 Alpha virt. eigenvalues --    0.17187   0.21481   0.22071   0.27415   0.27973
 Alpha virt. eigenvalues --    0.28375   0.29038   0.31024   0.31584   0.32641

 Mulliken charges:
               1
     1  C   -0.170796
     2  C   -0.219080
     3  C   -0.172253
     4  C    0.156787
     5  C   -0.171871
     6  C   -0.218963
     7  H    0.225442
     8  H    0.225334
     9  H    0.283237
    10  H    0.273939
    11  H    0.222526
    12  N    0.485556
    13  O   -0.465872
    14  O   -0.451724
    15  C   -0.171472
    16  C   -0.221665
    17  C   -0.176147
    18  C    0.154726
    19  C   -0.172442
    20  C   -0.219739
    21  H    0.222844
    22  H    0.225739
    23  H    0.294321
    24  H    0.272778
    25  H    0.220141
    26  N    0.485416
    27  O   -0.468028
    28  O   -0.448734
 Sum of Mulliken charges =  -0.00000

 Dipole moment (field-independent basis, Debye):
    X=             -2.4048    Y=              5.0762    Z=             -4.8216  Tot=              7.4026
 Quadrupole moment (field-independent basis, Debye-Ang):
   XX=            -83.2450   YY=           -104.7694   ZZ=           -104.8161
   XY=             12.4240   XZ=              6.8029   YZ=              2.1908

 Normal termination of Gaussian 16 at Fri May  7 01:44:28 2021.
