 Gaussian 16, Revision A.03,
 Gaussian 16:  EM64L-G16RevA.03 25-Dec-2016

 -------------
 #p 6-31g* mp2
 -------------

 ------------------------------------------------------
 Input file generated by CHIRIPA (05-May-2021 14:57:26)
 ------------------------------------------------------
 Symbolic Z-matrix:
 Charge =  0 Multiplicity = 1

                         Standard orientation:
 ---------------------------------------------------------------------
 Center     Atomic      Atomic             Coordinates (Angstroms)
 Number     Number       Type             X           Y           Z
 ---------------------------------------------------------------------
      1          6           0       -4.772960    1.860474    0.102307
      2          6           0       -3.408861    2.165444    0.049863
      3          6           0       -2.455541    1.145396   -0.022455
      4          6           0       -2.903573   -0.174540   -0.040508
      5          6           0       -4.255558   -0.510432    0.010497
      6          6           0       -5.191217    0.525862    0.082491
      7          1           0       -5.506662    2.659183    0.158360
      8          1           0       -3.081141    3.201018    0.065096
      9          1           0       -1.393237    1.353219   -0.064154
     10          1           0       -4.551730   -1.552266   -0.006334
     11          1           0       -6.249937    0.286055    0.123105
     12          7           0       -1.903683   -1.263019   -0.116897
     13          8           0       -2.324163   -2.417845   -0.131413
     14          8           0       -0.718424   -0.940733   -0.160808
     15          6           0        3.966129    2.348627   -0.117239
     16          6           0        3.739567    1.761659    1.132026
     17          6           0        3.242354    0.458284    1.224435
     18          6           0        2.981574   -0.232380    0.041952
     19          6           0        3.196882    0.325017   -1.217508
     20          6           0        3.694543    1.629700   -1.285958
     21          1           0        4.352551    3.361628   -0.179718
     22          1           0        3.949579    2.317618    2.041338
     23          1           0        3.057762   -0.020314    2.178524
     24          1           0        2.977973   -0.254159   -2.106357
     25          1           0        3.869529    2.083011   -2.257521
     26          7           0        2.454960   -1.612897    0.127098
     27          8           0        2.233283   -2.200293   -0.929529
     28          8           0        2.273846   -2.081410    1.248853
 ---------------------------------------------------------------------

 SCF Done:  E(RHF) =  -868.336062063     A.U. after   16 cycles
 E2 =    -0.2601415411D+01 EUMP2 =    -0.87093747747428D+03

 The electronic state is 1-A.
 Alpha  occ. eigenvalues --  -20.60301 -20.60282 -20.59295 -20.59254 -15.85376
 Alpha  occ. eigenvalues --  -15.84363 -11.30951 -11.30281 -11.27568 -11.27524
 Alpha  occ. eigenvalues --  -11.27332 -11.26927 -11.26905 -11.26806 -11.26632
 Alpha  occ. eigenvalues --  -11.26592 -11.26098 -11.26082  -1.59345  -1.58298
 Alpha  occ. eigenvalues --   -1.38907  -1.37865  -1.19142  -1.18512  -1.08493
 Alpha  occ. eigenvalues --   -1.07803  -1.04582  -1.04011  -0.95296  -0.94550
 Alpha  occ. eigenvalues --   -0.85970  -0.85379  -0.82145  -0.81406  -0.77153
 Alpha  occ. eigenvalues --   -0.76334  -0.71730  -0.70689  -0.70613  -0.70261
 Alpha  occ. eigenvalues --   -0.69637  -0.69433  -0.64792  -0.64588  -0.64164
 Alpha  occ. eigenvalues --   -0.64033  -0.61930  -0.61354  -0.55074  -0.54516
 Alpha  occ. eigenvalues --   -0.52895  -0.52682  -0.52307  -0.52118  -0.48327
 Alpha  occ. eigenvalues --   -0.48303  -0.47366  -0.47311  -0.44313  -0.43110
 Alpha  occ. eigenvalues --   -0.37134  -0.36520  -0.36196  -0.35650
 Alpha virt. eigenvalues --    0.05405   0.06267   0.11455   0.12005   0.16856
 Alpha virt. eigenvalues --    0.17637   0.21549   0.22028   0.27437   0.27899
 Alpha virt. eigenvalues --    0.28450   0.28980   0.31062   0.31529   0.32683

 Mulliken charges:
               1
     1  C   -0.171517
     2  C   -0.218524
     3  C   -0.171591
     4  C    0.159243
     5  C   -0.170681
     6  C   -0.218472
     7  H    0.224230
     8  H    0.220835
     9  H    0.273291
    10  H    0.276731
    11  H    0.223005
    12  N    0.492167
    13  O   -0.454026
    14  O   -0.463852
    15  C   -0.174236
    16  C   -0.220194
    17  C   -0.172318
    18  C    0.165532
    19  C   -0.170478
    20  C   -0.220366
    21  H    0.220703
    22  H    0.219164
    23  H    0.274591
    24  H    0.276007
    25  H    0.219477
    26  N    0.498402
    27  O   -0.454829
    28  O   -0.462293
 Sum of Mulliken charges =  -0.00000

 Dipole moment (field-independent basis, Debye):
    X=             -1.8926    Y=              8.2756    Z=             -0.0743  Tot=              8.4895
 Quadrupole moment (field-independent basis, Debye-Ang):
   XX=            -72.9113   YY=           -107.3764   ZZ=           -100.9353
   XY=              6.0350   XZ=             -1.5236   YZ=              0.4229

 Normal termination of Gaussian 16 at Fri May  7 08:09:29 2021.
