 Gaussian 16, Revision A.03,
 Gaussian 16:  EM64L-G16RevA.03 25-Dec-2016

 -------------
 #p 6-31g* mp2
 -------------

 ------------------------------------------------------
 Input file generated by CHIRIPA (05-May-2021 14:51:13)
 ------------------------------------------------------
 Symbolic Z-matrix:
 Charge =  0 Multiplicity = 1

                         Standard orientation:
 ---------------------------------------------------------------------
 Center     Atomic      Atomic             Coordinates (Angstroms)
 Number     Number       Type             X           Y           Z
 ---------------------------------------------------------------------
      1          6           0        4.077988    0.425826   -0.134093
      2          6           0        5.518547   -0.084131   -0.081935
      3          6           0        6.515611    0.896765   -0.699591
      4          1           0        3.802564    0.621271   -1.179506
      5          1           0        4.018361    1.389609    0.390275
      6          1           0        5.575157   -1.047334   -0.605051
      7          1           0        5.790509   -0.278567    0.963459
      8          1           0        6.488533    1.856293   -0.173118
      9          1           0        6.271958    1.083158   -1.750539
     10          1           0        7.539196    0.512270   -0.651675
     11          6           0        3.069510   -0.543761    0.479587
     12          6           0        1.628952   -0.033804    0.427429
     13          6           0        0.631888   -1.014700    1.045086
     14          1           0        3.129137   -1.507544   -0.044781
     15          1           0        3.344934   -0.739206    1.525000
     16          1           0        1.356989    0.160632   -0.617964
     17          1           0        1.572341    0.929399    0.950545
     18          1           0        0.875540   -1.201093    2.096034
     19          1           0        0.658965   -1.974228    0.518613
     20          1           0       -0.391698   -0.630205    0.997169
     21          6           0       -3.610120    0.754313   -0.486760
     22          6           0       -3.905672    1.861894    0.525120
     23          6           0       -3.975336    3.247181   -0.118246
     24          1           0       -2.660114    0.973120   -0.993274
     25          1           0       -4.387148    0.760140   -1.263669
     26          1           0       -3.129078    1.853084    1.300645
     27          1           0       -4.854989    1.640325    1.029420
     28          1           0       -4.762323    3.279654   -0.878639
     29          1           0       -3.026605    3.493622   -0.605873
     30          1           0       -4.187579    4.023897    0.623053
     31          6           0       -3.537379   -0.636378    0.141265
     32          6           0       -3.241827   -1.743959   -0.870614
     33          6           0       -3.172163   -3.129246   -0.227248
     34          1           0       -2.760350   -0.642205    0.918175
     35          1           0       -4.487385   -0.855185    0.647779
     36          1           0       -2.292510   -1.522390   -1.374914
     37          1           0       -4.018421   -1.735149   -1.646140
     38          1           0       -4.120893   -3.375687    0.260378
     39          1           0       -2.385176   -3.161719    0.533145
     40          1           0       -2.959919   -3.905962   -0.968548
 ---------------------------------------------------------------------

 SCF Done:  E(RHF) =  -470.733299150     A.U. after   11 cycles
 E2 =    -0.1582973347D+01 EUMP2 =    -0.47231627249718D+03

 The electronic state is 1-A.
 Alpha  occ. eigenvalues --  -11.21678 -11.21630 -11.21600 -11.21565 -11.21449
 Alpha  occ. eigenvalues --  -11.21390 -11.21389 -11.21326 -11.21144 -11.21093
 Alpha  occ. eigenvalues --  -11.21066 -11.21014  -1.08481  -1.08414  -1.03587
 Alpha  occ. eigenvalues --   -1.03501  -0.96034  -0.95955  -0.87058  -0.86966
 Alpha  occ. eigenvalues --   -0.79652  -0.79564  -0.78291  -0.78228  -0.65129
 Alpha  occ. eigenvalues --   -0.65065  -0.61020  -0.60882  -0.59405  -0.59306
 Alpha  occ. eigenvalues --   -0.57663  -0.57552  -0.55339  -0.55221  -0.52751
 Alpha  occ. eigenvalues --   -0.52648  -0.52483  -0.52343  -0.49972  -0.49888
 Alpha  occ. eigenvalues --   -0.47967  -0.47882  -0.46674  -0.46603  -0.45834
 Alpha  occ. eigenvalues --   -0.45768  -0.45754  -0.45702  -0.43790  -0.43756
 Alpha virt. eigenvalues --    0.20300   0.23052   0.23930   0.24980   0.26088
 Alpha virt. eigenvalues --    0.26501   0.27000   0.27297   0.27956   0.28966
 Alpha virt. eigenvalues --    0.30837   0.31421   0.31709   0.31926   0.32170

 Mulliken charges:
               1
     1  C   -0.298292
     2  C   -0.299685
     3  C   -0.475736
     4  H    0.149691
     5  H    0.149585
     6  H    0.152021
     7  H    0.152015
     8  H    0.155224
     9  H    0.155226
    10  H    0.160367
    11  C   -0.298656
    12  C   -0.299270
    13  C   -0.484019
    14  H    0.149756
    15  H    0.149853
    16  H    0.151687
    17  H    0.151990
    18  H    0.155616
    19  H    0.156258
    20  H    0.166972
    21  C   -0.298913
    22  C   -0.299537
    23  C   -0.475729
    24  H    0.149749
    25  H    0.149725
    26  H    0.151524
    27  H    0.152065
    28  H    0.155185
    29  H    0.155303
    30  H    0.160225
    31  C   -0.303649
    32  C   -0.299635
    33  C   -0.477293
    34  H    0.153739
    35  H    0.150161
    36  H    0.152492
    37  H    0.151749
    38  H    0.154851
    39  H    0.157651
    40  H    0.159732
 Sum of Mulliken charges =  -0.00000

 Dipole moment (field-independent basis, Debye):
    X=              0.0218    Y=             -0.0021    Z=              0.0078  Tot=              0.0233
 Quadrupole moment (field-independent basis, Debye-Ang):
   XX=            -84.4607   YY=            -86.0929   ZZ=            -84.1878
   XY=             -0.2550   XZ=              0.5826   YZ=              1.0052

 Normal termination of Gaussian 16 at Wed May  5 19:59:14 2021.
