 Gaussian 16, Revision A.03,
 Gaussian 16:  EM64L-G16RevA.03 25-Dec-2016

 -------------
 #p 6-31g* mp2
 -------------

 ------------------------------------------------------
 Input file generated by CHIRIPA (05-May-2021 14:53:17)
 ------------------------------------------------------
 Symbolic Z-matrix:
 Charge =  0 Multiplicity = 1

                         Standard orientation:
 ---------------------------------------------------------------------
 Center     Atomic      Atomic             Coordinates (Angstroms)
 Number     Number       Type             X           Y           Z
 ---------------------------------------------------------------------
      1          6           0       -4.228773    0.021657   -0.102197
      2          6           0       -3.940120   -1.461225   -0.338261
      3          6           0       -5.191328   -2.332543   -0.223896
      4          1           0       -4.675370    0.147748    0.893592
      5          1           0       -4.980997    0.361608   -0.827448
      6          1           0       -3.187646   -1.797936    0.386325
      7          1           0       -3.493982   -1.583778   -1.333529
      8          1           0       -5.943640   -2.024486   -0.957196
      9          1           0       -5.635564   -2.239860    0.772429
     10          1           0       -4.962133   -3.388775   -0.396243
     11          6           0       -2.987761    0.905569   -0.213178
     12          6           0       -3.276414    2.388450    0.022886
     13          6           0       -2.025207    3.259768   -0.091479
     14          1           0       -2.235537    0.565618    0.512072
     15          1           0       -2.541164    0.779477   -1.208968
     16          1           0       -3.722552    2.511004    1.018153
     17          1           0       -4.028888    2.725161   -0.701700
     18          1           0       -1.580971    3.167086   -1.087805
     19          1           0       -1.272894    2.951711    0.641820
     20          1           0       -2.254401    4.316001    0.080868
     21          6           0        0.602862   -1.394465    0.747102
     22          6           0        0.811098   -0.022829    0.925351
     23          6           0        2.034974    0.559890    0.583134
     24          6           0        3.033203   -0.262402    0.062876
     25          6           0        2.856225   -1.632109   -0.126520
     26          6           0        1.624290   -2.193319    0.222661
     27          1           0       -0.351005   -1.838781    1.015649
     28          1           0        0.019641    0.600011    1.332429
     29          1           0        2.223089    1.619019    0.710713
     30          1           0        3.664138   -2.227284   -0.534515
     31          1           0        1.465392   -3.258838    0.083139
     32          7           0        4.333132    0.343111   -0.303099
     33          8           0        5.196573   -0.403028   -0.759590
     34          8           0        4.463961    1.552385   -0.126531
 ---------------------------------------------------------------------

 SCF Done:  E(RHF) =  -669.535050377     A.U. after   15 cycles
 E2 =    -0.2092354503D+01 EUMP2 =    -0.67162740488026D+03

 The electronic state is 1-A.
 Alpha  occ. eigenvalues --  -20.60712 -20.60707 -15.85765 -11.31120 -11.27691
 Alpha  occ. eigenvalues --  -11.27678 -11.27422 -11.26705 -11.26671 -11.22589
 Alpha  occ. eigenvalues --  -11.22429 -11.22356 -11.22251 -11.21892 -11.21860
 Alpha  occ. eigenvalues --   -1.59788  -1.39341  -1.19292  -1.09348  -1.08687
 Alpha  occ. eigenvalues --   -1.04697  -1.04398  -0.96834  -0.95525  -0.87848
 Alpha  occ. eigenvalues --   -0.86100  -0.82360  -0.80465  -0.79187  -0.77403
 Alpha  occ. eigenvalues --   -0.71984  -0.71111  -0.70401  -0.66033  -0.64943
 Alpha  occ. eigenvalues --   -0.64684  -0.62113  -0.61738  -0.60196  -0.58450
 Alpha  occ. eigenvalues --   -0.56128  -0.55198  -0.53506  -0.53267  -0.53018
 Alpha  occ. eigenvalues --   -0.52807  -0.50784  -0.48815  -0.48739  -0.48701
 Alpha  occ. eigenvalues --   -0.47497  -0.46690  -0.46613  -0.44749  -0.44657
 Alpha  occ. eigenvalues --   -0.37257  -0.36286
 Alpha virt. eigenvalues --    0.05120   0.11292   0.16571   0.18656   0.21965
 Alpha virt. eigenvalues --    0.22832   0.24996   0.25745   0.26361   0.27841
 Alpha virt. eigenvalues --    0.29482   0.30621   0.31071   0.31370   0.31856

 Mulliken charges:
               1
     1  C   -0.298784
     2  C   -0.300478
     3  C   -0.476066
     4  H    0.150799
     5  H    0.153884
     6  H    0.142557
     7  H    0.155090
     8  H    0.158633
     9  H    0.156524
    10  H    0.161036
    11  C   -0.300142
    12  C   -0.301134
    13  C   -0.475974
    14  H    0.139121
    15  H    0.154909
    16  H    0.152823
    17  H    0.156222
    18  H    0.160131
    19  H    0.146220
    20  H    0.165395
    21  C   -0.173080
    22  C   -0.220545
    23  C   -0.172150
    24  C    0.158397
    25  C   -0.171070
    26  C   -0.219330
    27  H    0.228502
    28  H    0.227529
    29  H    0.275530
    30  H    0.275308
    31  H    0.223294
    32  N    0.488013
    33  O   -0.460715
    34  O   -0.460449
 Sum of Mulliken charges =  -0.00000

 Dipole moment (field-independent basis, Debye):
    X=             -4.8108    Y=             -2.0538    Z=              1.1576  Tot=              5.3574
 Quadrupole moment (field-independent basis, Debye-Ang):
   XX=           -122.3798   YY=            -89.9232   ZZ=            -93.9423
   XY=             -7.8557   XZ=              3.6360   YZ=              0.8450

 Normal termination of Gaussian 16 at Thu May  6 18:59:59 2021.
