 Gaussian 16, Revision A.03,
 Gaussian 16:  EM64L-G16RevA.03 25-Dec-2016

 -------------
 #p 6-31g* mp2
 -------------

 ------------------------------------------------------
 Input file generated by CHIRIPA (05-May-2021 14:51:12)
 ------------------------------------------------------
 Symbolic Z-matrix:
 Charge =  0 Multiplicity = 1

                         Standard orientation:
 ---------------------------------------------------------------------
 Center     Atomic      Atomic             Coordinates (Angstroms)
 Number     Number       Type             X           Y           Z
 ---------------------------------------------------------------------
      1          6           0        2.367503    0.803805    0.022418
      2          6           0        3.283551    1.500091   -0.984571
      3          6           0        2.850482    2.935665   -1.283523
      4          1           0        1.339407    0.805056   -0.364831
      5          1           0        2.350911    1.384534    0.955088
      6          1           0        3.299496    0.917483   -1.914586
      7          1           0        4.309619    1.497013   -0.594967
      8          1           0        2.852295    3.537030   -0.368669
      9          1           0        1.836432    2.954207   -1.695786
     10          1           0        3.519096    3.414575   -2.005645
     11          6           0        2.787499   -0.632088    0.331518
     12          6           0        1.871450   -1.328374    1.338506
     13          6           0        2.304520   -2.763948    1.637459
     14          1           0        2.804090   -1.212817   -0.601152
     15          1           0        3.815595   -0.633339    0.718767
     16          1           0        0.845382   -1.325295    0.948902
     17          1           0        1.855506   -0.745766    2.268522
     18          1           0        3.318570   -2.782490    2.049722
     19          1           0        2.302707   -3.365313    0.722605
     20          1           0        1.635906   -3.242858    2.359581
     21          6           0       -2.773842   -0.674885   -0.621861
     22          6           0       -1.620830   -1.642508   -0.890659
     23          6           0       -2.029222   -2.815639   -1.782160
     24          1           0       -3.602217   -1.222971   -0.152455
     25          1           0       -3.154263   -0.293688   -1.579652
     26          1           0       -1.241792   -2.020704    0.067420
     27          1           0       -0.795030   -1.092016   -1.359304
     28          1           0       -2.387803   -2.455883   -2.752004
     29          1           0       -2.837103   -3.389849   -1.317174
     30          1           0       -1.189920   -3.494822   -1.961439
     31          6           0       -2.381160    0.503168    0.267925
     32          6           0       -3.534173    1.470791    0.536723
     33          6           0       -3.125779    2.643921    1.428225
     34          1           0       -2.000740    0.121971    1.225717
     35          1           0       -1.552785    1.051254   -0.201480
     36          1           0       -4.359972    0.920298    1.005368
     37          1           0       -3.913210    1.848987   -0.421355
     38          1           0       -2.317899    3.218131    0.963239
     39          1           0       -2.767199    2.284167    2.398069
     40          1           0       -3.965082    3.323105    1.607505
 ---------------------------------------------------------------------

 SCF Done:  E(RHF) =  -470.733044492     A.U. after   11 cycles
 E2 =    -0.1584043236D+01 EUMP2 =    -0.47231708772823D+03

 The electronic state is 1-A.
 Alpha  occ. eigenvalues --  -11.21692 -11.21630 -11.21588 -11.21462 -11.21457
 Alpha  occ. eigenvalues --  -11.21398 -11.21356 -11.21294 -11.21144 -11.21079
 Alpha  occ. eigenvalues --  -11.21076 -11.21023  -1.08502  -1.08371  -1.03594
 Alpha  occ. eigenvalues --   -1.03479  -0.96027  -0.95943  -0.87048  -0.86956
 Alpha  occ. eigenvalues --   -0.79719  -0.79504  -0.78431  -0.78069  -0.65129
 Alpha  occ. eigenvalues --   -0.65016  -0.61031  -0.60859  -0.59416  -0.59285
 Alpha  occ. eigenvalues --   -0.57652  -0.57540  -0.55311  -0.55235  -0.52733
 Alpha  occ. eigenvalues --   -0.52632  -0.52462  -0.52360  -0.49973  -0.49895
 Alpha  occ. eigenvalues --   -0.48142  -0.47784  -0.46812  -0.46520  -0.46270
 Alpha  occ. eigenvalues --   -0.45696  -0.45680  -0.45140  -0.43834  -0.43735
 Alpha virt. eigenvalues --    0.20367   0.23095   0.23393   0.24688   0.24748
 Alpha virt. eigenvalues --    0.26135   0.27045   0.27778   0.28105   0.30681
 Alpha virt. eigenvalues --    0.30761   0.31330   0.31738   0.31839   0.32125

 Mulliken charges:
               1
     1  C   -0.302924
     2  C   -0.299534
     3  C   -0.475486
     4  H    0.153450
     5  H    0.149701
     6  H    0.151609
     7  H    0.152100
     8  H    0.155376
     9  H    0.154176
    10  H    0.160283
    11  C   -0.297278
    12  C   -0.309265
    13  C   -0.475372
    14  H    0.148912
    15  H    0.149305
    16  H    0.162959
    17  H    0.150895
    18  H    0.155026
    19  H    0.154766
    20  H    0.159258
    21  C   -0.297892
    22  C   -0.306185
    23  C   -0.475059
    24  H    0.149934
    25  H    0.149575
    26  H    0.156784
    27  H    0.152921
    28  H    0.155353
    29  H    0.155609
    30  H    0.160325
    31  C   -0.301905
    32  C   -0.299661
    33  C   -0.475756
    34  H    0.150819
    35  H    0.151936
    36  H    0.152060
    37  H    0.151928
    38  H    0.155618
    39  H    0.155382
    40  H    0.160255
 Sum of Mulliken charges =  -0.00000

 Dipole moment (field-independent basis, Debye):
    X=             -0.0609    Y=             -0.0026    Z=             -0.0038  Tot=              0.0611
 Quadrupole moment (field-independent basis, Debye-Ang):
   XX=            -84.4679   YY=            -86.3201   ZZ=            -84.0478
   XY=              0.4827   XZ=              0.0475   YZ=             -0.3678

 Normal termination of Gaussian 16 at Thu May  6 07:03:59 2021.
