 Gaussian 16, Revision A.03,
 Gaussian 16:  EM64L-G16RevA.03 25-Dec-2016

 -------------
 #p 6-31g* mp2
 -------------

 ------------------------------------------------------
 Input file generated by CHIRIPA (05-May-2021 14:51:09)
 ------------------------------------------------------
 Symbolic Z-matrix:
 Charge =  0 Multiplicity = 1

                         Standard orientation:
 ---------------------------------------------------------------------
 Center     Atomic      Atomic             Coordinates (Angstroms)
 Number     Number       Type             X           Y           Z
 ---------------------------------------------------------------------
      1          6           0        3.832283    0.225592   -0.221201
      2          6           0        3.936241   -1.175465    0.382303
      3          6           0        5.143809   -1.955383   -0.138566
      4          1           0        3.773313    0.143252   -1.315134
      5          1           0        4.753174    0.782288    0.001159
      6          1           0        3.014856   -1.728884    0.160055
      7          1           0        3.994778   -1.089790    1.474937
      8          1           0        6.073793   -1.427654    0.096451
      9          1           0        5.088303   -2.070379   -1.225901
     10          1           0        5.198820   -2.954052    0.305836
     11          6           0        2.630082    1.017644    0.289771
     12          6           0        2.526123    2.418701   -0.313733
     13          6           0        1.318556    3.198619    0.207136
     14          1           0        1.709191    0.460948    0.067410
     15          1           0        2.689052    1.099984    1.383703
     16          1           0        2.467587    2.333026   -1.406367
     17          1           0        3.447508    2.972120   -0.091486
     18          1           0        1.374062    3.313615    1.294470
     19          1           0        0.388572    2.670890   -0.027882
     20          1           0        1.263545    4.197288   -0.237267
     21          6           0       -3.717729   -0.047672   -0.165778
     22          6           0       -5.162018   -0.378565    0.211747
     23          6           0       -6.123460    0.779509   -0.057119
     24          1           0       -3.392509    0.838716    0.395910
     25          1           0       -3.677279    0.224237   -1.229650
     26          1           0       -5.199511   -0.651108    1.274259
     27          1           0       -5.483774   -1.264382   -0.350761
     28          1           0       -6.115646    1.048220   -1.118409
     29          1           0       -5.829768    1.664980    0.515845
     30          1           0       -7.150331    0.521363    0.219932
     31          6           0       -2.744636   -1.195563    0.097208
     32          6           0       -1.300347   -0.864672   -0.280317
     33          6           0       -0.338904   -2.022745   -0.011450
     34          1           0       -2.785086   -1.467473    1.161081
     35          1           0       -3.069856   -2.081952   -0.464478
     36          1           0       -0.978590    0.021146    0.282191
     37          1           0       -1.262854   -0.592128   -1.342828
     38          1           0       -0.632597   -2.908215   -0.584413
     39          1           0       -0.346720   -2.291456    1.049839
     40          1           0        0.687966   -1.764599   -0.288502
 ---------------------------------------------------------------------

 SCF Done:  E(RHF) =  -470.732704267     A.U. after   11 cycles
 E2 =    -0.1583996265D+01 EUMP2 =    -0.47231670053229D+03

 The electronic state is 1-A.
 Alpha  occ. eigenvalues --  -11.21667 -11.21618 -11.21578 -11.21566 -11.21440
 Alpha  occ. eigenvalues --  -11.21378 -11.21375 -11.21306 -11.21104 -11.21080
 Alpha  occ. eigenvalues --  -11.21058 -11.21049  -1.08478  -1.08402  -1.03571
 Alpha  occ. eigenvalues --   -1.03509  -0.96029  -0.95951  -0.87038  -0.86975
 Alpha  occ. eigenvalues --   -0.79683  -0.79529  -0.78310  -0.78204  -0.65156
 Alpha  occ. eigenvalues --   -0.65030  -0.60991  -0.60890  -0.59423  -0.59308
 Alpha  occ. eigenvalues --   -0.57693  -0.57526  -0.55308  -0.55234  -0.52808
 Alpha  occ. eigenvalues --   -0.52609  -0.52457  -0.52363  -0.49952  -0.49904
 Alpha  occ. eigenvalues --   -0.48058  -0.47819  -0.46749  -0.46542  -0.45885
 Alpha  occ. eigenvalues --   -0.45774  -0.45732  -0.45512  -0.43794  -0.43724
 Alpha virt. eigenvalues --    0.20771   0.22903   0.23437   0.24252   0.25970
 Alpha virt. eigenvalues --    0.26378   0.26924   0.27186   0.28527   0.29186
 Alpha virt. eigenvalues --    0.29977   0.31345   0.31764   0.31890   0.32534

 Mulliken charges:
               1
     1  C   -0.297787
     2  C   -0.306699
     3  C   -0.475144
     4  H    0.149021
     5  H    0.149604
     6  H    0.158238
     7  H    0.152007
     8  H    0.155097
     9  H    0.154955
    10  H    0.160343
    11  C   -0.307809
    12  C   -0.298812
    13  C   -0.478065
    14  H    0.159853
    15  H    0.149179
    16  H    0.151772
    17  H    0.151821
    18  H    0.154791
    19  H    0.157211
    20  H    0.160295
    21  C   -0.298455
    22  C   -0.299666
    23  C   -0.475756
    24  H    0.149910
    25  H    0.149475
    26  H    0.152045
    27  H    0.151958
    28  H    0.155188
    29  H    0.155374
    30  H    0.160314
    31  C   -0.298480
    32  C   -0.303567
    33  C   -0.484328
    34  H    0.149910
    35  H    0.149893
    36  H    0.155495
    37  H    0.151541
    38  H    0.155595
    39  H    0.156099
    40  H    0.167585
 Sum of Mulliken charges =  -0.00000

 Dipole moment (field-independent basis, Debye):
    X=             -0.0303    Y=             -0.0174    Z=              0.0079  Tot=              0.0359
 Quadrupole moment (field-independent basis, Debye-Ang):
   XX=            -85.8664   YY=            -85.5837   ZZ=            -83.3835
   XY=              1.4192   XZ=              0.7116   YZ=              0.5227

 Normal termination of Gaussian 16 at Thu May  6 03:45:55 2021.
