 Gaussian 16, Revision A.03,
 Gaussian 16:  EM64L-G16RevA.03 25-Dec-2016

 -------------
 #p 6-31g* mp2
 -------------

 ------------------------------------------------------
 Input file generated by CHIRIPA (05-May-2021 14:51:12)
 ------------------------------------------------------
 Symbolic Z-matrix:
 Charge =  0 Multiplicity = 1

                         Standard orientation:
 ---------------------------------------------------------------------
 Center     Atomic      Atomic             Coordinates (Angstroms)
 Number     Number       Type             X           Y           Z
 ---------------------------------------------------------------------
      1          6           0        5.463567   -0.236754    0.401095
      2          6           0        6.525552   -0.820608   -0.531261
      3          6           0        7.752165   -1.338256    0.220572
      4          1           0        5.907853    0.579586    0.986881
      5          1           0        5.155093   -1.006689    1.121815
      6          1           0        6.830928   -0.050219   -1.250888
      7          1           0        6.078635   -1.635526   -1.115033
      8          1           0        7.467587   -2.125244    0.926453
      9          1           0        8.224154   -0.530929    0.789826
     10          1           0        8.498594   -1.751227   -0.465110
     11          6           0        4.231219    0.284902   -0.335737
     12          6           0        3.169234    0.868756    0.596619
     13          6           0        1.942621    1.386404   -0.155215
     14          1           0        4.539693    1.054837   -1.056458
     15          1           0        3.786934   -0.531438   -0.921523
     16          1           0        3.616151    1.683674    1.180391
     17          1           0        2.863858    0.098367    1.316245
     18          1           0        1.470632    0.579077   -0.724469
     19          1           0        2.227199    2.173392   -0.861095
     20          1           0        1.196193    1.799375    0.530467
     21          6           0       -5.511639   -0.102195    0.336247
     22          6           0       -6.522414   -0.971651   -0.412327
     23          6           0       -7.846301   -1.118526    0.338372
     24          1           0       -5.326252   -0.537637    1.327695
     25          1           0       -5.949025    0.891089    0.507928
     26          1           0       -6.082728   -1.962560   -0.583762
     27          1           0       -6.705272   -0.534195   -1.402182
     28          1           0       -8.310099   -0.139522    0.496618
     29          1           0       -7.684017   -1.576003    1.319687
     30          1           0       -8.554139   -1.743869   -0.214594
     31          6           0       -4.183147    0.054048   -0.401605
     32          6           0       -3.172371    0.923503    0.346970
     33          6           0       -1.848486    1.070378   -0.403729
     34          1           0       -3.745761   -0.939238   -0.573285
     35          1           0       -4.368533    0.489489   -1.393052
     36          1           0       -2.989515    0.486046    1.336824
     37          1           0       -3.612058    1.914412    0.518405
     38          1           0       -2.010768    1.527854   -1.385045
     39          1           0       -1.384687    0.091373   -0.561975
     40          1           0       -1.140647    1.695721    0.149237
 ---------------------------------------------------------------------

 SCF Done:  E(RHF) =  -470.732691411     A.U. after   11 cycles
 E2 =    -0.1582417291D+01 EUMP2 =    -0.47231510870120D+03

 The electronic state is 1-A.
 Alpha  occ. eigenvalues --  -11.21587 -11.21583 -11.21552 -11.21541 -11.21380
 Alpha  occ. eigenvalues --  -11.21374 -11.21320 -11.21313 -11.21060 -11.21057
 Alpha  occ. eigenvalues --  -11.20974 -11.20947  -1.08406  -1.08391  -1.03522
 Alpha  occ. eigenvalues --   -1.03463  -0.96015  -0.95868  -0.87087  -0.86832
 Alpha  occ. eigenvalues --   -0.79654  -0.79459  -0.78225  -0.78198  -0.65043
 Alpha  occ. eigenvalues --   -0.65017  -0.60942  -0.60842  -0.59595  -0.59094
 Alpha  occ. eigenvalues --   -0.57668  -0.57432  -0.55326  -0.55135  -0.53044
 Alpha  occ. eigenvalues --   -0.52460  -0.52318  -0.52157  -0.49985  -0.49764
 Alpha  occ. eigenvalues --   -0.47957  -0.47785  -0.46652  -0.46524  -0.45778
 Alpha  occ. eigenvalues --   -0.45730  -0.45692  -0.45660  -0.43983  -0.43465
 Alpha virt. eigenvalues --    0.22408   0.23011   0.23589   0.24909   0.26344
 Alpha virt. eigenvalues --    0.26750   0.26958   0.27152   0.27646   0.28951
 Alpha virt. eigenvalues --    0.29148   0.30985   0.31675   0.31779   0.32228

 Mulliken charges:
               1
     1  C   -0.298200
     2  C   -0.299598
     3  C   -0.475678
     4  H    0.149590
     5  H    0.149397
     6  H    0.151915
     7  H    0.151884
     8  H    0.155125
     9  H    0.155153
    10  H    0.160199
    11  C   -0.298577
    12  C   -0.299913
    13  C   -0.476897
    14  H    0.149486
    15  H    0.149520
    16  H    0.151463
    17  H    0.151581
    18  H    0.157748
    19  H    0.154592
    20  H    0.161507
    21  C   -0.298167
    22  C   -0.299584
    23  C   -0.475673
    24  H    0.149507
    25  H    0.149459
    26  H    0.151822
    27  H    0.151909
    28  H    0.155159
    29  H    0.155120
    30  H    0.160174
    31  C   -0.298476
    32  C   -0.300132
    33  C   -0.477330
    34  H    0.149232
    35  H    0.149569
    36  H    0.151415
    37  H    0.151493
    38  H    0.154680
    39  H    0.154488
    40  H    0.165038
 Sum of Mulliken charges =  -0.00000

 Dipole moment (field-independent basis, Debye):
    X=              0.0108    Y=              0.0122    Z=             -0.0101  Tot=              0.0192
 Quadrupole moment (field-independent basis, Debye-Ang):
   XX=            -86.6775   YY=            -83.4320   ZZ=            -84.9176
   XY=              0.2899   XZ=              0.1742   YZ=             -0.2370

 Normal termination of Gaussian 16 at Wed May  5 23:08:55 2021.
