 Gaussian 16, Revision A.03,
 Gaussian 16:  EM64L-G16RevA.03 25-Dec-2016

 -------------
 #p 6-31g* mp2
 -------------

 ------------------------------------------------------
 Input file generated by CHIRIPA (05-May-2021 14:55:19)
 ------------------------------------------------------
 Symbolic Z-matrix:
 Charge =  0 Multiplicity = 1

                         Standard orientation:
 ---------------------------------------------------------------------
 Center     Atomic      Atomic             Coordinates (Angstroms)
 Number     Number       Type             X           Y           Z
 ---------------------------------------------------------------------
      1          6           0        3.109703    2.549518   -0.749439
      2          6           0        2.906408    2.348603    0.619804
      3          6           0        2.680871    1.063945    1.123129
      4          6           0        2.665087   -0.001867    0.224750
      5          6           0        2.864300    0.166059   -1.144705
      6          6           0        3.088038    1.459527   -1.625778
      7          1           0        3.284207    3.550893   -1.131791
      8          1           0        2.922697    3.193239    1.302717
      9          1           0        2.520545    0.879946    2.178524
     10          1           0        2.842409   -0.695576   -1.800848
     11          1           0        3.245611    1.612577   -2.689635
     12          7           0        2.427273   -1.366539    0.745819
     13          8           0        2.418141   -2.288922   -0.066439
     14          8           0        2.254509   -1.487946    1.956624
     15          6           0       -4.155913    0.001997   -0.313914
     16          6           0       -4.557328    1.106621    0.664176
     17          6           0       -5.949083    1.671781    0.378864
     18          1           0       -4.189555    0.397910   -1.338153
     19          1           0       -4.897915   -0.807095   -0.267027
     20          1           0       -3.814047    1.912767    0.616465
     21          1           0       -4.522541    0.708087    1.686221
     22          1           0       -6.706094    0.883734    0.446093
     23          1           0       -5.993574    2.095260   -0.629742
     24          1           0       -6.215813    2.459979    1.089821
     25          6           0       -2.767048   -0.573001   -0.041596
     26          6           0       -2.365634   -1.677624   -1.019686
     27          6           0       -0.973877   -2.242784   -0.734374
     28          1           0       -2.025047    0.236092   -0.088483
     29          1           0       -2.733406   -0.968913    0.982644
     30          1           0       -2.400421   -1.279090   -2.041731
     31          1           0       -3.108915   -2.483770   -0.971974
     32          1           0       -0.929388   -2.666264    0.274232
     33          1           0       -0.216867   -1.454738   -0.801602
     34          1           0       -0.707149   -3.030982   -1.445331
 ---------------------------------------------------------------------

 SCF Done:  E(RHF) =  -669.535557250     A.U. after   15 cycles
 E2 =    -0.2092110544D+01 EUMP2 =    -0.67162766779428D+03

 The electronic state is 1-A.
 Alpha  occ. eigenvalues --  -20.60817 -20.60805 -15.85834 -11.31241 -11.27806
 Alpha  occ. eigenvalues --  -11.27799 -11.27551 -11.26826 -11.26816 -11.21439
 Alpha  occ. eigenvalues --  -11.21128 -11.21043 -11.20971 -11.20963 -11.20180
 Alpha  occ. eigenvalues --   -1.59869  -1.39425  -1.19411  -1.08801  -1.08087
 Alpha  occ. eigenvalues --   -1.04814  -1.03129  -0.95640  -0.95545  -0.86563
 Alpha  occ. eigenvalues --   -0.86211  -0.82462  -0.79207  -0.77896  -0.77502
 Alpha  occ. eigenvalues --   -0.72067  -0.71191  -0.70513  -0.65063  -0.64816
 Alpha  occ. eigenvalues --   -0.64725  -0.62159  -0.60534  -0.58953  -0.57168
 Alpha  occ. eigenvalues --   -0.55314  -0.54853  -0.53143  -0.52904  -0.52218
 Alpha  occ. eigenvalues --   -0.51981  -0.49527  -0.48833  -0.48813  -0.47526
 Alpha  occ. eigenvalues --   -0.46280  -0.45483  -0.45366  -0.44664  -0.43362
 Alpha  occ. eigenvalues --   -0.37388  -0.36416
 Alpha virt. eigenvalues --    0.05012   0.11176   0.16484   0.21366   0.23153
 Alpha virt. eigenvalues --    0.24628   0.26897   0.27259   0.27717   0.27998
 Alpha virt. eigenvalues --    0.28562   0.30818   0.31643   0.32092   0.32516

 Mulliken charges:
               1
     1  C   -0.170838
     2  C   -0.218579
     3  C   -0.170966
     4  C    0.157496
     5  C   -0.172310
     6  C   -0.218630
     7  H    0.225789
     8  H    0.223717
     9  H    0.275942
    10  H    0.276429
    11  H    0.223712
    12  N    0.489467
    13  O   -0.456611
    14  O   -0.459656
    15  C   -0.297585
    16  C   -0.299116
    17  C   -0.475401
    18  H    0.147648
    19  H    0.149873
    20  H    0.149469
    21  H    0.152732
    22  H    0.155666
    23  H    0.154067
    24  H    0.159068
    25  C   -0.297858
    26  C   -0.301724
    27  C   -0.469824
    28  H    0.145802
    29  H    0.152177
    30  H    0.146975
    31  H    0.150919
    32  H    0.164083
    33  H    0.145645
    34  H    0.162422
 Sum of Mulliken charges =  -0.00000

 Dipole moment (field-independent basis, Debye):
    X=              0.9980    Y=              4.6979    Z=             -1.7709  Tot=              5.1188
 Quadrupole moment (field-independent basis, Debye-Ang):
   XX=            -92.3092   YY=            -94.0706   ZZ=            -91.0466
   XY=             13.7587   XZ=             -5.6856   YZ=              2.5401

 Normal termination of Gaussian 16 at Wed May  5 20:28:17 2021.
