 Gaussian 16, Revision A.03,
 Gaussian 16:  EM64L-G16RevA.03 25-Dec-2016

 -------------
 #p 6-31g* mp2
 -------------

 ------------------------------------------------------
 Input file generated by CHIRIPA (05-May-2021 14:51:08)
 ------------------------------------------------------
 Symbolic Z-matrix:
 Charge =  0 Multiplicity = 1

                         Standard orientation:
 ---------------------------------------------------------------------
 Center     Atomic      Atomic             Coordinates (Angstroms)
 Number     Number       Type             X           Y           Z
 ---------------------------------------------------------------------
      1          6           0       -2.612783   -0.325045   -0.517026
      2          6           0       -2.815303   -1.808259   -0.828545
      3          6           0       -1.528198   -2.498339   -1.281254
      4          1           0       -2.218618    0.180040   -1.409477
      5          1           0       -1.846625   -0.222851    0.263970
      6          1           0       -3.581844   -1.907695   -1.607739
      7          1           0       -3.209212   -2.309835    0.064693
      8          1           0       -0.759979   -2.428720   -0.504341
      9          1           0       -1.134728   -2.024295   -2.186275
     10          1           0       -1.695797   -3.557821   -1.498666
     11          6           0       -3.890504    0.378621   -0.063141
     12          6           0       -3.687984    1.861836    0.248378
     13          6           0       -4.975089    2.551915    0.701087
     14          1           0       -4.656662    0.276427   -0.844137
     15          1           0       -4.284669   -0.126464    0.829310
     16          1           0       -3.294075    2.363411   -0.644860
     17          1           0       -2.921443    1.961271    1.027572
     18          1           0       -5.368559    2.077871    1.606108
     19          1           0       -5.743308    2.482296   -0.075826
     20          1           0       -4.807490    3.611397    0.918499
     21          6           0        3.094370   -0.762374    0.422788
     22          6           0        1.748983   -0.979261    1.116243
     23          6           0        1.448531   -2.455944    1.374952
     24          1           0        3.102092   -1.311745   -0.528567
     25          1           0        3.891978   -1.196932    1.041153
     26          1           0        0.954297   -0.543201    0.497419
     27          1           0        1.744391   -0.429153    2.065967
     28          1           0        2.220521   -2.900388    2.011427
     29          1           0        1.425939   -3.015085    0.433967
     30          1           0        0.482097   -2.588025    1.871358
     31          6           0        3.408917    0.708798    0.157379
     32          6           0        4.754304    0.925685   -0.536076
     33          6           0        5.054756    2.402367   -0.794784
     34          1           0        2.611310    1.143357   -0.460986
     35          1           0        3.401195    1.258168    1.108734
     36          1           0        4.758897    0.375577   -1.485801
     37          1           0        5.548990    0.489626    0.082748
     38          1           0        5.077348    2.961508    0.146200
     39          1           0        4.282766    2.846812   -1.431260
     40          1           0        6.021190    2.534450   -1.291191
 ---------------------------------------------------------------------

 SCF Done:  E(RHF) =  -470.732881062     A.U. after   11 cycles
 E2 =    -0.1583434552D+01 EUMP2 =    -0.47231631561491D+03

 The electronic state is 1-A.
 Alpha  occ. eigenvalues --  -11.21621 -11.21599 -11.21598 -11.21580 -11.21406
 Alpha  occ. eigenvalues --  -11.21406 -11.21347 -11.21346 -11.21106 -11.21069
 Alpha  occ. eigenvalues --  -11.21068 -11.20970  -1.08452  -1.08412  -1.03583
 Alpha  occ. eigenvalues --   -1.03482  -0.96049  -0.95918  -0.87072  -0.86927
 Alpha  occ. eigenvalues --   -0.79615  -0.79575  -0.78287  -0.78205  -0.65169
 Alpha  occ. eigenvalues --   -0.64976  -0.61179  -0.60735  -0.59402  -0.59289
 Alpha  occ. eigenvalues --   -0.57627  -0.57557  -0.55539  -0.55022  -0.52708
 Alpha  occ. eigenvalues --   -0.52652  -0.52419  -0.52369  -0.50136  -0.49676
 Alpha  occ. eigenvalues --   -0.47993  -0.47822  -0.46656  -0.46583  -0.45928
 Alpha  occ. eigenvalues --   -0.45753  -0.45738  -0.45509  -0.43799  -0.43771
 Alpha virt. eigenvalues --    0.20875   0.23091   0.23578   0.25083   0.25846
 Alpha virt. eigenvalues --    0.26703   0.26968   0.27505   0.28237   0.29104
 Alpha virt. eigenvalues --    0.30908   0.31025   0.31566   0.31774   0.32467

 Mulliken charges:
               1
     1  C   -0.301922
     2  C   -0.298959
     3  C   -0.486396
     4  H    0.149117
     5  H    0.152803
     6  H    0.151709
     7  H    0.151541
     8  H    0.169221
     9  H    0.153691
    10  H    0.159784
    11  C   -0.298133
    12  C   -0.299730
    13  C   -0.475705
    14  H    0.149662
    15  H    0.149639
    16  H    0.151809
    17  H    0.152141
    18  H    0.155183
    19  H    0.155165
    20  H    0.160272
    21  C   -0.298007
    22  C   -0.305807
    23  C   -0.480519
    24  H    0.150231
    25  H    0.149551
    26  H    0.157084
    27  H    0.151929
    28  H    0.157157
    29  H    0.157749
    30  H    0.159585
    31  C   -0.298468
    32  C   -0.299690
    33  C   -0.475711
    34  H    0.149956
    35  H    0.149529
    36  H    0.152032
    37  H    0.151893
    38  H    0.155151
    39  H    0.155223
    40  H    0.160242
 Sum of Mulliken charges =  -0.00000

 Dipole moment (field-independent basis, Debye):
    X=              0.0276    Y=             -0.0058    Z=              0.0139  Tot=              0.0314
 Quadrupole moment (field-independent basis, Debye-Ang):
   XX=            -85.4275   YY=            -86.1760   ZZ=            -83.2343
   XY=              0.0917   XZ=              0.9542   YZ=             -0.1665

 Normal termination of Gaussian 16 at Thu May  6 00:31:41 2021.
