 Gaussian 16, Revision A.03,
 Gaussian 16:  EM64L-G16RevA.03 25-Dec-2016

 -------------
 #p 6-31g* mp2
 -------------

 ------------------------------------------------------
 Input file generated by CHIRIPA (05-May-2021 14:57:23)
 ------------------------------------------------------
 Symbolic Z-matrix:
 Charge =  0 Multiplicity = 1

                         Standard orientation:
 ---------------------------------------------------------------------
 Center     Atomic      Atomic             Coordinates (Angstroms)
 Number     Number       Type             X           Y           Z
 ---------------------------------------------------------------------
      1          6           0       -2.345490    2.546223    0.825687
      2          6           0       -1.783876    1.574382    1.660334
      3          6           0       -1.846089    0.220820    1.316025
      4          6           0       -2.480309   -0.127025    0.124363
      5          6           0       -3.049336    0.817795   -0.728170
      6          6           0       -2.975317    2.165500   -0.363803
      7          1           0       -2.292576    3.595427    1.100945
      8          1           0       -1.294124    1.867145    2.584713
      9          1           0       -1.419669   -0.552238    1.943691
     10          1           0       -3.531009    0.495276   -1.643260
     11          1           0       -3.412351    2.918076   -1.013939
     12          7           0       -2.552419   -1.556880   -0.250758
     13          8           0       -3.116687   -1.837431   -1.305998
     14          8           0       -2.043307   -2.369974    0.517564
     15          6           0        2.925509    2.330031   -0.644360
     16          6           0        1.780750    1.721671   -1.169665
     17          6           0        1.517398    0.371121   -0.922264
     18          6           0        2.424235   -0.344393   -0.141893
     19          6           0        3.573465    0.233327    0.395507
     20          6           0        3.816642    1.585230    0.135175
     21          1           0        3.122251    3.379695   -0.841569
     22          1           0        1.086929    2.297638   -1.775404
     23          1           0        0.638821   -0.124912   -1.316562
     24          1           0        4.246604   -0.366699    0.995732
     25          1           0        4.706480    2.055062    0.544432
     26          7           0        2.156115   -1.774876    0.126865
     27          8           0        2.970654   -2.383400    0.817416
     28          8           0        1.136501   -2.260479   -0.358125
 ---------------------------------------------------------------------

 SCF Done:  E(RHF) =  -868.335788354     A.U. after   16 cycles
 E2 =    -0.2602936662D+01 EUMP2 =    -0.87093872501559D+03

 The electronic state is 1-A.
 Alpha  occ. eigenvalues --  -20.60518 -20.60421 -20.60403 -20.60258 -15.85514
 Alpha  occ. eigenvalues --  -15.85389 -11.31220 -11.31156 -11.27857 -11.27769
 Alpha  occ. eigenvalues --  -11.27760 -11.27746 -11.27649 -11.27562 -11.26964
 Alpha  occ. eigenvalues --  -11.26891 -11.26836 -11.26823  -1.59546  -1.59390
 Alpha  occ. eigenvalues --   -1.39092  -1.38927  -1.19437  -1.19356  -1.08741
 Alpha  occ. eigenvalues --   -1.08706  -1.04882  -1.04790  -0.95514  -0.95469
 Alpha  occ. eigenvalues --   -0.86254  -0.86182  -0.82341  -0.82281  -0.77344
 Alpha  occ. eigenvalues --   -0.77260  -0.71783  -0.71575  -0.70941  -0.70631
 Alpha  occ. eigenvalues --   -0.70509  -0.70465  -0.65057  -0.64994  -0.64866
 Alpha  occ. eigenvalues --   -0.64799  -0.62201  -0.62140  -0.55364  -0.55306
 Alpha  occ. eigenvalues --   -0.53398  -0.52981  -0.52956  -0.52840  -0.48512
 Alpha  occ. eigenvalues --   -0.48488  -0.48396  -0.48332  -0.44634  -0.43980
 Alpha  occ. eigenvalues --   -0.37532  -0.37301  -0.36687  -0.36209
 Alpha virt. eigenvalues --    0.05080   0.05368   0.10891   0.11463   0.16564
 Alpha virt. eigenvalues --    0.16743   0.21252   0.21319   0.27064   0.27207
 Alpha virt. eigenvalues --    0.28051   0.28232   0.30481   0.31025   0.32184

 Mulliken charges:
               1
     1  C   -0.173659
     2  C   -0.216935
     3  C   -0.171818
     4  C    0.155886
     5  C   -0.176580
     6  C   -0.221366
     7  H    0.223653
     8  H    0.223864
     9  H    0.281037
    10  H    0.276110
    11  H    0.221843
    12  N    0.488637
    13  O   -0.464679
    14  O   -0.443816
    15  C   -0.172947
    16  C   -0.218149
    17  C   -0.169944
    18  C    0.156737
    19  C   -0.172121
    20  C   -0.219160
    21  H    0.223346
    22  H    0.221566
    23  H    0.275865
    24  H    0.275847
    25  H    0.222515
    26  N    0.486305
    27  O   -0.462553
    28  O   -0.449485
 Sum of Mulliken charges =  -0.00000

 Dipole moment (field-independent basis, Debye):
    X=              1.1479    Y=              9.7015    Z=              0.4790  Tot=              9.7809
 Quadrupole moment (field-independent basis, Debye-Ang):
   XX=            -98.2709   YY=           -110.3695   ZZ=           -100.1266
   XY=             -1.3068   XZ=             -0.9817   YZ=             -1.3153

 Normal termination of Gaussian 16 at Thu May  6 18:00:07 2021.
