 Gaussian 16, Revision A.03,
 Gaussian 16:  EM64L-G16RevA.03 25-Dec-2016

 -------------
 #p 6-31g* mp2
 -------------

 ------------------------------------------------------
 Input file generated by CHIRIPA (05-May-2021 14:57:23)
 ------------------------------------------------------
 Symbolic Z-matrix:
 Charge =  0 Multiplicity = 1

                         Standard orientation:
 ---------------------------------------------------------------------
 Center     Atomic      Atomic             Coordinates (Angstroms)
 Number     Number       Type             X           Y           Z
 ---------------------------------------------------------------------
      1          6           0        2.397040    2.414646   -0.858149
      2          6           0        1.737290    1.192904   -1.027261
      3          6           0        2.331248    0.000547   -0.602942
      4          6           0        3.591499    0.066979   -0.010790
      5          6           0        4.274162    1.268640    0.171616
      6          6           0        3.661141    2.448554   -0.260304
      7          1           0        1.928235    3.336065   -1.190722
      8          1           0        0.755499    1.163550   -1.491232
      9          1           0        1.842850   -0.959042   -0.721585
     10          1           0        5.252085    1.266083    0.637532
     11          1           0        4.175854    3.395933   -0.127681
     12          7           0        4.230386   -1.188730    0.442441
     13          8           0        5.341323   -1.103341    0.961250
     14          8           0        3.608110   -2.234567    0.270292
     15          6           0       -5.599375    1.018665    0.564667
     16          6           0       -5.553041    0.127290   -0.512286
     17          6           0       -4.387514   -0.594199   -0.787145
     18          6           0       -3.281909   -0.398898    0.039163
     19          6           0       -3.296929    0.481873    1.119582
     20          6           0       -4.473157    1.192804    1.375734
     21          1           0       -6.508941    1.575033    0.770918
     22          1           0       -6.426153   -0.009965   -1.143856
     23          1           0       -4.324163   -1.290736   -1.614334
     24          1           0       -2.410512    0.597450    1.731404
     25          1           0       -4.506260    1.884380    2.212795
     26          7           0       -2.042353   -1.157118   -0.241916
     27          8           0       -1.081869   -0.967120    0.501056
     28          8           0       -2.054746   -1.927051   -1.199876
 ---------------------------------------------------------------------

 SCF Done:  E(RHF) =  -868.338967769     A.U. after   16 cycles
 E2 =    -0.2599202459D+01 EUMP2 =    -0.87093817022816D+03

 The electronic state is 1-A.
 Alpha  occ. eigenvalues --  -20.61511 -20.61501 -20.59805 -20.59764 -15.86522
 Alpha  occ. eigenvalues --  -15.84838 -11.31743 -11.30144 -11.28288 -11.28284
 Alpha  occ. eigenvalues --  -11.28000 -11.27266 -11.27255 -11.26841 -11.26608
 Alpha  occ. eigenvalues --  -11.26562 -11.25875 -11.25712  -1.60579  -1.58867
 Alpha  occ. eigenvalues --   -1.40128  -1.38417  -1.19902  -1.18359  -1.09325
 Alpha  occ. eigenvalues --   -1.07795  -1.05275  -1.03734  -0.96180  -0.94615
 Alpha  occ. eigenvalues --   -0.86679  -0.85160  -0.83009  -0.81433  -0.78078
 Alpha  occ. eigenvalues --   -0.76459  -0.72733  -0.71900  -0.71061  -0.70996
 Alpha  occ. eigenvalues --   -0.70190  -0.69495  -0.65549  -0.65269  -0.64016
 Alpha  occ. eigenvalues --   -0.63766  -0.62617  -0.61054  -0.55777  -0.54334
 Alpha  occ. eigenvalues --   -0.53622  -0.53358  -0.52108  -0.51837  -0.49505
 Alpha  occ. eigenvalues --   -0.49487  -0.47834  -0.47798  -0.45555  -0.43833
 Alpha  occ. eigenvalues --   -0.37878  -0.36875  -0.36415  -0.35316
 Alpha virt. eigenvalues --    0.04411   0.06062   0.10781   0.12304   0.15936
 Alpha virt. eigenvalues --    0.17518   0.20962   0.22321   0.26893   0.27776
 Alpha virt. eigenvalues --    0.28223   0.29292   0.30590   0.31776   0.32093

 Mulliken charges:
               1
     1  C   -0.172600
     2  C   -0.218682
     3  C   -0.164512
     4  C    0.155075
     5  C   -0.172041
     6  C   -0.220193
     7  H    0.219712
     8  H    0.221354
     9  H    0.292209
    10  H    0.272200
    11  H    0.218483
    12  N    0.487793
    13  O   -0.466035
    14  O   -0.455659
    15  C   -0.170247
    16  C   -0.218661
    17  C   -0.171007
    18  C    0.156253
    19  C   -0.172003
    20  C   -0.218791
    21  H    0.227373
    22  H    0.225212
    23  H    0.276699
    24  H    0.277017
    25  H    0.225015
    26  N    0.486315
    27  O   -0.462229
    28  O   -0.458048
 Sum of Mulliken charges =  -0.00000

 Dipole moment (field-independent basis, Debye):
    X=             -7.0626    Y=              6.8523    Z=             -0.5998  Tot=              9.8587
 Quadrupole moment (field-independent basis, Debye-Ang):
   XX=            -89.4263   YY=           -105.5261   ZZ=           -102.2422
   XY=             11.4272   XZ=             -5.8878   YZ=              2.7397

 Normal termination of Gaussian 16 at Fri May  7 11:01:12 2021.
