 Gaussian 16, Revision A.03,
 Gaussian 16:  EM64L-G16RevA.03 25-Dec-2016

 -------------
 #p 6-31g* mp2
 -------------

 ------------------------------------------------------
 Input file generated by CHIRIPA (05-May-2021 14:51:10)
 ------------------------------------------------------
 Symbolic Z-matrix:
 Charge =  0 Multiplicity = 1

                         Standard orientation:
 ---------------------------------------------------------------------
 Center     Atomic      Atomic             Coordinates (Angstroms)
 Number     Number       Type             X           Y           Z
 ---------------------------------------------------------------------
      1          6           0       -3.184663   -0.998000   -0.030742
      2          6           0       -1.720279   -1.371388   -0.263435
      3          6           0       -1.486516   -2.882357   -0.252275
      4          1           0       -3.514244   -1.414365    0.931007
      5          1           0       -3.804045   -1.471517   -0.805044
      6          1           0       -1.103686   -0.896181    0.510262
      7          1           0       -1.394090   -0.953924   -1.224653
      8          1           0       -2.077094   -3.369336   -1.035007
      9          1           0       -1.785040   -3.311265    0.709766
     10          1           0       -0.433054   -3.126869   -0.420474
     11          6           0       -3.434278    0.509100   -0.039120
     12          6           0       -4.898661    0.882488    0.193572
     13          6           0       -5.132424    2.393456    0.182412
     14          1           0       -2.814895    0.982617    0.735181
     15          1           0       -3.104696    0.925464   -1.000870
     16          1           0       -5.224850    0.465024    1.154790
     17          1           0       -5.515254    0.407281   -0.580125
     18          1           0       -4.833900    2.822365   -0.779628
     19          1           0       -4.541846    2.880436    0.965144
     20          1           0       -6.185886    2.637969    0.350611
     21          6           0        3.740462    0.861147    0.166704
     22          6           0        3.106686    2.161149   -0.329595
     23          6           0        3.980845    3.386014   -0.058771
     24          1           0        3.934690    0.943626    1.244858
     25          1           0        4.717871    0.729579   -0.317810
     26          1           0        2.130150    2.289527    0.154668
     27          1           0        2.913769    2.075493   -1.406656
     28          1           0        4.951194    3.284194   -0.555415
     29          1           0        4.163124    3.499444    1.014779
     30          1           0        3.508720    4.304329   -0.421614
     31          6           0        2.878479   -0.372247   -0.096840
     32          6           0        3.512253   -1.672249    0.399457
     33          6           0        2.638095   -2.897114    0.128633
     34          1           0        1.901069   -0.240678    0.387674
     35          1           0        2.684250   -0.454726   -1.174995
     36          1           0        3.705172   -1.586593    1.476519
     37          1           0        4.488791   -1.800627   -0.084805
     38          1           0        2.455817   -3.010545   -0.944917
     39          1           0        1.667745   -2.795294    0.625278
     40          1           0        3.110220   -3.815429    0.491477
 ---------------------------------------------------------------------

 SCF Done:  E(RHF) =  -470.733126204     A.U. after   11 cycles
 E2 =    -0.1582919431D+01 EUMP2 =    -0.47231604563531D+03

 The electronic state is 1-A.
 Alpha  occ. eigenvalues --  -11.21612 -11.21594 -11.21593 -11.21573 -11.21402
 Alpha  occ. eigenvalues --  -11.21389 -11.21343 -11.21329 -11.21079 -11.21067
 Alpha  occ. eigenvalues --  -11.21066 -11.20956  -1.08436  -1.08405  -1.03553
 Alpha  occ. eigenvalues --   -1.03486  -0.96020  -0.95919  -0.87061  -0.86913
 Alpha  occ. eigenvalues --   -0.79618  -0.79549  -0.78269  -0.78196  -0.65087
 Alpha  occ. eigenvalues --   -0.65019  -0.60982  -0.60866  -0.59457  -0.59254
 Alpha  occ. eigenvalues --   -0.57751  -0.57415  -0.55308  -0.55206  -0.52851
 Alpha  occ. eigenvalues --   -0.52671  -0.52460  -0.52131  -0.49961  -0.49851
 Alpha  occ. eigenvalues --   -0.47990  -0.47766  -0.46641  -0.46593  -0.45854
 Alpha  occ. eigenvalues --   -0.45754  -0.45721  -0.45595  -0.43788  -0.43731
 Alpha virt. eigenvalues --    0.21251   0.23142   0.23469   0.25024   0.25607
 Alpha virt. eigenvalues --    0.26810   0.26918   0.27066   0.28360   0.29121
 Alpha virt. eigenvalues --    0.30798   0.31223   0.31389   0.31785   0.31939

 Mulliken charges:
               1
     1  C   -0.298176
     2  C   -0.300510
     3  C   -0.482910
     4  H    0.149447
     5  H    0.149681
     6  H    0.151611
     7  H    0.152485
     8  H    0.154733
     9  H    0.154061
    10  H    0.168707
    11  C   -0.298151
    12  C   -0.299631
    13  C   -0.475680
    14  H    0.149067
    15  H    0.149779
    16  H    0.151873
    17  H    0.151960
    18  H    0.155205
    19  H    0.155068
    20  H    0.160224
    21  C   -0.298292
    22  C   -0.299590
    23  C   -0.475718
    24  H    0.149495
    25  H    0.149539
    26  H    0.152122
    27  H    0.151951
    28  H    0.155141
    29  H    0.155099
    30  H    0.160293
    31  C   -0.300151
    32  C   -0.299633
    33  C   -0.480787
    34  H    0.151702
    35  H    0.149627
    36  H    0.151837
    37  H    0.151968
    38  H    0.155110
    39  H    0.160824
    40  H    0.160619
 Sum of Mulliken charges =  -0.00000

 Dipole moment (field-independent basis, Debye):
    X=              0.0261    Y=             -0.0090    Z=             -0.0075  Tot=              0.0286
 Quadrupole moment (field-independent basis, Debye-Ang):
   XX=            -85.0233   YY=            -86.8679   ZZ=            -82.9160
   XY=             -0.2695   XZ=             -0.2846   YZ=              0.0044

 Normal termination of Gaussian 16 at Thu May  6 05:23:46 2021.
