 Gaussian 16, Revision A.03,
 Gaussian 16:  EM64L-G16RevA.03 25-Dec-2016

 -------------
 #p 6-31g* mp2
 -------------

 ------------------------------------------------------
 Input file generated by CHIRIPA (05-May-2021 14:51:12)
 ------------------------------------------------------
 Symbolic Z-matrix:
 Charge =  0 Multiplicity = 1

                         Standard orientation:
 ---------------------------------------------------------------------
 Center     Atomic      Atomic             Coordinates (Angstroms)
 Number     Number       Type             X           Y           Z
 ---------------------------------------------------------------------
      1          6           0       -4.061903   -0.070781    0.216125
      2          6           0       -4.773349   -1.000628   -0.767345
      3          6           0       -5.765114   -1.940152   -0.080693
      4          1           0       -3.536173   -0.675457    0.967737
      5          1           0       -4.812217    0.520144    0.759478
      6          1           0       -4.021848   -1.588634   -1.309665
      7          1           0       -5.297289   -0.393670   -1.516815
      8          1           0       -6.536161   -1.368392    0.445783
      9          1           0       -5.253473   -2.570145    0.654109
     10          1           0       -6.262339   -2.595939   -0.802199
     11          6           0       -3.067223    0.874498   -0.455283
     12          6           0       -2.355777    1.804345    0.528188
     13          6           0       -1.364013    2.743869   -0.158464
     14          1           0       -2.316910    0.283573   -0.998635
     15          1           0       -3.592953    1.479174   -1.206894
     16          1           0       -1.831837    1.197387    1.277657
     17          1           0       -3.107279    2.392350    1.070508
     18          1           0       -1.875653    3.373862   -0.893267
     19          1           0       -0.592965    2.172108   -0.684940
     20          1           0       -0.866788    3.399656    0.563042
     21          6           0        4.130463   -0.293256   -0.381815
     22          6           0        5.521274   -0.357720    0.250225
     23          6           0        6.642920   -0.138568   -0.765490
     24          1           0        4.060362   -1.048755   -1.176330
     25          1           0        4.000930    0.683911   -0.867366
     26          1           0        5.647627   -1.333954    0.735628
     27          1           0        5.588007    0.397891    1.043456
     28          1           0        6.544843    0.842159   -1.242100
     29          1           0        6.604801   -0.899526   -1.551677
     30          1           0        7.628517   -0.188752   -0.292267
     31          6           0        2.998664   -0.510460    0.620972
     32          6           0        1.607853   -0.445998   -0.011067
     33          6           0        0.486206   -0.665149    1.004647
     34          1           0        3.128196   -1.487628    1.106523
     35          1           0        3.068765    0.245038    1.415486
     36          1           0        1.541120   -1.201608   -0.804299
     37          1           0        1.481500    0.530238   -0.496471
     38          1           0        0.524326    0.095809    1.790834
     39          1           0        0.584283   -1.645876    1.481257
     40          1           0       -0.499391   -0.614966    0.531424
 ---------------------------------------------------------------------

 SCF Done:  E(RHF) =  -470.732151680     A.U. after   11 cycles
 E2 =    -0.1584301068D+01 EUMP2 =    -0.47231645274767D+03

 The electronic state is 1-A.
 Alpha  occ. eigenvalues --  -11.21663 -11.21619 -11.21591 -11.21472 -11.21438
 Alpha  occ. eigenvalues --  -11.21387 -11.21377 -11.21329 -11.21109 -11.21083
 Alpha  occ. eigenvalues --  -11.21059 -11.21030  -1.08485  -1.08395  -1.03621
 Alpha  occ. eigenvalues --   -1.03452  -0.96038  -0.95945  -0.87084  -0.86942
 Alpha  occ. eigenvalues --   -0.79706  -0.79502  -0.78296  -0.78200  -0.65232
 Alpha  occ. eigenvalues --   -0.65011  -0.61265  -0.60752  -0.59324  -0.59269
 Alpha  occ. eigenvalues --   -0.57615  -0.57546  -0.55464  -0.55078  -0.52747
 Alpha  occ. eigenvalues --   -0.52625  -0.52449  -0.52374  -0.50073  -0.49821
 Alpha  occ. eigenvalues --   -0.47944  -0.47858  -0.46879  -0.46406  -0.45836
 Alpha  occ. eigenvalues --   -0.45786  -0.45727  -0.45592  -0.43778  -0.43748
 Alpha virt. eigenvalues --    0.20346   0.22933   0.23605   0.25582   0.25983
 Alpha virt. eigenvalues --    0.26209   0.26490   0.27480   0.28067   0.29366
 Alpha virt. eigenvalues --    0.30317   0.30750   0.31844   0.32185   0.32343

 Mulliken charges:
               1
     1  C   -0.299518
     2  C   -0.299475
     3  C   -0.475728
     4  H    0.150456
     5  H    0.149903
     6  H    0.151704
     7  H    0.151957
     8  H    0.155185
     9  H    0.155306
    10  H    0.160185
    11  C   -0.301509
    12  C   -0.304597
    13  C   -0.479310
    14  H    0.149452
    15  H    0.150534
    16  H    0.158768
    17  H    0.151689
    18  H    0.155018
    19  H    0.158646
    20  H    0.159422
    21  C   -0.298446
    22  C   -0.299689
    23  C   -0.475745
    24  H    0.149654
    25  H    0.149803
    26  H    0.151930
    27  H    0.152043
    28  H    0.155302
    29  H    0.155186
    30  H    0.160321
    31  C   -0.298399
    32  C   -0.303271
    33  C   -0.482895
    34  H    0.149667
    35  H    0.150055
    36  H    0.151835
    37  H    0.155181
    38  H    0.156312
    39  H    0.155135
    40  H    0.167932
 Sum of Mulliken charges =  -0.00000

 Dipole moment (field-independent basis, Debye):
    X=              0.0250    Y=             -0.0135    Z=              0.0169  Tot=              0.0330
 Quadrupole moment (field-independent basis, Debye-Ang):
   XX=            -85.6640   YY=            -83.9426   ZZ=            -85.2395
   XY=             -1.1827   XZ=              0.8836   YZ=              0.4484

 Normal termination of Gaussian 16 at Wed May  5 21:30:25 2021.
