 Gaussian 16, Revision A.03,
 Gaussian 16:  EM64L-G16RevA.03 25-Dec-2016

 -------------
 #p 6-31g* mp2
 -------------

 ------------------------------------------------------
 Input file generated by CHIRIPA (05-May-2021 14:51:10)
 ------------------------------------------------------
 Symbolic Z-matrix:
 Charge =  0 Multiplicity = 1

                         Standard orientation:
 ---------------------------------------------------------------------
 Center     Atomic      Atomic             Coordinates (Angstroms)
 Number     Number       Type             X           Y           Z
 ---------------------------------------------------------------------
      1          6           0        2.695011    0.233412    0.223489
      2          6           0        3.273320    0.832033   -1.059163
      3          6           0        3.818198    2.246416   -0.858105
      4          1           0        1.894525    0.886615    0.596975
      5          1           0        3.474608    0.220393    0.997734
      6          1           0        2.493256    0.842644   -1.831176
      7          1           0        4.072394    0.177230   -1.429744
      8          1           0        4.614834    2.249216   -0.107129
      9          1           0        3.026724    2.918410   -0.510842
     10          1           0        4.226713    2.655159   -1.787570
     11          6           0        2.146339   -1.180262    0.038527
     12          6           0        1.568031   -1.778884    1.321180
     13          6           0        1.023152   -3.193266    1.120121
     14          1           0        1.366743   -1.167244   -0.735717
     15          1           0        2.946826   -1.833465   -0.334959
     16          1           0        0.768957   -1.124081    1.691760
     17          1           0        2.348095   -1.789495    2.093192
     18          1           0        1.814627   -3.865261    0.772858
     19          1           0        0.226517   -3.196066    0.369145
     20          1           0        0.614638   -3.602010    2.049586
     21          6           0       -2.121361   -0.202824   -0.322136
     22          6           0       -3.164007   -1.214320   -0.799369
     23          6           0       -2.549838   -2.562336   -1.178108
     24          1           0       -1.372526   -0.057044   -1.112666
     25          1           0       -1.586052   -0.618830    0.542605
     26          1           0       -3.698134   -0.795960   -1.662097
     27          1           0       -3.910554   -1.357565   -0.007685
     28          1           0       -2.032861   -3.004726   -0.320421
     29          1           0       -1.819235   -2.439930   -1.984233
     30          1           0       -3.312867   -3.270294   -1.516400
     31          6           0       -2.719990    1.149675    0.060120
     32          6           0       -1.677344    2.161170    0.537353
     33          6           0       -2.291513    3.509186    0.916092
     34          1           0       -3.255298    1.565679   -0.804622
     35          1           0       -3.468825    1.003894    0.850650
     36          1           0       -0.930797    2.304415   -0.254332
     37          1           0       -1.143216    1.742810    1.400081
     38          1           0       -3.022116    3.386781    1.722217
     39          1           0       -2.808490    3.951576    0.058405
     40          1           0       -1.528484    4.217145    1.254384
 ---------------------------------------------------------------------

 SCF Done:  E(RHF) =  -470.733118063     A.U. after   11 cycles
 E2 =    -0.1584613813D+01 EUMP2 =    -0.47231773187648D+03

 The electronic state is 1-A.
 Alpha  occ. eigenvalues --  -11.21709 -11.21679 -11.21570 -11.21548 -11.21500
 Alpha  occ. eigenvalues --  -11.21440 -11.21330 -11.21270 -11.21144 -11.21130
 Alpha  occ. eigenvalues --  -11.21048 -11.20991  -1.08534  -1.08362  -1.03625
 Alpha  occ. eigenvalues --   -1.03478  -0.96072  -0.95925  -0.87104  -0.86928
 Alpha  occ. eigenvalues --   -0.79695  -0.79541  -0.78350  -0.78182  -0.65193
 Alpha  occ. eigenvalues --   -0.64973  -0.61087  -0.60836  -0.59425  -0.59296
 Alpha  occ. eigenvalues --   -0.57747  -0.57498  -0.55409  -0.55178  -0.52752
 Alpha  occ. eigenvalues --   -0.52639  -0.52572  -0.52294  -0.50126  -0.49734
 Alpha  occ. eigenvalues --   -0.48131  -0.47765  -0.46727  -0.46536  -0.46104
 Alpha  occ. eigenvalues --   -0.45882  -0.45518  -0.45440  -0.43870  -0.43732
 Alpha virt. eigenvalues --    0.19682   0.22288   0.23531   0.23833   0.25450
 Alpha virt. eigenvalues --    0.26125   0.26360   0.28221   0.28793   0.30351
 Alpha virt. eigenvalues --    0.30564   0.31319   0.31674   0.31912   0.32259

 Mulliken charges:
               1
     1  C   -0.300683
     2  C   -0.299350
     3  C   -0.475742
     4  H    0.152524
     5  H    0.149059
     6  H    0.151053
     7  H    0.151837
     8  H    0.155193
     9  H    0.155169
    10  H    0.159989
    11  C   -0.299775
    12  C   -0.301235
    13  C   -0.483577
    14  H    0.152108
    15  H    0.149154
    16  H    0.152954
    17  H    0.151710
    18  H    0.155316
    19  H    0.163005
    20  H    0.159003
    21  C   -0.304742
    22  C   -0.299325
    23  C   -0.481648
    24  H    0.150316
    25  H    0.154979
    26  H    0.152252
    27  H    0.152284
    28  H    0.161088
    29  H    0.154964
    30  H    0.161138
    31  C   -0.298209
    32  C   -0.301603
    33  C   -0.475763
    34  H    0.150010
    35  H    0.150107
    36  H    0.152199
    37  H    0.152555
    38  H    0.155548
    39  H    0.155543
    40  H    0.160597
 Sum of Mulliken charges =  -0.00000

 Dipole moment (field-independent basis, Debye):
    X=             -0.0678    Y=              0.0075    Z=             -0.0091  Tot=              0.0688
 Quadrupole moment (field-independent basis, Debye-Ang):
   XX=            -84.1572   YY=            -86.6114   ZZ=            -83.9475
   XY=             -0.4340   XZ=              0.1655   YZ=             -0.6369

 Normal termination of Gaussian 16 at Wed May  5 23:04:01 2021.
