 Gaussian 16, Revision A.03,
 Gaussian 16:  EM64L-G16RevA.03 25-Dec-2016

 -------------
 #p 6-31g* mp2
 -------------

 ------------------------------------------------------
 Input file generated by CHIRIPA (05-May-2021 14:57:27)
 ------------------------------------------------------
 Symbolic Z-matrix:
 Charge =  0 Multiplicity = 1

                         Standard orientation:
 ---------------------------------------------------------------------
 Center     Atomic      Atomic             Coordinates (Angstroms)
 Number     Number       Type             X           Y           Z
 ---------------------------------------------------------------------
      1          6           0        5.571584    1.367033    0.176338
      2          6           0        4.972202    1.085345   -1.055699
      3          6           0        3.819246    0.297299   -1.120703
      4          6           0        3.290024   -0.194935    0.071320
      5          6           0        3.864064    0.068130    1.314125
      6          6           0        5.016581    0.858424    1.355239
      7          1           0        6.467057    1.980079    0.217555
      8          1           0        5.401029    1.478996   -1.972864
      9          1           0        3.334807    0.063706   -2.061007
     10          1           0        3.413451   -0.338418    2.211390
     11          1           0        5.479929    1.075560    2.313469
     12          7           0        2.069674   -1.030393    0.015149
     13          8           0        1.622963   -1.452117    1.079685
     14          8           0        1.582982   -1.247682   -1.092349
     15          6           0       -4.775966    2.197260    0.287520
     16          6           0       -5.098731    1.051762    1.022488
     17          6           0       -4.393566   -0.139458    0.826824
     18          6           0       -3.366941   -0.149648   -0.116164
     19          6           0       -3.021659    0.975025   -0.863949
     20          6           0       -3.740286    2.155310   -0.651697
     21          1           0       -5.328984    3.118381    0.445959
     22          1           0       -5.902568    1.081418    1.752564
     23          1           0       -4.622525   -1.040926    1.382119
     24          1           0       -2.215239    0.914659   -1.584685
     25          1           0       -3.487430    3.043382   -1.223918
     26          7           0       -2.613289   -1.404951   -0.332085
     27          8           0       -1.713151   -1.387922   -1.168804
     28          8           0       -2.936985   -2.382118    0.339482
 ---------------------------------------------------------------------

 SCF Done:  E(RHF) =  -868.334604888     A.U. after   16 cycles
 E2 =    -0.2600785128D+01 EUMP2 =    -0.87093539001527D+03

 The electronic state is 1-A.
 Alpha  occ. eigenvalues --  -20.59931 -20.59866 -20.59468 -20.59350 -15.84973
 Alpha  occ. eigenvalues --  -15.84470 -11.30713 -11.30310 -11.27325 -11.27321
 Alpha  occ. eigenvalues --  -11.27135 -11.26939 -11.26932 -11.26787 -11.26424
 Alpha  occ. eigenvalues --  -11.26414 -11.26076 -11.26062  -1.58971  -1.58474
 Alpha  occ. eigenvalues --   -1.38519  -1.38017  -1.18921  -1.18532  -1.08243
 Alpha  occ. eigenvalues --   -1.07842  -1.04377  -1.04008  -0.95013  -0.94592
 Alpha  occ. eigenvalues --   -0.85757  -0.85384  -0.81845  -0.81425  -0.76832
 Alpha  occ. eigenvalues --   -0.76391  -0.71196  -0.70655  -0.70331  -0.70024
 Alpha  occ. eigenvalues --   -0.69800  -0.69642  -0.64561  -0.64381  -0.64171
 Alpha  occ. eigenvalues --   -0.64023  -0.61720  -0.61351  -0.54864  -0.54506
 Alpha  occ. eigenvalues --   -0.52691  -0.52472  -0.52311  -0.52111  -0.47974
 Alpha  occ. eigenvalues --   -0.47913  -0.47436  -0.47392  -0.43876  -0.43257
 Alpha  occ. eigenvalues --   -0.36925  -0.36541  -0.36001  -0.35635
 Alpha virt. eigenvalues --    0.05688   0.06178   0.11647   0.12014   0.17120
 Alpha virt. eigenvalues --    0.17576   0.21751   0.22071   0.27636   0.27944
 Alpha virt. eigenvalues --    0.28675   0.29015   0.31277   0.31584   0.32926

 Mulliken charges:
               1
     1  C   -0.172155
     2  C   -0.218668
     3  C   -0.172421
     4  C    0.158744
     5  C   -0.171951
     6  C   -0.218569
     7  H    0.223498
     8  H    0.221555
     9  H    0.275778
    10  H    0.275346
    11  H    0.221679
    12  N    0.485666
    13  O   -0.460489
    14  O   -0.447611
    15  C   -0.172509
    16  C   -0.218642
    17  C   -0.171333
    18  C    0.160546
    19  C   -0.171974
    20  C   -0.218818
    21  H    0.221874
    22  H    0.220520
    23  H    0.275090
    24  H    0.276531
    25  H    0.219562
    26  N    0.488220
    27  O   -0.445603
    28  O   -0.463863
 Sum of Mulliken charges =  -0.00000

 Dipole moment (field-independent basis, Debye):
    X=              1.7306    Y=              7.0952    Z=              0.8128  Tot=              7.3483
 Quadrupole moment (field-independent basis, Debye-Ang):
   XX=            -60.5369   YY=           -107.8223   ZZ=            -98.0616
   XY=             -3.9923   XZ=             -3.4788   YZ=             -2.6433

 Normal termination of Gaussian 16 at Wed May  5 19:38:38 2021.
