 Gaussian 16, Revision A.03,
 Gaussian 16:  EM64L-G16RevA.03 25-Dec-2016

 -------------
 #p 6-31g* mp2
 -------------

 ------------------------------------------------------
 Input file generated by CHIRIPA (05-May-2021 14:53:15)
 ------------------------------------------------------
 Symbolic Z-matrix:
 Charge =  0 Multiplicity = 1

                         Standard orientation:
 ---------------------------------------------------------------------
 Center     Atomic      Atomic             Coordinates (Angstroms)
 Number     Number       Type             X           Y           Z
 ---------------------------------------------------------------------
      1          6           0       -3.147622    1.149351   -0.358566
      2          6           0       -2.457725    2.199556    0.512696
      3          6           0       -2.140688    3.485610   -0.251074
      4          1           0       -2.505862    0.917435   -1.219557
      5          1           0       -4.075922    1.573331   -0.765868
      6          1           0       -1.531703    1.773255    0.919349
      7          1           0       -3.101116    2.428858    1.371814
      8          1           0       -3.057845    3.936694   -0.643436
      9          1           0       -1.479514    3.277366   -1.098472
     10          1           0       -1.647819    4.222546    0.390694
     11          6           0       -3.470999   -0.141977    0.390851
     12          6           0       -4.160896   -1.192181   -0.480411
     13          6           0       -4.477932   -2.478236    0.283359
     14          1           0       -2.542698   -0.565956    0.798153
     15          1           0       -4.112759    0.089939    1.251842
     16          1           0       -3.517504   -1.421484   -1.339529
     17          1           0       -5.086918   -0.765881   -0.887063
     18          1           0       -5.139106   -2.269992    1.130758
     19          1           0       -3.560775   -2.929320    0.675721
     20          1           0       -4.970801   -3.215172   -0.358409
     21          6           0        1.309086   -2.568642   -0.088337
     22          6           0        0.619228   -1.351836   -0.089504
     23          6           0        1.316070   -0.140548   -0.047766
     24          6           0        2.708788   -0.183221   -0.005291
     25          6           0        3.424672   -1.379380   -0.002973
     26          6           0        2.707142   -2.578513   -0.045151
     27          1           0        0.759728   -3.504878   -0.120931
     28          1           0       -0.466502   -1.341133   -0.122991
     29          1           0        0.807207    0.815735   -0.047651
     30          1           0        4.507175   -1.358046    0.030947
     31          1           0        3.245536   -3.522004   -0.044137
     32          7           0        3.457454    1.092681    0.039129
     33          8           0        4.684277    1.028065    0.076095
     34          8           0        2.803258    2.133189    0.036137
 ---------------------------------------------------------------------

 SCF Done:  E(RHF) =  -669.535351915     A.U. after   15 cycles
 E2 =    -0.2092291483D+01 EUMP2 =    -0.67162764339745D+03

 The electronic state is 1-A.
 Alpha  occ. eigenvalues --  -20.60762 -20.60757 -15.85815 -11.31185 -11.27758
 Alpha  occ. eigenvalues --  -11.27750 -11.27498 -11.26773 -11.26744 -11.22450
 Alpha  occ. eigenvalues --  -11.22278 -11.22151 -11.22072 -11.21896 -11.21277
 Alpha  occ. eigenvalues --   -1.59838  -1.39391  -1.19359  -1.09194  -1.08752
 Alpha  occ. eigenvalues --   -1.04764  -1.04179  -0.96612  -0.95587  -0.87619
 Alpha  occ. eigenvalues --   -0.86163  -0.82422  -0.80247  -0.78988  -0.77468
 Alpha  occ. eigenvalues --   -0.72034  -0.71161  -0.70473  -0.65951  -0.65008
 Alpha  occ. eigenvalues --   -0.64747  -0.62089  -0.61577  -0.59982  -0.58206
 Alpha  occ. eigenvalues --   -0.55934  -0.55261  -0.53254  -0.53091  -0.53054
 Alpha  occ. eigenvalues --   -0.52816  -0.50555  -0.48796  -0.48789  -0.48535
 Alpha  occ. eigenvalues --   -0.47309  -0.46497  -0.46465  -0.44796  -0.44447
 Alpha  occ. eigenvalues --   -0.37339  -0.36363
 Alpha virt. eigenvalues --    0.05057   0.11257   0.16506   0.17783   0.22194
 Alpha virt. eigenvalues --    0.23302   0.25264   0.26683   0.26991   0.27941
 Alpha virt. eigenvalues --    0.29504   0.31080   0.31132   0.31595   0.32716

 Mulliken charges:
               1
     1  C   -0.300733
     2  C   -0.303302
     3  C   -0.476544
     4  H    0.146757
     5  H    0.154448
     6  H    0.148067
     7  H    0.155646
     8  H    0.155822
     9  H    0.157608
    10  H    0.167483
    11  C   -0.302855
    12  C   -0.301749
    13  C   -0.474858
    14  H    0.141743
    15  H    0.155848
    16  H    0.149138
    17  H    0.157016
    18  H    0.159055
    19  H    0.149002
    20  H    0.162882
    21  C   -0.171992
    22  C   -0.226895
    23  C   -0.178737
    24  C    0.159368
    25  C   -0.170555
    26  C   -0.218565
    27  H    0.226067
    28  H    0.233633
    29  H    0.281034
    30  H    0.275629
    31  H    0.223475
    32  N    0.487847
    33  O   -0.460467
    34  O   -0.460315
 Sum of Mulliken charges =  -0.00000

 Dipole moment (field-independent basis, Debye):
    X=             -2.8146    Y=             -4.3540    Z=             -0.1526  Tot=              5.1867
 Quadrupole moment (field-independent basis, Debye-Ang):
   XX=           -103.7517   YY=            -92.5237   ZZ=            -95.7698
   XY=            -15.2237   XZ=             -0.4949   YZ=              0.5509

 Normal termination of Gaussian 16 at Thu May  6 17:10:02 2021.
