 Gaussian 16, Revision A.03,
 Gaussian 16:  EM64L-G16RevA.03 25-Dec-2016

 -------------
 #p 6-31g* mp2
 -------------

 ------------------------------------------------------
 Input file generated by CHIRIPA (05-May-2021 14:55:25)
 ------------------------------------------------------
 Symbolic Z-matrix:
 Charge =  0 Multiplicity = 1

                         Standard orientation:
 ---------------------------------------------------------------------
 Center     Atomic      Atomic             Coordinates (Angstroms)
 Number     Number       Type             X           Y           Z
 ---------------------------------------------------------------------
      1          6           0       -2.558522    2.379147    0.669263
      2          6           0       -3.512180    1.775807   -0.157199
      3          6           0       -3.406479    0.422838   -0.493130
      4          6           0       -2.329474   -0.300187    0.017345
      5          6           0       -1.363226    0.272397    0.843059
      6          6           0       -1.488975    1.626842    1.165879
      7          1           0       -2.648420    3.430739    0.925130
      8          1           0       -4.343858    2.357604   -0.544328
      9          1           0       -4.130567   -0.069429   -1.130930
     10          1           0       -0.545267   -0.333408    1.213683
     11          1           0       -0.746863    2.092764    1.807932
     12          7           0       -2.206961   -1.733296   -0.331350
     13          8           0       -1.248747   -2.348465    0.131283
     14          8           0       -3.071469   -2.214262   -1.060689
     15          6           0        3.348752   -0.600587   -0.130747
     16          6           0        2.511468   -1.728707    0.472814
     17          6           0        3.207415   -3.087916    0.395363
     18          1           0        3.573422   -0.839875   -1.179178
     19          1           0        4.313920   -0.549691    0.391992
     20          1           0        1.547619   -1.776562   -0.049988
     21          1           0        2.288604   -1.486614    1.519876
     22          1           0        4.160746   -3.063786    0.933117
     23          1           0        3.415553   -3.355380   -0.645667
     24          1           0        2.591307   -3.879896    0.832444
     25          6           0        2.666391    0.764409   -0.060777
     26          6           0        3.503675    1.892528   -0.664338
     27          6           0        2.807727    3.251738   -0.586886
     28          1           0        1.701222    0.713512   -0.583515
     29          1           0        2.441721    1.003697    0.987655
     30          1           0        3.726539    1.650436   -1.711400
     31          1           0        4.467523    1.940383   -0.141535
     32          1           0        2.599590    3.519203    0.454143
     33          1           0        1.854396    3.227608   -1.124640
     34          1           0        3.423835    4.043718   -1.023967
 ---------------------------------------------------------------------

 SCF Done:  E(RHF) =  -669.536265895     A.U. after   15 cycles
 E2 =    -0.2092704906D+01 EUMP2 =    -0.67162897080130D+03

 The electronic state is 1-A.
 Alpha  occ. eigenvalues --  -20.60885 -20.60873 -15.85911 -11.31206 -11.27779
 Alpha  occ. eigenvalues --  -11.27733 -11.27506 -11.26782 -11.26755 -11.21828
 Alpha  occ. eigenvalues --  -11.21594 -11.21447 -11.21250 -11.21118 -11.20528
 Alpha  occ. eigenvalues --   -1.59945  -1.39501  -1.19378  -1.08787  -1.08430
 Alpha  occ. eigenvalues --   -1.04764  -1.03439  -0.95923  -0.95632  -0.86943
 Alpha  occ. eigenvalues --   -0.86167  -0.82465  -0.79556  -0.78272  -0.77466
 Alpha  occ. eigenvalues --   -0.72134  -0.71259  -0.70480  -0.65084  -0.65010
 Alpha  occ. eigenvalues --   -0.64758  -0.62111  -0.60826  -0.59318  -0.57504
 Alpha  occ. eigenvalues --   -0.55276  -0.55229  -0.53110  -0.52864  -0.52573
 Alpha  occ. eigenvalues --   -0.52349  -0.49885  -0.48926  -0.48888  -0.47840
 Alpha  occ. eigenvalues --   -0.46601  -0.45777  -0.45683  -0.44778  -0.43711
 Alpha  occ. eigenvalues --   -0.37361  -0.36345
 Alpha virt. eigenvalues --    0.04955   0.11234   0.16419   0.20610   0.22984
 Alpha virt. eigenvalues --    0.24077   0.25255   0.26571   0.27752   0.28190
 Alpha virt. eigenvalues --    0.29828   0.30059   0.31584   0.31616   0.32361

 Mulliken charges:
               1
     1  C   -0.170690
     2  C   -0.218843
     3  C   -0.170833
     4  C    0.155939
     5  C   -0.172717
     6  C   -0.219459
     7  H    0.225915
     8  H    0.223458
     9  H    0.275400
    10  H    0.282374
    11  H    0.224796
    12  N    0.489086
    13  O   -0.461371
    14  O   -0.459380
    15  C   -0.297558
    16  C   -0.310846
    17  C   -0.475098
    18  H    0.151396
    19  H    0.148121
    20  H    0.173826
    21  H    0.143388
    22  H    0.150568
    23  H    0.155582
    24  H    0.167376
    25  C   -0.300961
    26  C   -0.298989
    27  C   -0.475991
    28  H    0.151251
    29  H    0.140270
    30  H    0.154616
    31  H    0.152969
    32  H    0.149653
    33  H    0.155119
    34  H    0.161633
 Sum of Mulliken charges =  -0.00000

 Dipole moment (field-independent basis, Debye):
    X=             -0.5139    Y=              4.9133    Z=              1.1302  Tot=              5.0677
 Quadrupole moment (field-independent basis, Debye-Ang):
   XX=            -89.6845   YY=            -99.2378   ZZ=            -93.0438
   XY=            -11.7899   XZ=             -0.1800   YZ=             -0.2536

 Normal termination of Gaussian 16 at Thu May  6 20:55:52 2021.
