 Gaussian 16, Revision A.03,
 Gaussian 16:  EM64L-G16RevA.03 25-Dec-2016

 -------------
 #p 6-31g* mp2
 -------------

 ------------------------------------------------------
 Input file generated by CHIRIPA (05-May-2021 14:57:21)
 ------------------------------------------------------
 Symbolic Z-matrix:
 Charge =  0 Multiplicity = 1

                         Standard orientation:
 ---------------------------------------------------------------------
 Center     Atomic      Atomic             Coordinates (Angstroms)
 Number     Number       Type             X           Y           Z
 ---------------------------------------------------------------------
      1          6           0       -1.598024    1.968589   -0.766136
      2          6           0       -1.444701    0.615288   -1.084866
      3          6           0       -2.443634   -0.307868   -0.761659
      4          6           0       -3.588050    0.158991   -0.116953
      5          6           0       -3.770176    1.500892    0.213836
      6          6           0       -2.758227    2.406300   -0.118942
      7          1           0       -0.816973    2.678826   -1.020929
      8          1           0       -0.544737    0.272512   -1.587475
      9          1           0       -2.350848   -1.361218   -0.996736
     10          1           0       -4.678535    1.812614    0.714968
     11          1           0       -2.880016    3.456697    0.129812
     12          7           0       -4.652466   -0.808919    0.230278
     13          8           0       -5.651216   -0.372311    0.798176
     14          8           0       -4.467849   -1.985848   -0.072033
     15          6           0        1.084047   -1.246786    0.460487
     16          6           0        1.676353   -0.511636    1.492594
     17          6           0        2.966050    0.007439    1.344971
     18          6           0        3.637739   -0.228772    0.146502
     19          6           0        3.074575   -0.957250   -0.900138
     20          6           0        1.783813   -1.466859   -0.730486
     21          1           0        0.081766   -1.646340    0.583720
     22          1           0        1.135264   -0.339157    2.418617
     23          1           0        3.448388    0.580071    2.127825
     24          1           0        3.638817   -1.112669   -1.811672
     25          1           0        1.326314   -2.037419   -1.533730
     26          7           0        5.003646    0.315739   -0.021440
     27          8           0        5.574420    0.093694   -1.087062
     28          8           0        5.477608    0.954262    0.915729
 ---------------------------------------------------------------------

 SCF Done:  E(RHF) =  -868.336651216     A.U. after   16 cycles
 E2 =    -0.2602038477D+01 EUMP2 =    -0.87093868969228D+03

 The electronic state is 1-A.
 Alpha  occ. eigenvalues --  -20.61473 -20.61454 -20.61325 -20.61319 -15.86519
 Alpha  occ. eigenvalues --  -15.86386 -11.31948 -11.31839 -11.28529 -11.28495
 Alpha  occ. eigenvalues --  -11.28432 -11.28419 -11.28172 -11.28114 -11.27497
 Alpha  occ. eigenvalues --  -11.27451 -11.27440 -11.27377  -1.60542  -1.60402
 Alpha  occ. eigenvalues --   -1.40094  -1.39952  -1.20104  -1.20039  -1.09481
 Alpha  occ. eigenvalues --   -1.09390  -1.05516  -1.05454  -0.96293  -0.96226
 Alpha  occ. eigenvalues --   -0.86914  -0.86812  -0.83168  -0.83016  -0.78205
 Alpha  occ. eigenvalues --   -0.78078  -0.72730  -0.72598  -0.71873  -0.71733
 Alpha  occ. eigenvalues --   -0.71238  -0.71046  -0.65749  -0.65695  -0.65525
 Alpha  occ. eigenvalues --   -0.65385  -0.62894  -0.62747  -0.55983  -0.55908
 Alpha  occ. eigenvalues --   -0.54124  -0.53708  -0.53538  -0.53309  -0.49498
 Alpha  occ. eigenvalues --   -0.49483  -0.49364  -0.49348  -0.45488  -0.45338
 Alpha  occ. eigenvalues --   -0.38403  -0.37893  -0.37099  -0.36809
 Alpha virt. eigenvalues --    0.04157   0.04594   0.10394   0.10491   0.15455
 Alpha virt. eigenvalues --    0.16309   0.19629   0.21664   0.25493   0.26685
 Alpha virt. eigenvalues --    0.27579   0.29208   0.29642   0.30971   0.32015

 Mulliken charges:
               1
     1  C   -0.173386
     2  C   -0.216098
     3  C   -0.183135
     4  C    0.159713
     5  C   -0.171964
     6  C   -0.217902
     7  H    0.230342
     8  H    0.228072
     9  H    0.269628
    10  H    0.277475
    11  H    0.226545
    12  N    0.487915
    13  O   -0.457393
    14  O   -0.461901
    15  C   -0.168999
    16  C   -0.220241
    17  C   -0.170669
    18  C    0.157128
    19  C   -0.171156
    20  C   -0.230714
    21  H    0.231743
    22  H    0.227787
    23  H    0.277617
    24  H    0.277370
    25  H    0.222634
    26  N    0.488010
    27  O   -0.459446
    28  O   -0.458975
 Sum of Mulliken charges =  -0.00000

 Dipole moment (field-independent basis, Debye):
    X=             -1.0217    Y=              1.6683    Z=             -0.5050  Tot=              2.0204
 Quadrupole moment (field-independent basis, Debye-Ang):
   XX=           -166.0142   YY=           -100.0050   ZZ=           -100.0358
   XY=            -20.3544   XZ=              3.9896   YZ=              2.6376

 Normal termination of Gaussian 16 at Wed May  5 22:31:04 2021.
