 Gaussian 16, Revision A.03,
 Gaussian 16:  EM64L-G16RevA.03 25-Dec-2016

 -------------
 #p 6-31g* mp2
 -------------

 ------------------------------------------------------
 Input file generated by CHIRIPA (05-May-2021 14:57:26)
 ------------------------------------------------------
 Symbolic Z-matrix:
 Charge =  0 Multiplicity = 1

                         Standard orientation:
 ---------------------------------------------------------------------
 Center     Atomic      Atomic             Coordinates (Angstroms)
 Number     Number       Type             X           Y           Z
 ---------------------------------------------------------------------
      1          6           0       -2.195064    1.705442    0.535833
      2          6           0       -2.574587    0.761567    1.495823
      3          6           0       -3.595475   -0.154663    1.225898
      4          6           0       -4.218258   -0.098448   -0.020004
      5          6           0       -3.862712    0.830049   -0.997128
      6          6           0       -2.839202    1.736616   -0.705391
      7          1           0       -1.400995    2.413439    0.753989
      8          1           0       -2.076097    0.735030    2.460628
      9          1           0       -3.909216   -0.895889    1.950859
     10          1           0       -4.378138    0.831986   -1.949887
     11          1           0       -2.546548    2.468541   -1.452843
     12          7           0       -5.300414   -1.063305   -0.317307
     13          8           0       -5.833463   -0.993082   -1.422551
     14          8           0       -5.595069   -1.871512    0.560540
     15          6           0        1.988801    1.391596    0.194853
     16          6           0        3.226571    1.969901   -0.105170
     17          6           0        4.369683    1.174999   -0.231559
     18          6           0        4.238199   -0.200962   -0.050636
     19          6           0        3.019005   -0.806832    0.248995
     20          6           0        1.889146    0.007515    0.370669
     21          1           0        1.105952    2.016647    0.291205
     22          1           0        3.306943    3.044515   -0.242242
     23          1           0        5.340297    1.596504   -0.463201
     24          1           0        2.970261   -1.881017    0.380028
     25          1           0        0.929176   -0.444350    0.603737
     26          7           0        5.441345   -1.052782   -0.181942
     27          8           0        5.299018   -2.262511   -0.017815
     28          8           0        6.503916   -0.494580   -0.446502
 ---------------------------------------------------------------------

 SCF Done:  E(RHF) =  -868.336724076     A.U. after   16 cycles
 E2 =    -0.2600141105D+01 EUMP2 =    -0.87093686518114D+03

 The electronic state is 1-A.
 Alpha  occ. eigenvalues --  -20.61450 -20.61444 -20.61159 -20.61153 -15.86508
 Alpha  occ. eigenvalues --  -15.86215 -11.32092 -11.31706 -11.28665 -11.28641
 Alpha  occ. eigenvalues --  -11.28586 -11.28277 -11.28259 -11.28165 -11.27800
 Alpha  occ. eigenvalues --  -11.27759 -11.27374 -11.27335  -1.60520  -1.60231
 Alpha  occ. eigenvalues --   -1.40066  -1.39781  -1.20292  -1.19897  -1.09680
 Alpha  occ. eigenvalues --   -1.09294  -1.05708  -1.05307  -0.96474  -0.96104
 Alpha  occ. eigenvalues --   -0.87110  -0.86711  -0.83286  -0.82921  -0.78264
 Alpha  occ. eigenvalues --   -0.77926  -0.72722  -0.72432  -0.71845  -0.71606
 Alpha  occ. eigenvalues --   -0.71555  -0.70959  -0.65949  -0.65716  -0.65556
 Alpha  occ. eigenvalues --   -0.65311  -0.63030  -0.62640  -0.56497  -0.55723
 Alpha  occ. eigenvalues --   -0.54046  -0.53799  -0.53642  -0.53396  -0.49499
 Alpha  occ. eigenvalues --   -0.49464  -0.49202  -0.49179  -0.45423  -0.45158
 Alpha  occ. eigenvalues --   -0.38340  -0.37924  -0.37301  -0.36900
 Alpha virt. eigenvalues --    0.04209   0.04594   0.10280   0.10745   0.15488
 Alpha virt. eigenvalues --    0.16044   0.18344   0.21886   0.24847   0.26160
 Alpha virt. eigenvalues --    0.26975   0.29355   0.29500   0.31615   0.32188

 Mulliken charges:
               1
     1  C   -0.177823
     2  C   -0.222402
     3  C   -0.170617
     4  C    0.160071
     5  C   -0.169835
     6  C   -0.217285
     7  H    0.220414
     8  H    0.225287
     9  H    0.278726
    10  H    0.278993
    11  H    0.225283
    12  N    0.487827
    13  O   -0.457556
    14  O   -0.457916
    15  C   -0.172201
    16  C   -0.218800
    17  C   -0.170383
    18  C    0.159368
    19  C   -0.170302
    20  C   -0.220738
    21  H    0.216075
    22  H    0.223347
    23  H    0.277110
    24  H    0.277905
    25  H    0.225362
    26  N    0.487866
    27  O   -0.458565
    28  O   -0.459209
 Sum of Mulliken charges =  -0.00000

 Dipole moment (field-independent basis, Debye):
    X=             -0.5781    Y=              6.2275    Z=              1.4351  Tot=              6.4168
 Quadrupole moment (field-independent basis, Debye-Ang):
   XX=           -170.6983   YY=           -103.5396   ZZ=           -101.4233
   XY=              1.1973   XZ=             -2.2911   YZ=             -3.6380

 Normal termination of Gaussian 16 at Fri May  7 06:36:16 2021.
