 Gaussian 16, Revision A.03,
 Gaussian 16:  EM64L-G16RevA.03 25-Dec-2016

 -------------
 #p 6-31g* mp2
 -------------

 ------------------------------------------------------
 Input file generated by CHIRIPA (05-May-2021 14:51:13)
 ------------------------------------------------------
 Symbolic Z-matrix:
 Charge =  0 Multiplicity = 1

                         Standard orientation:
 ---------------------------------------------------------------------
 Center     Atomic      Atomic             Coordinates (Angstroms)
 Number     Number       Type             X           Y           Z
 ---------------------------------------------------------------------
      1          6           0       -3.761142   -0.525061   -0.209657
      2          6           0       -2.990869   -1.791359   -0.585363
      3          6           0       -3.824623   -3.062026   -0.417877
      4          1           0       -4.102761   -0.606617    0.831300
      5          1           0       -4.664961   -0.456202   -0.830756
      6          1           0       -2.088055   -1.857088    0.035300
      7          1           0       -2.650880   -1.706697   -1.625486
      8          1           0       -4.718059   -3.022587   -1.049398
      9          1           0       -4.152036   -3.173833    0.620825
     10          1           0       -3.254612   -3.955245   -0.691933
     11          6           0       -2.940940    0.753491   -0.371837
     12          6           0       -3.711213    2.019788    0.003870
     13          6           0       -2.877459    3.290456   -0.163617
     14          1           0       -2.037121    0.684631    0.249262
     15          1           0       -2.599321    0.835046   -1.412793
     16          1           0       -4.051202    1.935126    1.043993
     17          1           0       -4.614027    2.085517   -0.616793
     18          1           0       -2.550046    3.402262   -1.202318
     19          1           0       -1.984023    3.251016    0.467905
     20          1           0       -3.447470    4.183674    0.110440
     21          6           0        3.858947    0.279914   -0.121717
     22          6           0        5.187468   -0.453424   -0.309427
     23          6           0        6.193222    0.347777   -1.136670
     24          1           0        3.428909    0.504464   -1.107410
     25          1           0        4.047478    1.246989    0.364714
     26          1           0        4.996331   -1.419429   -0.794108
     27          1           0        5.614299   -0.676423    0.676829
     28          1           0        6.413071    1.305467   -0.653868
     29          1           0        5.791591    0.558238   -2.133163
     30          1           0        7.135767   -0.195025   -1.258468
     31          6           0        2.843135   -0.508343    0.703211
     32          6           0        1.514615    0.224994    0.890920
     33          6           0        0.508860   -0.576206    1.718163
     34          1           0        2.654604   -1.475418    0.216779
     35          1           0        3.273173   -0.732892    1.688904
     36          1           0        1.087783    0.447993   -0.095336
     37          1           0        1.705751    1.191000    1.375602
     38          1           0        0.910490   -0.786668    2.714656
     39          1           0        0.289011   -1.533895    1.235361
     40          1           0       -0.433686   -0.033404    1.839960
 ---------------------------------------------------------------------

 SCF Done:  E(RHF) =  -470.733006823     A.U. after   11 cycles
 E2 =    -0.1583381857D+01 EUMP2 =    -0.47231638868008D+03

 The electronic state is 1-A.
 Alpha  occ. eigenvalues --  -11.21640 -11.21613 -11.21583 -11.21542 -11.21428
 Alpha  occ. eigenvalues --  -11.21367 -11.21364 -11.21302 -11.21143 -11.21078
 Alpha  occ. eigenvalues --  -11.21059 -11.21040  -1.08462  -1.08394  -1.03565
 Alpha  occ. eigenvalues --   -1.03501  -0.96030  -0.95944  -0.87041  -0.86968
 Alpha  occ. eigenvalues --   -0.79639  -0.79553  -0.78265  -0.78216  -0.65143
 Alpha  occ. eigenvalues --   -0.65002  -0.60999  -0.60866  -0.59411  -0.59318
 Alpha  occ. eigenvalues --   -0.57711  -0.57495  -0.55312  -0.55239  -0.52761
 Alpha  occ. eigenvalues --   -0.52628  -0.52496  -0.52319  -0.50004  -0.49863
 Alpha  occ. eigenvalues --   -0.47986  -0.47845  -0.46738  -0.46500  -0.45832
 Alpha  occ. eigenvalues --   -0.45742  -0.45712  -0.45617  -0.43794  -0.43740
 Alpha virt. eigenvalues --    0.20695   0.23093   0.23937   0.24152   0.26277
 Alpha virt. eigenvalues --    0.26573   0.27159   0.27335   0.27865   0.29217
 Alpha virt. eigenvalues --    0.30396   0.31578   0.31770   0.31989   0.32227

 Mulliken charges:
               1
     1  C   -0.297403
     2  C   -0.305207
     3  C   -0.475458
     4  H    0.149308
     5  H    0.149405
     6  H    0.157993
     7  H    0.151124
     8  H    0.155005
     9  H    0.155257
    10  H    0.159792
    11  C   -0.307223
    12  C   -0.299269
    13  C   -0.475657
    14  H    0.158676
    15  H    0.149165
    16  H    0.151583
    17  H    0.151948
    18  H    0.155158
    19  H    0.155019
    20  H    0.160194
    21  C   -0.298366
    22  C   -0.299703
    23  C   -0.475728
    24  H    0.149902
    25  H    0.149599
    26  H    0.151977
    27  H    0.151934
    28  H    0.155220
    29  H    0.155241
    30  H    0.160287
    31  C   -0.298478
    32  C   -0.301304
    33  C   -0.481407
    34  H    0.149819
    35  H    0.149710
    36  H    0.154209
    37  H    0.151865
    38  H    0.155713
    39  H    0.157671
    40  H    0.162427
 Sum of Mulliken charges =  -0.00000

 Dipole moment (field-independent basis, Debye):
    X=              0.0402    Y=             -0.0007    Z=              0.0099  Tot=              0.0414
 Quadrupole moment (field-independent basis, Debye-Ang):
   XX=            -85.5855   YY=            -85.8707   ZZ=            -83.4573
   XY=             -0.7395   XZ=              1.1026   YZ=              0.6053

 Normal termination of Gaussian 16 at Wed May  5 18:21:42 2021.
