 Gaussian 16, Revision A.03,
 Gaussian 16:  EM64L-G16RevA.03 25-Dec-2016

 -------------
 #p 6-31g* mp2
 -------------

 ------------------------------------------------------
 Input file generated by CHIRIPA (05-May-2021 14:57:27)
 ------------------------------------------------------
 Symbolic Z-matrix:
 Charge =  0 Multiplicity = 1

                         Standard orientation:
 ---------------------------------------------------------------------
 Center     Atomic      Atomic             Coordinates (Angstroms)
 Number     Number       Type             X           Y           Z
 ---------------------------------------------------------------------
      1          6           0        1.726518   -0.924290    1.494353
      2          6           0        1.795486   -1.149653    0.115594
      3          6           0        2.895602   -0.703241   -0.622653
      4          6           0        3.913428   -0.031877    0.053063
      5          6           0        3.873760    0.207955    1.425723
      6          6           0        2.764046   -0.247398    2.143872
      7          1           0        0.868194   -1.274546    2.060034
      8          1           0        0.991198   -1.675055   -0.391475
      9          1           0        2.974624   -0.864213   -1.690952
     10          1           0        4.690999    0.734664    1.903338
     11          1           0        2.713171   -0.070963    3.214539
     12          7           0        5.083152    0.445452   -0.717848
     13          8           0        5.966784    1.034423   -0.099023
     14          8           0        5.094200    0.221573   -1.926315
     15          6           0       -3.481091   -2.391869   -0.395646
     16          6           0       -4.683899   -1.840277    0.057698
     17          6           0       -4.827891   -0.455140    0.181019
     18          6           0       -3.743803    0.352471   -0.159282
     19          6           0       -2.532677   -0.166960   -0.613877
     20          6           0       -2.411206   -1.554925   -0.729399
     21          1           0       -3.377982   -3.468975   -0.488415
     22          1           0       -5.516463   -2.487831    0.317614
     23          1           0       -5.747825   -0.001529    0.529408
     24          1           0       -1.720410    0.504141   -0.865398
     25          1           0       -1.475911   -1.980512   -1.081743
     26          7           0       -3.884320    1.820352   -0.032856
     27          8           0       -2.914314    2.510254   -0.339058
     28          8           0       -4.961803    2.253178    0.370044
 ---------------------------------------------------------------------

 SCF Done:  E(RHF) =  -868.336768902     A.U. after   16 cycles
 E2 =    -0.2599710510D+01 EUMP2 =    -0.87093647941178D+03

 The electronic state is 1-A.
 Alpha  occ. eigenvalues --  -20.61297 -20.61291 -20.60991 -20.60982 -15.86359
 Alpha  occ. eigenvalues --  -15.86050 -11.31871 -11.31513 -11.28510 -11.28451
 Alpha  occ. eigenvalues --  -11.28268 -11.28174 -11.28082 -11.27902 -11.27627
 Alpha  occ. eigenvalues --  -11.27466 -11.27283 -11.27086  -1.60372  -1.60062
 Alpha  occ. eigenvalues --   -1.39920  -1.39613  -1.20080  -1.19717  -1.09445
 Alpha  occ. eigenvalues --   -1.09093  -1.05519  -1.05151  -0.96246  -0.95903
 Alpha  occ. eigenvalues --   -0.86909  -0.86548  -0.83089  -0.82745  -0.78115
 Alpha  occ. eigenvalues --   -0.77768  -0.72570  -0.72267  -0.71701  -0.71386
 Alpha  occ. eigenvalues --   -0.71169  -0.70817  -0.65738  -0.65631  -0.65377
 Alpha  occ. eigenvalues --   -0.65130  -0.62903  -0.62450  -0.56001  -0.55640
 Alpha  occ. eigenvalues --   -0.53834  -0.53673  -0.53450  -0.53199  -0.49345
 Alpha  occ. eigenvalues --   -0.49316  -0.49034  -0.49013  -0.45293  -0.44997
 Alpha  occ. eigenvalues --   -0.38067  -0.37702  -0.37127  -0.36749
 Alpha virt. eigenvalues --    0.04440   0.04794   0.10496   0.10854   0.15817
 Alpha virt. eigenvalues --    0.16231   0.18397   0.21885   0.24514   0.27631
 Alpha virt. eigenvalues --    0.27915   0.28466   0.29486   0.31593   0.31877

 Mulliken charges:
               1
     1  C   -0.170390
     2  C   -0.222919
     3  C   -0.170448
     4  C    0.159326
     5  C   -0.169034
     6  C   -0.217788
     7  H    0.226903
     8  H    0.215134
     9  H    0.275732
    10  H    0.277740
    11  H    0.225941
    12  N    0.488196
    13  O   -0.458659
    14  O   -0.460122
    15  C   -0.170849
    16  C   -0.218766
    17  C   -0.169644
    18  C    0.158437
    19  C   -0.172196
    20  C   -0.224956
    21  H    0.227132
    22  H    0.225895
    23  H    0.278009
    24  H    0.278116
    25  H    0.218356
    26  N    0.487877
    27  O   -0.458328
    28  O   -0.458696
 Sum of Mulliken charges =  -0.00000

 Dipole moment (field-independent basis, Debye):
    X=             -3.6722    Y=             -6.7122    Z=              2.3918  Tot=              8.0162
 Quadrupole moment (field-independent basis, Debye-Ang):
   XX=           -134.6994   YY=           -108.9824   ZZ=           -101.1145
   XY=             14.9006   XZ=             12.3913   YZ=              2.0253

 Normal termination of Gaussian 16 at Fri May  7 08:12:01 2021.
