 Gaussian 16, Revision A.03,
 Gaussian 16:  EM64L-G16RevA.03 25-Dec-2016

 -------------
 #p 6-31g* mp2
 -------------

 ------------------------------------------------------
 Input file generated by CHIRIPA (05-May-2021 14:53:11)
 ------------------------------------------------------
 Symbolic Z-matrix:
 Charge =  0 Multiplicity = 1

                         Standard orientation:
 ---------------------------------------------------------------------
 Center     Atomic      Atomic             Coordinates (Angstroms)
 Number     Number       Type             X           Y           Z
 ---------------------------------------------------------------------
      1          6           0        3.485433   -0.867066    0.341334
      2          6           0        2.036052   -0.657897    0.781253
      3          6           0        1.362655   -1.953946    1.233567
      4          1           0        3.511557   -1.600267   -0.476394
      5          1           0        4.054000   -1.305917    1.172920
      6          1           0        1.470712   -0.218289   -0.050463
      7          1           0        2.013358    0.075035    1.597899
      8          1           0        1.901521   -2.393252    2.079283
      9          1           0        1.355792   -2.688242    0.421555
     10          1           0        0.327325   -1.781399    1.543696
     11          6           0        4.172111    0.419473   -0.113660
     12          6           0        5.621492    0.210305   -0.553580
     13          6           0        6.294890    1.506354   -1.005894
     14          1           0        3.603545    0.858325   -0.945247
     15          1           0        4.145987    1.152674    0.704067
     16          1           0        5.644187   -0.522627   -1.370226
     17          1           0        6.186833   -0.229304    0.278136
     18          1           0        6.301753    2.240649   -0.193882
     19          1           0        5.756024    1.945659   -1.851610
     20          1           0        7.330219    1.333806   -1.316023
     21          6           0       -3.106028    2.600566    0.595611
     22          6           0       -2.288617    1.711887    1.301735
     23          6           0       -2.217224    0.365691    0.931317
     24          6           0       -2.980130   -0.059669   -0.155114
     25          6           0       -3.803915    0.801342   -0.878527
     26          6           0       -3.859740    2.143264   -0.490351
     27          1           0       -3.155442    3.644662    0.890258
     28          1           0       -1.702169    2.064236    2.145520
     29          1           0       -1.592686   -0.343824    1.460428
     30          1           0       -4.376856    0.420614   -1.715308
     31          1           0       -4.495420    2.831166   -1.040575
     32          7           0       -2.912790   -1.482563   -0.556659
     33          8           0       -3.594755   -1.832409   -1.517475
     34          8           0       -2.179318   -2.221039    0.097030
 ---------------------------------------------------------------------

 SCF Done:  E(RHF) =  -669.535398887     A.U. after   15 cycles
 E2 =    -0.2091797218D+01 EUMP2 =    -0.67162719610514D+03

 The electronic state is 1-A.
 Alpha  occ. eigenvalues --  -20.60820 -20.60812 -15.85860 -11.31215 -11.27781
 Alpha  occ. eigenvalues --  -11.27775 -11.27522 -11.26799 -11.26786 -11.21565
 Alpha  occ. eigenvalues --  -11.21492 -11.21352 -11.21250 -11.21075 -11.20615
 Alpha  occ. eigenvalues --   -1.59889  -1.39443  -1.19387  -1.08785  -1.08343
 Alpha  occ. eigenvalues --   -1.04789  -1.03408  -0.95840  -0.95611  -0.86836
 Alpha  occ. eigenvalues --   -0.86187  -0.82454  -0.79474  -0.78168  -0.77508
 Alpha  occ. eigenvalues --   -0.72087  -0.71208  -0.70504  -0.65044  -0.64969
 Alpha  occ. eigenvalues --   -0.64805  -0.62181  -0.60795  -0.59196  -0.57460
 Alpha  occ. eigenvalues --   -0.55290  -0.55094  -0.53115  -0.52963  -0.52449
 Alpha  occ. eigenvalues --   -0.52213  -0.49750  -0.48842  -0.48834  -0.47778
 Alpha  occ. eigenvalues --   -0.46515  -0.45701  -0.45632  -0.44844  -0.43641
 Alpha  occ. eigenvalues --   -0.37367  -0.36384
 Alpha virt. eigenvalues --    0.05012   0.11229   0.16515   0.20713   0.22973
 Alpha virt. eigenvalues --    0.24004   0.26426   0.26712   0.27553   0.27785
 Alpha virt. eigenvalues --    0.29209   0.30315   0.31574   0.31580   0.31943

 Mulliken charges:
               1
     1  C   -0.297967
     2  C   -0.302147
     3  C   -0.479578
     4  H    0.152595
     5  H    0.149429
     6  H    0.151794
     7  H    0.143392
     8  H    0.151609
     9  H    0.165223
    10  H    0.166538
    11  C   -0.297894
    12  C   -0.299671
    13  C   -0.475588
    14  H    0.149155
    15  H    0.147053
    16  H    0.153169
    17  H    0.151956
    18  H    0.153999
    19  H    0.154888
    20  H    0.160461
    21  C   -0.170486
    22  C   -0.221398
    23  C   -0.171496
    24  C    0.155119
    25  C   -0.170274
    26  C   -0.218837
    27  H    0.225767
    28  H    0.224300
    29  H    0.284060
    30  H    0.275636
    31  H    0.223525
    32  N    0.488560
    33  O   -0.460066
    34  O   -0.462827
 Sum of Mulliken charges =  -0.00000

 Dipole moment (field-independent basis, Debye):
    X=             -0.3009    Y=              4.9151    Z=              1.3484  Tot=              5.1056
 Quadrupole moment (field-independent basis, Debye-Ang):
   XX=            -92.2010   YY=            -96.2213   ZZ=            -92.1865
   XY=            -16.5083   XZ=             -1.0399   YZ=             -1.0671

 Normal termination of Gaussian 16 at Wed May  5 15:25:40 2021.
