 Gaussian 16, Revision A.03,
 Gaussian 16:  EM64L-G16RevA.03 25-Dec-2016

 -------------
 #p 6-31g* mp2
 -------------

 ------------------------------------------------------
 Input file generated by CHIRIPA (05-May-2021 14:53:17)
 ------------------------------------------------------
 Symbolic Z-matrix:
 Charge =  0 Multiplicity = 1

                         Standard orientation:
 ---------------------------------------------------------------------
 Center     Atomic      Atomic             Coordinates (Angstroms)
 Number     Number       Type             X           Y           Z
 ---------------------------------------------------------------------
      1          6           0        2.842385   -0.747423   -0.926103
      2          6           0        1.480710   -1.310938   -0.518331
      3          6           0        0.894442   -2.256959   -1.566723
      4          1           0        2.741354   -0.218509   -1.883698
      5          1           0        3.538450   -1.579560   -1.100563
      6          1           0        0.787805   -0.477943   -0.343349
      7          1           0        1.584955   -1.838408    0.438500
      8          1           0        1.563442   -3.106958   -1.735665
      9          1           0        0.761763   -1.738763   -2.521956
     10          1           0       -0.079007   -2.648132   -1.254888
     11          6           0        3.441383    0.200033    0.111807
     12          6           0        4.803058    0.763548   -0.295965
     13          6           0        5.389326    1.709569    0.752427
     14          1           0        2.745318    1.032169    0.286267
     15          1           0        3.542414   -0.328881    1.069402
     16          1           0        4.698813    1.291018   -1.252796
     17          1           0        5.495962   -0.069447   -0.470947
     18          1           0        5.522005    1.191373    1.707661
     19          1           0        4.720326    2.559568    0.921369
     20          1           0        6.362775    2.100741    0.440592
     21          6           0       -3.427050    2.198180   -0.899533
     22          6           0       -2.382292    2.379833    0.012609
     23          6           0       -1.835791    1.287586    0.692964
     24          6           0       -2.360583    0.021985    0.435799
     25          6           0       -3.401073   -0.191305   -0.467074
     26          6           0       -3.932216    0.915451   -1.136047
     27          1           0       -3.845620    3.052299   -1.423628
     28          1           0       -1.987987    3.374868    0.198279
     29          1           0       -1.026596    1.399712    1.404335
     30          1           0       -3.773198   -1.195302   -0.631186
     31          1           0       -4.743549    0.771390   -1.843881
     32          7           0       -1.790157   -1.142009    1.150035
     33          8           0       -2.270177   -2.246794    0.905766
     34          8           0       -0.873838   -0.927522    1.940599
 ---------------------------------------------------------------------

 SCF Done:  E(RHF) =  -669.535691918     A.U. after   15 cycles
 E2 =    -0.2093562243D+01 EUMP2 =    -0.67162925416111D+03

 The electronic state is 1-A.
 Alpha  occ. eigenvalues --  -20.60936 -20.60917 -15.85928 -11.31283 -11.27845
 Alpha  occ. eigenvalues --  -11.27836 -11.27581 -11.26856 -11.26846 -11.21295
 Alpha  occ. eigenvalues --  -11.20945 -11.20853 -11.20808 -11.20691 -11.20289
 Alpha  occ. eigenvalues --   -1.59975  -1.39533  -1.19451  -1.08850  -1.07911
 Alpha  occ. eigenvalues --   -1.04848  -1.02997  -0.95691  -0.95476  -0.86490
 Alpha  occ. eigenvalues --   -0.86247  -0.82527  -0.79074  -0.77748  -0.77536
 Alpha  occ. eigenvalues --   -0.72168  -0.71291  -0.70556  -0.65105  -0.64853
 Alpha  occ. eigenvalues --   -0.64552  -0.62195  -0.60403  -0.58825  -0.57043
 Alpha  occ. eigenvalues --   -0.55350  -0.54785  -0.53173  -0.52938  -0.52148
 Alpha  occ. eigenvalues --   -0.51899  -0.49444  -0.48938  -0.48931  -0.47484
 Alpha  occ. eigenvalues --   -0.46114  -0.45560  -0.45141  -0.44502  -0.43195
 Alpha  occ. eigenvalues --   -0.37415  -0.36442
 Alpha virt. eigenvalues --    0.04921   0.11118   0.16382   0.21259   0.23266
 Alpha virt. eigenvalues --    0.24713   0.26470   0.27412   0.27696   0.28316
 Alpha virt. eigenvalues --    0.28699   0.30852   0.31648   0.32129   0.32488

 Mulliken charges:
               1
     1  C   -0.298613
     2  C   -0.300629
     3  C   -0.482359
     4  H    0.144655
     5  H    0.148751
     6  H    0.142663
     7  H    0.169085
     8  H    0.154398
     9  H    0.147761
    10  H    0.169319
    11  C   -0.296047
    12  C   -0.299246
    13  C   -0.475025
    14  H    0.143619
    15  H    0.154230
    16  H    0.149497
    17  H    0.152250
    18  H    0.156500
    19  H    0.152248
    20  H    0.158907
    21  C   -0.170619
    22  C   -0.218742
    23  C   -0.172428
    24  C    0.158856
    25  C   -0.170851
    26  C   -0.218457
    27  H    0.225992
    28  H    0.223840
    29  H    0.276282
    30  H    0.275955
    31  H    0.223913
    32  N    0.489477
    33  O   -0.459890
    34  O   -0.455291
 Sum of Mulliken charges =  -0.00000

 Dipole moment (field-independent basis, Debye):
    X=             -2.1667    Y=              4.0003    Z=             -2.3371  Tot=              5.1146
 Quadrupole moment (field-independent basis, Debye-Ang):
   XX=            -83.9630   YY=            -92.8767   ZZ=            -96.8981
   XY=             -8.7464   XZ=              7.1543   YZ=              2.2751

 Normal termination of Gaussian 16 at Thu May  6 13:57:24 2021.
