 Gaussian 16, Revision A.03,
 Gaussian 16:  EM64L-G16RevA.03 25-Dec-2016

 -------------
 #p 6-31g* mp2
 -------------

 ------------------------------------------------------
 Input file generated by CHIRIPA (05-May-2021 14:53:12)
 ------------------------------------------------------
 Symbolic Z-matrix:
 Charge =  0 Multiplicity = 1

                         Standard orientation:
 ---------------------------------------------------------------------
 Center     Atomic      Atomic             Coordinates (Angstroms)
 Number     Number       Type             X           Y           Z
 ---------------------------------------------------------------------
      1          6           0        3.708207    0.613236   -0.415349
      2          6           0        4.481330    1.881991   -0.054063
      3          6           0        4.337267    2.981856   -1.106364
      4          1           0        4.060287    0.241194   -1.387239
      5          1           0        2.645826    0.863323   -0.542621
      6          1           0        5.541716    1.629332    0.073846
      7          1           0        4.127502    2.250948    0.917169
      8          1           0        3.286155    3.262481   -1.228900
      9          1           0        4.708404    2.637332   -2.077014
     10          1           0        4.897884    3.879685   -0.828028
     11          6           0        3.842443   -0.495473    0.626991
     12          6           0        3.069320   -1.764228    0.265705
     13          6           0        3.213383   -2.864093    1.318006
     14          1           0        4.904824   -0.745560    0.754263
     15          1           0        3.490363   -0.123431    1.598881
     16          1           0        3.423148   -2.133185   -0.705528
     17          1           0        2.008934   -1.511569    0.137795
     18          1           0        2.842246   -2.519569    2.288656
     19          1           0        4.264495   -3.144718    1.440541
     20          1           0        2.652766   -3.761922    1.039670
     21          6           0       -4.444336    1.624253    1.075583
     22          6           0       -4.926108    0.891186   -0.013925
     23          6           0       -4.106710   -0.036949   -0.663310
     24          6           0       -2.804955   -0.207475   -0.194649
     25          6           0       -2.295933    0.507743    0.888241
     26          6           0       -3.133098    1.430533    1.522402
     27          1           0       -5.087766    2.343175    1.574128
     28          1           0       -5.944002    1.039552   -0.363103
     29          1           0       -4.454075   -0.617838   -1.509078
     30          1           0       -1.276700    0.337933    1.213431
     31          1           0       -2.756263    1.998441    2.368287
     32          7           0       -1.928090   -1.187221   -0.874064
     33          8           0       -0.785079   -1.318957   -0.441849
     34          8           0       -2.400417   -1.804860   -1.825940
 ---------------------------------------------------------------------

 SCF Done:  E(RHF) =  -669.536012273     A.U. after   15 cycles
 E2 =    -0.2090933796D+01 EUMP2 =    -0.67162694606973D+03

 The electronic state is 1-A.
 Alpha  occ. eigenvalues --  -20.60945 -20.60933 -15.85991 -11.31310 -11.27879
 Alpha  occ. eigenvalues --  -11.27868 -11.27609 -11.26882 -11.26872 -11.21181
 Alpha  occ. eigenvalues --  -11.20750 -11.20742 -11.20623 -11.20376 -11.20140
 Alpha  occ. eigenvalues --   -1.60007  -1.39565  -1.19479  -1.08881  -1.07719
 Alpha  occ. eigenvalues --   -1.04876  -1.02803  -0.95724  -0.95301  -0.86325
 Alpha  occ. eigenvalues --   -0.86276  -0.82562  -0.78882  -0.77635  -0.77449
 Alpha  occ. eigenvalues --   -0.72216  -0.71324  -0.70588  -0.65138  -0.64879
 Alpha  occ. eigenvalues --   -0.64357  -0.62225  -0.60201  -0.58679  -0.56874
 Alpha  occ. eigenvalues --   -0.55379  -0.54612  -0.53207  -0.52969  -0.52000
 Alpha  occ. eigenvalues --   -0.51718  -0.49279  -0.48970  -0.48960  -0.47188
 Alpha  occ. eigenvalues --   -0.45911  -0.45059  -0.45008  -0.44834  -0.43068
 Alpha  occ. eigenvalues --   -0.37457  -0.36478
 Alpha virt. eigenvalues --    0.04921   0.11177   0.16419   0.21192   0.23420
 Alpha virt. eigenvalues --    0.24949   0.26805   0.27387   0.27827   0.28539
 Alpha virt. eigenvalues --    0.28857   0.30886   0.31915   0.32250   0.32726

 Mulliken charges:
               1
     1  C   -0.297854
     2  C   -0.298803
     3  C   -0.474942
     4  H    0.150624
     5  H    0.151306
     6  H    0.151166
     7  H    0.148159
     8  H    0.153490
     9  H    0.155946
    10  H    0.157861
    11  C   -0.297204
    12  C   -0.310912
    13  C   -0.474357
    14  H    0.146089
    15  H    0.143532
    16  H    0.150722
    17  H    0.179441
    18  H    0.149658
    19  H    0.149997
    20  H    0.163410
    21  C   -0.170628
    22  C   -0.218521
    23  C   -0.170633
    24  C    0.157493
    25  C   -0.170526
    26  C   -0.218451
    27  H    0.226083
    28  H    0.223906
    29  H    0.275962
    30  H    0.274892
    31  H    0.223864
    32  N    0.497277
    33  O   -0.469305
    34  O   -0.458741
 Sum of Mulliken charges =  -0.00000

 Dipole moment (field-independent basis, Debye):
    X=             -3.3676    Y=              3.3847    Z=              2.2881  Tot=              5.2945
 Quadrupole moment (field-independent basis, Debye-Ang):
   XX=            -75.1066   YY=            -97.6042   ZZ=            -94.5322
   XY=             -8.7204   XZ=             -4.2877   YZ=              0.7480

 Normal termination of Gaussian 16 at Wed May  5 18:31:08 2021.
