 Gaussian 16, Revision A.03,
 Gaussian 16:  EM64L-G16RevA.03 25-Dec-2016

 -------------
 #p 6-31g* mp2
 -------------

 ------------------------------------------------------
 Input file generated by CHIRIPA (05-May-2021 14:55:21)
 ------------------------------------------------------
 Symbolic Z-matrix:
 Charge =  0 Multiplicity = 1

                         Standard orientation:
 ---------------------------------------------------------------------
 Center     Atomic      Atomic             Coordinates (Angstroms)
 Number     Number       Type             X           Y           Z
 ---------------------------------------------------------------------
      1          6           0        0.943533   -0.028254   -0.229331
      2          6           0        1.706238    1.096995    0.100239
      3          6           0        3.096211    1.003147    0.217346
      4          6           0        3.693331   -0.237109   -0.002887
      5          6           0        2.960770   -1.376372   -0.332618
      6          6           0        1.572125   -1.259176   -0.444329
      7          1           0       -0.135716    0.053718   -0.318206
      8          1           0        1.220762    2.054227    0.267767
      9          1           0        3.710795    1.858263    0.471277
     10          1           0        3.473136   -2.317083   -0.493746
     11          1           0        0.982327   -2.134738   -0.700404
     12          7           0        5.164131   -0.348820    0.118232
     13          8           0        5.666201   -1.452889   -0.080751
     14          8           0        5.787024    0.669805    0.409855
     15          6           0       -3.816707    0.674095    0.289043
     16          6           0       -3.503338    1.919120   -0.541438
     17          6           0       -2.299485    2.697125   -0.009233
     18          1           0       -4.002257    0.972575    1.329920
     19          1           0       -2.933831    0.020108    0.304057
     20          1           0       -4.387007    2.569914   -0.556029
     21          1           0       -3.318700    1.617663   -1.580499
     22          1           0       -1.403251    2.068346   -0.010591
     23          1           0       -2.477626    3.026008    1.019699
     24          1           0       -2.093210    3.583164   -0.617711
     25          6           0       -5.017663   -0.114229   -0.230549
     26          6           0       -5.331033   -1.359254    0.599931
     27          6           0       -6.534885   -2.137258    0.067727
     28          1           0       -5.900540    0.539757   -0.245564
     29          1           0       -4.832113   -0.412709   -1.271427
     30          1           0       -5.515671   -1.057797    1.638993
     31          1           0       -4.447364   -2.010049    0.614523
     32          1           0       -6.356744   -2.466143   -0.961206
     33          1           0       -7.431120   -1.508481    0.069085
     34          1           0       -6.741161   -3.023299    0.676204
 ---------------------------------------------------------------------

 SCF Done:  E(RHF) =  -669.535126510     A.U. after   15 cycles
 E2 =    -0.2091677583D+01 EUMP2 =    -0.67162680409361D+03

 The electronic state is 1-A.
 Alpha  occ. eigenvalues --  -20.60728 -20.60722 -15.85781 -11.31142 -11.27711
 Alpha  occ. eigenvalues --  -11.27703 -11.27438 -11.26732 -11.26697 -11.22705
 Alpha  occ. eigenvalues --  -11.22476 -11.22398 -11.22345 -11.22226 -11.21680
 Alpha  occ. eigenvalues --   -1.59803  -1.39357  -1.19313  -1.09399  -1.08712
 Alpha  occ. eigenvalues --   -1.04716  -1.04479  -0.96946  -0.95550  -0.87964
 Alpha  occ. eigenvalues --   -0.86115  -0.82382  -0.80552  -0.79182  -0.77425
 Alpha  occ. eigenvalues --   -0.72000  -0.71126  -0.70468  -0.66041  -0.64970
 Alpha  occ. eigenvalues --   -0.64735  -0.62105  -0.61839  -0.60315  -0.58530
 Alpha  occ. eigenvalues --   -0.56269  -0.55222  -0.53619  -0.53366  -0.53045
 Alpha  occ. eigenvalues --   -0.52797  -0.50892  -0.48853  -0.48757  -0.48752
 Alpha  occ. eigenvalues --   -0.47579  -0.46721  -0.46634  -0.44763  -0.44727
 Alpha  occ. eigenvalues --   -0.37295  -0.36318
 Alpha virt. eigenvalues --    0.05107   0.11334   0.16592   0.18646   0.22349
 Alpha virt. eigenvalues --    0.23646   0.25023   0.25448   0.26408   0.27970
 Alpha virt. eigenvalues --    0.29092   0.29937   0.30797   0.31151   0.31391

 Mulliken charges:
               1
     1  C   -0.176879
     2  C   -0.222211
     3  C   -0.170650
     4  C    0.158269
     5  C   -0.170800
     6  C   -0.219251
     7  H    0.232152
     8  H    0.226638
     9  H    0.275574
    10  H    0.275388
    11  H    0.223152
    12  N    0.487996
    13  O   -0.460539
    14  O   -0.460467
    15  C   -0.299961
    16  C   -0.301100
    17  C   -0.480819
    18  H    0.153698
    19  H    0.141690
    20  H    0.157669
    21  H    0.153013
    22  H    0.144800
    23  H    0.160726
    24  H    0.165517
    25  C   -0.298930
    26  C   -0.299886
    27  C   -0.476244
    28  H    0.152767
    29  H    0.150068
    30  H    0.153824
    31  H    0.150010
    32  H    0.155629
    33  H    0.156818
    34  H    0.162341
 Sum of Mulliken charges =  -0.00000

 Dipole moment (field-independent basis, Debye):
    X=             -5.4733    Y=              0.4598    Z=             -0.4130  Tot=              5.5081
 Quadrupole moment (field-independent basis, Debye-Ang):
   XX=           -132.7428   YY=            -90.0078   ZZ=            -95.0394
   XY=              1.8881   XZ=             -2.1365   YZ=              1.5525

 Normal termination of Gaussian 16 at Wed May  5 23:49:00 2021.
