 Gaussian 16, Revision A.03,
 Gaussian 16:  EM64L-G16RevA.03 25-Dec-2016

 -------------
 #p 6-31g* mp2
 -------------

 ------------------------------------------------------
 Input file generated by CHIRIPA (05-May-2021 14:57:25)
 ------------------------------------------------------
 Symbolic Z-matrix:
 Charge =  0 Multiplicity = 1

                         Standard orientation:
 ---------------------------------------------------------------------
 Center     Atomic      Atomic             Coordinates (Angstroms)
 Number     Number       Type             X           Y           Z
 ---------------------------------------------------------------------
      1          6           0       -2.572496    2.569016    0.488000
      2          6           0       -3.736418    2.290254   -0.235947
      3          6           0       -4.061938    0.974278   -0.577696
      4          6           0       -3.197055   -0.043131   -0.177512
      5          6           0       -2.030162    0.202580    0.544484
      6          6           0       -1.724578    1.526128    0.875222
      7          1           0       -2.327367    3.594238    0.749202
      8          1           0       -4.396779    3.098172   -0.537999
      9          1           0       -4.956611    0.730210   -1.137525
     10          1           0       -1.391452   -0.623889    0.831566
     11          1           0       -0.819990    1.739656    1.437514
     12          7           0       -3.531116   -1.440304   -0.533478
     13          8           0       -2.752630   -2.318831   -0.169080
     14          8           0       -4.565113   -1.630424   -1.170142
     15          6           0        1.567978   -1.435490    1.645282
     16          6           0        1.716364   -0.050581    1.773855
     17          6           0        2.585648    0.651402    0.933548
     18          6           0        3.294168   -0.066454   -0.028725
     19          6           0        3.167978   -1.446316   -0.181524
     20          6           0        2.292980   -2.127717    0.669723
     21          1           0        0.890478   -1.972813    2.302300
     22          1           0        1.154595    0.489616    2.530589
     23          1           0        2.719627    1.723514    1.011293
     24          1           0        3.741443   -1.957356   -0.945326
     25          1           0        2.179744   -3.203259    0.567587
     26          7           0        4.217464    0.665809   -0.924111
     27          8           0        4.830301    0.010196   -1.763895
     28          8           0        4.310824    1.881505   -0.769174
 ---------------------------------------------------------------------

 SCF Done:  E(RHF) =  -868.337468686     A.U. after   16 cycles
 E2 =    -0.2601226698D+01 EUMP2 =    -0.87093869538425D+03

 The electronic state is 1-A.
 Alpha  occ. eigenvalues --  -20.61206 -20.61178 -20.61171 -20.61152 -15.86248
 Alpha  occ. eigenvalues --  -15.86223 -11.31704 -11.31566 -11.28378 -11.28215
 Alpha  occ. eigenvalues --  -11.28156 -11.28119 -11.28041 -11.27879 -11.27471
 Alpha  occ. eigenvalues --  -11.27205 -11.27194 -11.27110  -1.60266  -1.60236
 Alpha  occ. eigenvalues --   -1.39824  -1.39787  -1.19900  -1.19742  -1.09271
 Alpha  occ. eigenvalues --   -1.09145  -1.05342  -1.05134  -0.96083  -0.95981
 Alpha  occ. eigenvalues --   -0.86719  -0.86553  -0.82935  -0.82810  -0.78009
 Alpha  occ. eigenvalues --   -0.77827  -0.72473  -0.72438  -0.71585  -0.71559
 Alpha  occ. eigenvalues --   -0.71011  -0.70822  -0.65562  -0.65486  -0.65370
 Alpha  occ. eigenvalues --   -0.65081  -0.62779  -0.62389  -0.55791  -0.55657
 Alpha  occ. eigenvalues --   -0.53638  -0.53513  -0.53436  -0.53142  -0.49231
 Alpha  occ. eigenvalues --   -0.49218  -0.49204  -0.49186  -0.45239  -0.45167
 Alpha  occ. eigenvalues --   -0.37878  -0.37717  -0.36990  -0.36656
 Alpha virt. eigenvalues --    0.04548   0.04670   0.10611   0.10905   0.15844
 Alpha virt. eigenvalues --    0.16178   0.19085   0.22198   0.25105   0.26535
 Alpha virt. eigenvalues --    0.28206   0.29451   0.29581   0.31611   0.32452

 Mulliken charges:
               1
     1  C   -0.170003
     2  C   -0.218513
     3  C   -0.169632
     4  C    0.158261
     5  C   -0.171719
     6  C   -0.218826
     7  H    0.227203
     8  H    0.225312
     9  H    0.276798
    10  H    0.272585
    11  H    0.215751
    12  N    0.488402
    13  O   -0.464404
    14  O   -0.458145
    15  C   -0.175793
    16  C   -0.225681
    17  C   -0.170146
    18  C    0.159612
    19  C   -0.168860
    20  C   -0.215798
    21  H    0.231579
    22  H    0.217974
    23  H    0.273923
    24  H    0.279127
    25  H    0.231221
    26  N    0.488151
    27  O   -0.457323
    28  O   -0.461056
 Sum of Mulliken charges =  -0.00000

 Dipole moment (field-independent basis, Debye):
    X=             -1.9400    Y=              2.1842    Z=              4.2290  Tot=              5.1399
 Quadrupole moment (field-independent basis, Debye-Ang):
   XX=           -130.0094   YY=           -100.8909   ZZ=           -104.7645
   XY=            -27.6431   XZ=              7.8842   YZ=              0.1493

 Normal termination of Gaussian 16 at Thu May  6 01:54:45 2021.
