 Gaussian 16, Revision A.03,
 Gaussian 16:  EM64L-G16RevA.03 25-Dec-2016

 -------------
 #p 6-31g* mp2
 -------------

 ------------------------------------------------------
 Input file generated by CHIRIPA (05-May-2021 14:55:20)
 ------------------------------------------------------
 Symbolic Z-matrix:
 Charge =  0 Multiplicity = 1

                         Standard orientation:
 ---------------------------------------------------------------------
 Center     Atomic      Atomic             Coordinates (Angstroms)
 Number     Number       Type             X           Y           Z
 ---------------------------------------------------------------------
      1          6           0        1.411520    1.978780    0.285100
      2          6           0        1.013372    0.721464    0.751099
      3          6           0        1.864040   -0.381668    0.632726
      4          6           0        3.111453   -0.190705    0.040456
      5          6           0        3.536853    1.049326   -0.433516
      6          6           0        2.669771    2.138417   -0.304681
      7          1           0        0.744325    2.830266    0.381118
      8          1           0        0.036772    0.594537    1.209561
      9          1           0        1.581145   -1.366215    0.984942
     10          1           0        4.516432    1.144752   -0.885994
     11          1           0        2.981634    3.113693   -0.667478
     12          7           0        4.020705   -1.351109   -0.090398
     13          8           0        5.114565   -1.156613   -0.616022
     14          8           0        3.622301   -2.433158    0.335139
     15          6           0       -4.209796   -0.559478   -0.388700
     16          6           0       -4.033114   -1.907812    0.310417
     17          6           0       -4.877686   -3.015644   -0.319819
     18          1           0       -5.270565   -0.275051   -0.360147
     19          1           0       -3.943340   -0.666566   -1.449327
     20          1           0       -4.298499   -1.797881    1.369710
     21          1           0       -2.972613   -2.188971    0.280364
     22          1           0       -4.608161   -3.154330   -1.371828
     23          1           0       -5.941581   -2.761018   -0.276293
     24          1           0       -4.736091   -3.970801    0.195437
     25          6           0       -3.371893    0.558087    0.229924
     26          6           0       -3.548575    1.906420   -0.469193
     27          6           0       -2.704002    3.014253    0.161042
     28          1           0       -3.638348    0.665175    1.290551
     29          1           0       -2.311123    0.273659    0.201370
     30          1           0       -4.609076    2.187579   -0.439140
     31          1           0       -3.283190    1.796489   -1.528486
     32          1           0       -1.640108    2.759626    0.117517
     33          1           0       -2.973528    3.152939    1.213051
     34          1           0       -2.845598    3.969409   -0.354213
 ---------------------------------------------------------------------

 SCF Done:  E(RHF) =  -669.535331953     A.U. after   15 cycles
 E2 =    -0.2092040781D+01 EUMP2 =    -0.67162737273372D+03

 The electronic state is 1-A.
 Alpha  occ. eigenvalues --  -20.60757 -20.60752 -15.85810 -11.31178 -11.27748
 Alpha  occ. eigenvalues --  -11.27743 -11.27461 -11.26754 -11.26728 -11.22514
 Alpha  occ. eigenvalues --  -11.22301 -11.22252 -11.22147 -11.22018 -11.21453
 Alpha  occ. eigenvalues --   -1.59833  -1.39386  -1.19349  -1.09205  -1.08741
 Alpha  occ. eigenvalues --   -1.04751  -1.04283  -0.96758  -0.95578  -0.87775
 Alpha  occ. eigenvalues --   -0.86149  -0.82410  -0.80370  -0.79009  -0.77454
 Alpha  occ. eigenvalues --   -0.72028  -0.71156  -0.70479  -0.65860  -0.64999
 Alpha  occ. eigenvalues --   -0.64736  -0.62115  -0.61653  -0.60129  -0.58362
 Alpha  occ. eigenvalues --   -0.56155  -0.55192  -0.53425  -0.53176  -0.53077
 Alpha  occ. eigenvalues --   -0.52833  -0.50683  -0.48791  -0.48784  -0.48667
 Alpha  occ. eigenvalues --   -0.47385  -0.46540  -0.46431  -0.44791  -0.44534
 Alpha  occ. eigenvalues --   -0.37319  -0.36351
 Alpha virt. eigenvalues --    0.05061   0.11192   0.16494   0.19574   0.22558
 Alpha virt. eigenvalues --    0.23790   0.25054   0.25695   0.26396   0.28283
 Alpha virt. eigenvalues --    0.29083   0.29994   0.31005   0.31357   0.31655

 Mulliken charges:
               1
     1  C   -0.175484
     2  C   -0.223653
     3  C   -0.171944
     4  C    0.158496
     5  C   -0.170786
     6  C   -0.218701
     7  H    0.230682
     8  H    0.229564
     9  H    0.275590
    10  H    0.275565
    11  H    0.223678
    12  N    0.488076
    13  O   -0.460442
    14  O   -0.460479
    15  C   -0.298546
    16  C   -0.300244
    17  C   -0.476236
    18  H    0.151990
    19  H    0.152260
    20  H    0.152090
    21  H    0.150780
    22  H    0.156976
    23  H    0.155952
    24  H    0.162678
    25  C   -0.303490
    26  C   -0.299135
    27  C   -0.481626
    28  H    0.149983
    29  H    0.146096
    30  H    0.156314
    31  H    0.155515
    32  H    0.146162
    33  H    0.157719
    34  H    0.164599
 Sum of Mulliken charges =  -0.00000

 Dipole moment (field-independent basis, Debye):
    X=             -3.4094    Y=              4.0590    Z=              0.4008  Tot=              5.3160
 Quadrupole moment (field-independent basis, Debye-Ang):
   XX=           -111.4942   YY=            -95.5503   ZZ=            -94.1809
   XY=             15.1181   XZ=             -0.9094   YZ=             -1.6195

 Normal termination of Gaussian 16 at Thu May  6 01:21:09 2021.
