 Gaussian 16, Revision A.03,
 Gaussian 16:  EM64L-G16RevA.03 25-Dec-2016

 -------------
 #p 6-31g* mp2
 -------------

 ------------------------------------------------------
 Input file generated by CHIRIPA (05-May-2021 14:55:21)
 ------------------------------------------------------
 Symbolic Z-matrix:
 Charge =  0 Multiplicity = 1

                         Standard orientation:
 ---------------------------------------------------------------------
 Center     Atomic      Atomic             Coordinates (Angstroms)
 Number     Number       Type             X           Y           Z
 ---------------------------------------------------------------------
      1          6           0        5.190962    1.051267   -0.392276
      2          6           0        3.936810    1.530666   -0.784449
      3          6           0        2.792847    0.743957   -0.620172
      4          6           0        2.940197   -0.523044   -0.057780
      5          6           0        4.175919   -1.028778    0.342865
      6          6           0        5.306311   -0.224675    0.169139
      7          1           0        6.074349    1.669157   -0.523560
      8          1           0        3.844229    2.521186   -1.220733
      9          1           0        1.809728    1.090300   -0.915032
     10          1           0        4.236606   -2.020321    0.774811
     11          1           0        6.279024   -0.599581    0.474622
     12          7           0        1.736318   -1.365105    0.121134
     13          8           0        1.892814   -2.477837    0.619105
     14          8           0        0.659019   -0.896436   -0.239991
     15          6           0       -3.578077    0.855129    0.620073
     16          6           0       -2.312548    1.456398    0.007786
     17          6           0       -1.443927    2.179854    1.037300
     18          1           0       -4.161736    1.653855    1.097907
     19          1           0       -3.294068    0.155286    1.418166
     20          1           0       -2.598817    2.153857   -0.789846
     21          1           0       -1.731930    0.656177   -0.468813
     22          1           0       -1.129810    1.491220    1.828322
     23          1           0       -2.001624    2.997409    1.505466
     24          1           0       -0.544586    2.601981    0.578111
     25          6           0       -4.456765    0.128583   -0.396670
     26          6           0       -5.722296   -0.472685    0.215617
     27          6           0       -6.590917   -1.196141   -0.813898
     28          1           0       -4.740777    0.828427   -1.194763
     29          1           0       -3.873108   -0.670142   -0.874505
     30          1           0       -6.302914    0.327535    0.692216
     31          1           0       -5.436027   -1.170144    1.013249
     32          1           0       -6.033220   -2.013696   -1.282062
     33          1           0       -6.905033   -0.507508   -1.604920
     34          1           0       -7.490258   -1.618268   -0.354707
 ---------------------------------------------------------------------

 SCF Done:  E(RHF) =  -669.536211002     A.U. after   15 cycles
 E2 =    -0.2091225371D+01 EUMP2 =    -0.67162743637257D+03

 The electronic state is 1-A.
 Alpha  occ. eigenvalues --  -20.60931 -20.60923 -15.85973 -11.31273 -11.27837
 Alpha  occ. eigenvalues --  -11.27831 -11.27574 -11.26843 -11.26832 -11.20920
 Alpha  occ. eigenvalues --  -11.20614 -11.20581 -11.20501 -11.20477 -11.20437
 Alpha  occ. eigenvalues --   -1.59994  -1.39551  -1.19441  -1.08850  -1.07616
 Alpha  occ. eigenvalues --   -1.04836  -1.02774  -0.95697  -0.95262  -0.86289
 Alpha  occ. eigenvalues --   -0.86234  -0.82533  -0.78840  -0.77601  -0.77406
 Alpha  occ. eigenvalues --   -0.72206  -0.71308  -0.70552  -0.65104  -0.64841
 Alpha  occ. eigenvalues --   -0.64215  -0.62187  -0.60136  -0.58648  -0.56882
 Alpha  occ. eigenvalues --   -0.55343  -0.54535  -0.53168  -0.52931  -0.52000
 Alpha  occ. eigenvalues --   -0.51696  -0.49193  -0.48953  -0.48943  -0.47170
 Alpha  occ. eigenvalues --   -0.45824  -0.45010  -0.44948  -0.44823  -0.43039
 Alpha  occ. eigenvalues --   -0.37420  -0.36436
 Alpha virt. eigenvalues --    0.04937   0.11206   0.16436   0.20871   0.23541
 Alpha virt. eigenvalues --    0.24331   0.26831   0.27434   0.27774   0.28479
 Alpha virt. eigenvalues --    0.29160   0.30760   0.31561   0.32121   0.32554

 Mulliken charges:
               1
     1  C   -0.170503
     2  C   -0.218765
     3  C   -0.171433
     4  C    0.157491
     5  C   -0.170741
     6  C   -0.218605
     7  H    0.225954
     8  H    0.223921
     9  H    0.277743
    10  H    0.275694
    11  H    0.223726
    12  N    0.495137
    13  O   -0.459374
    14  O   -0.467703
    15  C   -0.297565
    16  C   -0.309216
    17  C   -0.471406
    18  H    0.144486
    19  H    0.153488
    20  H    0.143848
    21  H    0.177684
    22  H    0.159930
    23  H    0.150402
    24  H    0.147612
    25  C   -0.299211
    26  C   -0.299323
    27  C   -0.475497
    28  H    0.145844
    29  H    0.155890
    30  H    0.149324
    31  H    0.153222
    32  H    0.156469
    33  H    0.153235
    34  H    0.158242
 Sum of Mulliken charges =  -0.00000

 Dipole moment (field-independent basis, Debye):
    X=              4.4430    Y=              2.7726    Z=             -0.6425  Tot=              5.2764
 Quadrupole moment (field-independent basis, Debye-Ang):
   XX=            -69.5970   YY=            -95.6714   ZZ=            -95.0972
   XY=              3.8888   XZ=             -1.2171   YZ=             -2.1659

 Normal termination of Gaussian 16 at Wed May  5 15:55:05 2021.
