 Gaussian 16, Revision A.03,
 Gaussian 16:  EM64L-G16RevA.03 25-Dec-2016

 -------------
 #p 6-31g* mp2
 -------------

 ------------------------------------------------------
 Input file generated by CHIRIPA (05-May-2021 14:53:13)
 ------------------------------------------------------
 Symbolic Z-matrix:
 Charge =  0 Multiplicity = 1

                         Standard orientation:
 ---------------------------------------------------------------------
 Center     Atomic      Atomic             Coordinates (Angstroms)
 Number     Number       Type             X           Y           Z
 ---------------------------------------------------------------------
      1          6           0       -3.956199    0.878419   -0.037487
      2          6           0       -2.649076    1.488620   -0.544507
      3          6           0       -2.508517    2.967959   -0.184516
      4          1           0       -4.802356    1.440926   -0.455278
      5          1           0       -4.009603    0.997931    1.053503
      6          1           0       -2.597515    1.366759   -1.634052
      7          1           0       -1.805937    0.924475   -0.125613
      8          1           0       -2.534095    3.104283    0.901468
      9          1           0       -3.330172    3.549080   -0.615541
     10          1           0       -1.567056    3.383985   -0.556582
     11          6           0       -4.111279   -0.599994   -0.389587
     12          6           0       -5.418402   -1.210195    0.117433
     13          6           0       -5.558961   -2.689534   -0.242558
     14          1           0       -4.057875   -0.719506   -1.480577
     15          1           0       -3.265123   -1.162501    0.028204
     16          1           0       -6.261542   -0.646050   -0.301461
     17          1           0       -5.469963   -1.088335    1.206978
     18          1           0       -4.737307   -3.270656    0.188467
     19          1           0       -5.533383   -2.825858   -1.328543
     20          1           0       -6.500422   -3.105560    0.129508
     21          6           0        5.102302   -0.817840   -1.267380
     22          6           0        4.084446   -0.027480   -1.811274
     23          6           0        2.998734    0.371293   -1.025934
     24          6           0        2.962749   -0.040208    0.305480
     25          6           0        3.961358   -0.827738    0.876327
     26          6           0        5.037624   -1.214747    0.072322
     27          1           0        5.942041   -1.123048   -1.884701
     28          1           0        4.132044    0.282247   -2.851392
     29          1           0        2.197061    0.983097   -1.421451
     30          1           0        3.886178   -1.120846    1.916448
     31          1           0        5.826671   -1.828558    0.497395
     32          7           0        1.818354    0.375728    1.146764
     33          8           0        1.810064   -0.000014    2.316971
     34          8           0        0.951338    1.069604    0.620024
 ---------------------------------------------------------------------

 SCF Done:  E(RHF) =  -669.536184419     A.U. after   15 cycles
 E2 =    -0.2090919112D+01 EUMP2 =    -0.67162710353100D+03

 The electronic state is 1-A.
 Alpha  occ. eigenvalues --  -20.60968 -20.60963 -15.85999 -11.31305 -11.27867
 Alpha  occ. eigenvalues --  -11.27863 -11.27603 -11.26872 -11.26862 -11.20953
 Alpha  occ. eigenvalues --  -11.20585 -11.20556 -11.20376 -11.20242 -11.19836
 Alpha  occ. eigenvalues --   -1.60029  -1.39585  -1.19473  -1.08880  -1.07512
 Alpha  occ. eigenvalues --   -1.04867  -1.02583  -0.95725  -0.95068  -0.86268
 Alpha  occ. eigenvalues --   -0.86094  -0.82559  -0.78684  -0.77619  -0.77285
 Alpha  occ. eigenvalues --   -0.72224  -0.71342  -0.70581  -0.65130  -0.64870
 Alpha  occ. eigenvalues --   -0.64135  -0.62214  -0.59963  -0.58464  -0.56658
 Alpha  occ. eigenvalues --   -0.55372  -0.54361  -0.53199  -0.52958  -0.51771
 Alpha  occ. eigenvalues --   -0.51499  -0.49039  -0.48983  -0.48968  -0.47003
 Alpha  occ. eigenvalues --   -0.45734  -0.45107  -0.44834  -0.44559  -0.42853
 Alpha  occ. eigenvalues --   -0.37451  -0.36467
 Alpha virt. eigenvalues --    0.04890   0.11188   0.16371   0.21296   0.23752
 Alpha virt. eigenvalues --    0.25195   0.27230   0.27548   0.28001   0.28598
 Alpha virt. eigenvalues --    0.28884   0.30867   0.32175   0.32340   0.32753

 Mulliken charges:
               1
     1  C   -0.297715
     2  C   -0.307921
     3  C   -0.471571
     4  H    0.144777
     5  H    0.150975
     6  H    0.141877
     7  H    0.176316
     8  H    0.158041
     9  H    0.146579
    10  H    0.160449
    11  C   -0.297840
    12  C   -0.298991
    13  C   -0.475218
    14  H    0.145743
    15  H    0.151581
    16  H    0.150151
    17  H    0.152508
    18  H    0.154929
    19  H    0.153167
    20  H    0.158310
    21  C   -0.170545
    22  C   -0.218548
    23  C   -0.170641
    24  C    0.157743
    25  C   -0.170663
    26  C   -0.218589
    27  H    0.226054
    28  H    0.223947
    29  H    0.276024
    30  H    0.275807
    31  H    0.223838
    32  N    0.490923
    33  O   -0.459138
    34  O   -0.462360
 Sum of Mulliken charges =  -0.00000

 Dipole moment (field-independent basis, Debye):
    X=              4.3602    Y=             -1.4851    Z=             -2.8449  Tot=              5.4139
 Quadrupole moment (field-independent basis, Debye-Ang):
   XX=            -71.5865   YY=            -95.6075   ZZ=            -93.1505
   XY=             -6.1023   XZ=             -6.0576   YZ=             -2.8185

 Normal termination of Gaussian 16 at Thu May  6 12:05:29 2021.
