 Gaussian 16, Revision A.03,
 Gaussian 16:  EM64L-G16RevA.03 25-Dec-2016

 -------------
 #p 6-31g* mp2
 -------------

 ------------------------------------------------------
 Input file generated by CHIRIPA (05-May-2021 14:55:20)
 ------------------------------------------------------
 Symbolic Z-matrix:
 Charge =  0 Multiplicity = 1

                         Standard orientation:
 ---------------------------------------------------------------------
 Center     Atomic      Atomic             Coordinates (Angstroms)
 Number     Number       Type             X           Y           Z
 ---------------------------------------------------------------------
      1          6           0       -6.249558   -1.149145   -0.429367
      2          6           0       -5.092014   -1.854236   -0.083738
      3          6           0       -3.884863   -1.179862    0.122543
      4          6           0       -3.871198    0.206169   -0.025861
      5          6           0       -5.007604    0.936828   -0.369383
      6          6           0       -6.203739    0.241685   -0.570837
      7          1           0       -7.183024   -1.681082   -0.587736
      8          1           0       -5.124640   -2.934402    0.026819
      9          1           0       -2.973834   -1.700872    0.390856
     10          1           0       -4.943909    2.013287   -0.472328
     11          1           0       -7.101142    0.791873   -0.839180
     12          7           0       -2.599072    0.931092    0.189964
     13          8           0       -2.613351    2.152443    0.053087
     14          8           0       -1.611788    0.264210    0.491919
     15          6           0        5.761262    0.021212   -0.447460
     16          6           0        7.164599   -0.383783    0.004875
     17          6           0        8.229512   -0.113215   -1.058396
     18          1           0        5.508569   -0.522296   -1.368162
     19          1           0        5.760582    1.089444   -0.704905
     20          1           0        7.162296   -1.450616    0.262709
     21          1           0        7.413905    0.160609    0.924712
     22          1           0        8.261012    0.951873   -1.309787
     23          1           0        8.007974   -0.668506   -1.975551
     24          1           0        9.225096   -0.410130   -0.714138
     25          6           0        4.685740   -0.243145    0.604726
     26          6           0        3.282402    0.161851    0.152391
     27          6           0        2.217488   -0.108718    1.215662
     28          1           0        4.686418   -1.311376    0.862170
     29          1           0        4.938432    0.300363    1.525427
     30          1           0        3.033096   -0.382541   -0.767446
     31          1           0        3.284705    1.228684   -0.105444
     32          1           0        2.439027    0.446574    2.132817
     33          1           0        2.185988   -1.173806    1.467052
     34          1           0        1.221904    0.188198    0.871403
 ---------------------------------------------------------------------

 SCF Done:  E(RHF) =  -669.536261729     A.U. after   15 cycles
 E2 =    -0.2090626878D+01 EUMP2 =    -0.67162688860740D+03

 The electronic state is 1-A.
 Alpha  occ. eigenvalues --  -20.60961 -20.60947 -15.85991 -11.31298 -11.27859
 Alpha  occ. eigenvalues --  -11.27855 -11.27596 -11.26865 -11.26855 -11.21053
 Alpha  occ. eigenvalues --  -11.20696 -11.20616 -11.20523 -11.20445 -11.19496
 Alpha  occ. eigenvalues --   -1.60017  -1.39573  -1.19465  -1.08872  -1.07625
 Alpha  occ. eigenvalues --   -1.04859  -1.02637  -0.95717  -0.95065  -0.86261
 Alpha  occ. eigenvalues --   -0.86082  -0.82550  -0.78736  -0.77603  -0.77411
 Alpha  occ. eigenvalues --   -0.72216  -0.71329  -0.70574  -0.65121  -0.64863
 Alpha  occ. eigenvalues --   -0.64270  -0.62206  -0.60053  -0.58467  -0.56645
 Alpha  occ. eigenvalues --   -0.55365  -0.54383  -0.53192  -0.52952  -0.51700
 Alpha  occ. eigenvalues --   -0.51499  -0.49053  -0.48963  -0.48946  -0.47017
 Alpha  occ. eigenvalues --   -0.45807  -0.44991  -0.44946  -0.44878  -0.42847
 Alpha  occ. eigenvalues --   -0.37444  -0.36460
 Alpha virt. eigenvalues --    0.04929   0.11195   0.16431   0.21326   0.23608
 Alpha virt. eigenvalues --    0.25271   0.27250   0.27398   0.28159   0.28260
 Alpha virt. eigenvalues --    0.29008   0.30891   0.32227   0.32378   0.32521

 Mulliken charges:
               1
     1  C   -0.170555
     2  C   -0.218568
     3  C   -0.170829
     4  C    0.157428
     5  C   -0.170369
     6  C   -0.218637
     7  H    0.226002
     8  H    0.223876
     9  H    0.276101
    10  H    0.275884
    11  H    0.223815
    12  N    0.493022
    13  O   -0.458952
    14  O   -0.464079
    15  C   -0.297485
    16  C   -0.298937
    17  C   -0.475238
    18  H    0.148099
    19  H    0.149192
    20  H    0.150553
    21  H    0.151308
    22  H    0.154868
    23  H    0.154233
    24  H    0.158457
    25  C   -0.297128
    26  C   -0.298643
    27  C   -0.487867
    28  H    0.146624
    29  H    0.148219
    30  H    0.148856
    31  H    0.152082
    32  H    0.150016
    33  H    0.146441
    34  H    0.192213
 Sum of Mulliken charges =  -0.00000

 Dipole moment (field-independent basis, Debye):
    X=             -4.8669    Y=             -2.4909    Z=             -0.7806  Tot=              5.5227
 Quadrupole moment (field-independent basis, Debye-Ang):
   XX=            -61.4899   YY=            -91.3580   ZZ=            -95.8839
   XY=              7.0809   XZ=              4.2777   YZ=             -0.5890

 Normal termination of Gaussian 16 at Thu May  6 09:17:22 2021.
