 Gaussian 16, Revision A.03,
 Gaussian 16:  EM64L-G16RevA.03 25-Dec-2016

 -------------
 #p 6-31g* mp2
 -------------

 ------------------------------------------------------
 Input file generated by CHIRIPA (05-May-2021 14:57:24)
 ------------------------------------------------------
 Symbolic Z-matrix:
 Charge =  0 Multiplicity = 1

                         Standard orientation:
 ---------------------------------------------------------------------
 Center     Atomic      Atomic             Coordinates (Angstroms)
 Number     Number       Type             X           Y           Z
 ---------------------------------------------------------------------
      1          6           0       -4.948936    0.443204   -1.246594
      2          6           0       -4.447000   -0.859269   -1.336843
      3          6           0       -3.411767   -1.280995   -0.497209
      4          6           0       -2.899620   -0.369990    0.425323
      5          6           0       -3.378433    0.934240    0.539389
      6          6           0       -4.413994    1.334231   -0.310416
      7          1           0       -5.753258    0.762369   -1.902792
      8          1           0       -4.860518   -1.553403   -2.062947
      9          1           0       -3.004409   -2.283552   -0.545769
     10          1           0       -2.945918    1.603526    1.273151
     11          1           0       -4.801836    2.346354   -0.238094
     12          7           0       -1.803491   -0.804948    1.319590
     13          8           0       -1.369427    0.016782    2.123945
     14          8           0       -1.399164   -1.959361    1.199228
     15          6           0        1.356448    2.140011   -0.228369
     16          6           0        2.664225    2.393627    0.198150
     17          6           0        3.627592    1.380741    0.175048
     18          6           0        3.246929    0.120254   -0.282729
     19          6           0        1.952111   -0.163566   -0.714220
     20          6           0        1.005183    0.864473   -0.682392
     21          1           0        0.614466    2.932731   -0.207034
     22          1           0        2.939859    3.383268    0.551251
     23          1           0        4.647224    1.549607    0.499474
     24          1           0        1.707255   -1.160190   -1.060924
     25          1           0       -0.009699    0.664632   -1.014237
     26          7           0        4.258100   -0.960064   -0.311804
     27          8           0        3.897483   -2.062026   -0.719568
     28          8           0        5.392127   -0.684399    0.073719
 ---------------------------------------------------------------------

 SCF Done:  E(RHF) =  -868.337424344     A.U. after   16 cycles
 E2 =    -0.2600715435D+01 EUMP2 =    -0.87093813977846D+03

 The electronic state is 1-A.
 Alpha  occ. eigenvalues --  -20.61465 -20.61454 -20.60120 -20.60105 -15.86506
 Alpha  occ. eigenvalues --  -15.85170 -11.31999 -11.30496 -11.28574 -11.28518
 Alpha  occ. eigenvalues --  -11.28247 -11.27563 -11.27516 -11.27115 -11.27074
 Alpha  occ. eigenvalues --  -11.26910 -11.26153 -11.26132  -1.60537  -1.59189
 Alpha  occ. eigenvalues --   -1.40085  -1.38744  -1.20159  -1.18688  -1.09520
 Alpha  occ. eigenvalues --   -1.08105  -1.05553  -1.04108  -0.96335  -0.94941
 Alpha  occ. eigenvalues --   -0.86940  -0.85525  -0.83150  -0.81790  -0.78200
 Alpha  occ. eigenvalues --   -0.76829  -0.72707  -0.71900  -0.71397  -0.71214
 Alpha  occ. eigenvalues --   -0.70503  -0.69845  -0.65783  -0.65523  -0.64369
 Alpha  occ. eigenvalues --   -0.64161  -0.62884  -0.61473  -0.56008  -0.54667
 Alpha  occ. eigenvalues --   -0.53906  -0.53620  -0.52398  -0.52233  -0.49480
 Alpha  occ. eigenvalues --   -0.49469  -0.48156  -0.48144  -0.45455  -0.44159
 Alpha  occ. eigenvalues --   -0.38133  -0.37172  -0.36658  -0.35674
 Alpha virt. eigenvalues --    0.04308   0.05738   0.10464   0.11959   0.15793
 Alpha virt. eigenvalues --    0.17206   0.20705   0.21767   0.26598   0.27358
 Alpha virt. eigenvalues --    0.27600   0.28801   0.30417   0.31110   0.31951

 Mulliken charges:
               1
     1  C   -0.170815
     2  C   -0.218121
     3  C   -0.173814
     4  C    0.153226
     5  C   -0.176313
     6  C   -0.218480
     7  H    0.228402
     8  H    0.226916
     9  H    0.278658
    10  H    0.274994
    11  H    0.224903
    12  N    0.487669
    13  O   -0.457545
    14  O   -0.457207
    15  C   -0.165255
    16  C   -0.218231
    17  C   -0.170029
    18  C    0.158626
    19  C   -0.164214
    20  C   -0.216647
    21  H    0.219730
    22  H    0.220656
    23  H    0.274022
    24  H    0.277336
    25  H    0.215714
    26  N    0.488404
    27  O   -0.459860
    28  O   -0.462726
 Sum of Mulliken charges =  -0.00000

 Dipole moment (field-independent basis, Debye):
    X=             -7.6165    Y=              5.2007    Z=             -2.9884  Tot=              9.6948
 Quadrupole moment (field-independent basis, Debye-Ang):
   XX=           -103.7827   YY=            -99.4584   ZZ=           -107.3031
   XY=             11.4607   XZ=             10.8058   YZ=              4.4101

 Normal termination of Gaussian 16 at Wed May  5 19:27:39 2021.
