 Gaussian 16, Revision A.03,
 Gaussian 16:  EM64L-G16RevA.03 25-Dec-2016

 -------------
 #p 6-31g* mp2
 -------------

 ------------------------------------------------------
 Input file generated by CHIRIPA (05-May-2021 14:51:13)
 ------------------------------------------------------
 Symbolic Z-matrix:
 Charge =  0 Multiplicity = 1

                         Standard orientation:
 ---------------------------------------------------------------------
 Center     Atomic      Atomic             Coordinates (Angstroms)
 Number     Number       Type             X           Y           Z
 ---------------------------------------------------------------------
      1          6           0        2.789444   -0.908015    0.237905
      2          6           0        1.960823   -0.612469    1.488514
      3          6           0        0.666291   -1.424104    1.545364
      4          1           0        2.183466   -0.697385   -0.653931
      5          1           0        3.026451   -1.980565    0.208593
      6          1           0        1.726623    0.459445    1.516177
      7          1           0        2.568909   -0.823645    2.377475
      8          1           0        0.883880   -2.497066    1.542600
      9          1           0        0.036809   -1.206685    0.676409
     10          1           0        0.089488   -1.197232    2.447410
     11          6           0        4.086611   -0.104261    0.166738
     12          6           0        4.915233   -0.399806   -1.083871
     13          6           0        6.209765    0.411828   -1.140721
     14          1           0        3.849605    0.968290    0.196050
     15          1           0        4.692590   -0.314891    1.058574
     16          1           0        4.307147   -0.188630   -1.972832
     17          1           0        5.149432   -1.471721   -1.111534
     18          1           0        6.839246    0.194410   -0.271766
     19          1           0        5.992175    1.484791   -1.137958
     20          1           0        6.786568    0.184956   -2.042767
     21          6           0       -3.702632   -0.093161   -0.595079
     22          6           0       -5.095454   -0.541758   -0.151464
     23          6           0       -5.611184   -1.741647   -0.946500
     24          1           0       -3.728346    0.157388   -1.664429
     25          1           0       -3.002862   -0.933506   -0.487676
     26          1           0       -5.792103    0.299591   -0.258365
     27          1           0       -5.066466   -0.791084    0.916998
     28          1           0       -4.938966   -2.598020   -0.830972
     29          1           0       -5.668725   -1.501149   -2.013014
     30          1           0       -6.608294   -2.045629   -0.612993
     31          6           0       -3.173423    1.105436    0.190436
     32          6           0       -1.780602    1.554033   -0.253179
     33          6           0       -1.264871    2.753922    0.541858
     34          1           0       -3.873194    1.945781    0.083034
     35          1           0       -3.147710    0.854889    1.259786
     36          1           0       -1.809589    1.803359   -1.321641
     37          1           0       -1.083953    0.712684   -0.146278
     38          1           0       -1.207331    2.513424    1.608371
     39          1           0       -1.937090    3.610296    0.426329
     40          1           0       -0.267762    3.057905    0.208349
 ---------------------------------------------------------------------

 SCF Done:  E(RHF) =  -470.733301439     A.U. after   11 cycles
 E2 =    -0.1583001061D+01 EUMP2 =    -0.47231630249968D+03

 The electronic state is 1-A.
 Alpha  occ. eigenvalues --  -11.21634 -11.21610 -11.21593 -11.21591 -11.21424
 Alpha  occ. eigenvalues --  -11.21400 -11.21363 -11.21341 -11.21129 -11.21098
 Alpha  occ. eigenvalues --  -11.21077 -11.21057  -1.08459  -1.08420  -1.03578
 Alpha  occ. eigenvalues --   -1.03510  -0.96015  -0.95975  -0.87040  -0.86984
 Alpha  occ. eigenvalues --   -0.79651  -0.79564  -0.78277  -0.78228  -0.65200
 Alpha  occ. eigenvalues --   -0.64962  -0.61165  -0.60732  -0.59376  -0.59344
 Alpha  occ. eigenvalues --   -0.57619  -0.57590  -0.55352  -0.55215  -0.52706
 Alpha  occ. eigenvalues --   -0.52677  -0.52442  -0.52400  -0.50072  -0.49834
 Alpha  occ. eigenvalues --   -0.48000  -0.47864  -0.46797  -0.46492  -0.45878
 Alpha  occ. eigenvalues --   -0.45761  -0.45743  -0.45531  -0.43810  -0.43783
 Alpha virt. eigenvalues --    0.20112   0.23059   0.23767   0.24825   0.25764
 Alpha virt. eigenvalues --    0.26552   0.26869   0.27748   0.28385   0.28965
 Alpha virt. eigenvalues --    0.30879   0.31384   0.31819   0.31961   0.32228

 Mulliken charges:
               1
     1  C   -0.298571
     2  C   -0.301194
     3  C   -0.480297
     4  H    0.149775
     5  H    0.149591
     6  H    0.153784
     7  H    0.152287
     8  H    0.155706
     9  H    0.158739
    10  H    0.159928
    11  C   -0.298310
    12  C   -0.299712
    13  C   -0.475723
    14  H    0.149610
    15  H    0.149696
    16  H    0.152067
    17  H    0.151934
    18  H    0.155189
    19  H    0.155219
    20  H    0.160298
    21  C   -0.299345
    22  C   -0.299630
    23  C   -0.475777
    24  H    0.149499
    25  H    0.150144
    26  H    0.151884
    27  H    0.152174
    28  H    0.155431
    29  H    0.155062
    30  H    0.160222
    31  C   -0.297701
    32  C   -0.306937
    33  C   -0.475488
    34  H    0.149490
    35  H    0.150017
    36  H    0.151588
    37  H    0.159015
    38  H    0.155569
    39  H    0.155352
    40  H    0.159413
 Sum of Mulliken charges =  -0.00000

 Dipole moment (field-independent basis, Debye):
    X=              0.0086    Y=             -0.0074    Z=              0.0081  Tot=              0.0140
 Quadrupole moment (field-independent basis, Debye-Ang):
   XX=            -85.5433   YY=            -84.8617   ZZ=            -84.3397
   XY=             -1.5751   XZ=              0.4574   YZ=             -1.1347

 Normal termination of Gaussian 16 at Thu May  6 02:23:07 2021.
