 Gaussian 16, Revision A.03,
 Gaussian 16:  EM64L-G16RevA.03 25-Dec-2016

 -------------
 #p 6-31g* mp2
 -------------

 ------------------------------------------------------
 Input file generated by CHIRIPA (05-May-2021 14:53:17)
 ------------------------------------------------------
 Symbolic Z-matrix:
 Charge =  0 Multiplicity = 1

                         Standard orientation:
 ---------------------------------------------------------------------
 Center     Atomic      Atomic             Coordinates (Angstroms)
 Number     Number       Type             X           Y           Z
 ---------------------------------------------------------------------
      1          6           0       -3.599184   -0.399654    0.157334
      2          6           0       -3.239526   -1.478058   -0.865249
      3          6           0       -4.007184   -2.781774   -0.644299
      4          1           0       -3.396344   -0.779490    1.168039
      5          1           0       -4.679171   -0.203172    0.108165
      6          1           0       -2.160314   -1.671459   -0.815128
      7          1           0       -3.443066   -1.095540   -1.873648
      8          1           0       -5.086158   -2.610218   -0.714908
      9          1           0       -3.796117   -3.189409    0.349626
     10          1           0       -3.734751   -3.538778   -1.386313
     11          6           0       -2.839917    0.909569   -0.050453
     12          6           0       -3.199574    1.987973    0.972130
     13          6           0       -2.431916    3.291690    0.751179
     14          1           0       -1.759929    0.713087   -0.001284
     15          1           0       -3.042756    1.289406   -1.061158
     16          1           0       -2.996035    1.605456    1.980529
     17          1           0       -4.278787    2.181374    0.922008
     18          1           0       -2.642984    3.699324   -0.242745
     19          1           0       -1.352943    3.120133    0.821789
     20          1           0       -2.704350    4.048694    1.493194
     21          6           0        2.895519    2.158789   -0.854949
     22          6           0        1.616627    1.595413   -0.914668
     23          6           0        1.394312    0.289794   -0.466914
     24          6           0        2.478513   -0.427146    0.036867
     25          6           0        3.764360    0.106359    0.109404
     26          6           0        3.963420    1.413777   -0.344005
     27          1           0        3.059186    3.173724   -1.204972
     28          1           0        0.785411    2.171656   -1.310986
     29          1           0        0.414522   -0.170882   -0.501640
     30          1           0        4.573249   -0.492759    0.509624
     31          1           0        4.957702    1.848730   -0.296422
     32          7           0        2.255467   -1.810298    0.513878
     33          8           0        3.227290   -2.421080    0.953359
     34          8           0        1.113044   -2.257442    0.439244
 ---------------------------------------------------------------------

 SCF Done:  E(RHF) =  -669.535890405     A.U. after   15 cycles
 E2 =    -0.2092235032D+01 EUMP2 =    -0.67162812543670D+03

 The electronic state is 1-A.
 Alpha  occ. eigenvalues --  -20.60820 -20.60815 -15.85868 -11.31201 -11.27775
 Alpha  occ. eigenvalues --  -11.27749 -11.27507 -11.26785 -11.26759 -11.21975
 Alpha  occ. eigenvalues --  -11.21839 -11.21604 -11.21484 -11.21418 -11.20783
 Alpha  occ. eigenvalues --   -1.59890  -1.39445  -1.19375  -1.08774  -1.08639
 Alpha  occ. eigenvalues --   -1.04773  -1.03658  -0.96140  -0.95614  -0.87152
 Alpha  occ. eigenvalues --   -0.86171  -0.82448  -0.79767  -0.78464  -0.77482
 Alpha  occ. eigenvalues --   -0.72088  -0.71211  -0.70492  -0.65297  -0.65023
 Alpha  occ. eigenvalues --   -0.64755  -0.62120  -0.61032  -0.59530  -0.57741
 Alpha  occ. eigenvalues --   -0.55455  -0.55261  -0.53104  -0.52902  -0.52787
 Alpha  occ. eigenvalues --   -0.52541  -0.50072  -0.48846  -0.48840  -0.48071
 Alpha  occ. eigenvalues --   -0.46800  -0.45969  -0.45844  -0.44856  -0.43939
 Alpha  occ. eigenvalues --   -0.37354  -0.36367
 Alpha virt. eigenvalues --    0.05007   0.11242   0.16437   0.19611   0.23016
 Alpha virt. eigenvalues --    0.23411   0.24703   0.26788   0.27025   0.28387
 Alpha virt. eigenvalues --    0.29717   0.30874   0.31507   0.31634   0.32348

 Mulliken charges:
               1
     1  C   -0.298035
     2  C   -0.306192
     3  C   -0.475447
     4  H    0.155089
     5  H    0.149909
     6  H    0.162168
     7  H    0.148227
     8  H    0.152653
     9  H    0.160091
    10  H    0.162426
    11  C   -0.303411
    12  C   -0.298925
    13  C   -0.478322
    14  H    0.143136
    15  H    0.147765
    16  H    0.156154
    17  H    0.154497
    18  H    0.152828
    19  H    0.151777
    20  H    0.163274
    21  C   -0.170580
    22  C   -0.222936
    23  C   -0.180335
    24  C    0.159640
    25  C   -0.170234
    26  C   -0.218801
    27  H    0.225988
    28  H    0.226757
    29  H    0.285844
    30  H    0.275588
    31  H    0.223573
    32  N    0.487969
    33  O   -0.459874
    34  O   -0.462260
 Sum of Mulliken charges =  -0.00000

 Dipole moment (field-independent basis, Debye):
    X=              0.7246    Y=              4.7722    Z=             -1.6040  Tot=              5.0864
 Quadrupole moment (field-independent basis, Debye-Ang):
   XX=            -85.4377   YY=           -100.2589   ZZ=            -95.0067
   XY=             11.0026   XZ=             -2.7279   YZ=              0.6068

 Normal termination of Gaussian 16 at Thu May  6 13:55:32 2021.
