 Gaussian 16, Revision A.03,
 Gaussian 16:  EM64L-G16RevA.03 25-Dec-2016

 -------------
 #p 6-31g* mp2
 -------------

 ------------------------------------------------------
 Input file generated by CHIRIPA (05-May-2021 14:57:21)
 ------------------------------------------------------
 Symbolic Z-matrix:
 Charge =  0 Multiplicity = 1

                         Standard orientation:
 ---------------------------------------------------------------------
 Center     Atomic      Atomic             Coordinates (Angstroms)
 Number     Number       Type             X           Y           Z
 ---------------------------------------------------------------------
      1          6           0        4.367571   -1.914570    0.375660
      2          6           0        5.168685   -0.772525    0.273341
      3          6           0        4.594326    0.477782    0.025570
      4          6           0        3.209307    0.549938   -0.115170
      5          6           0        2.384375   -0.569635   -0.018567
      6          6           0        2.980418   -1.809665    0.229637
      7          1           0        4.822169   -2.881848    0.568302
      8          1           0        6.246240   -0.851002    0.386305
      9          1           0        5.190907    1.378041   -0.058353
     10          1           0        1.313102   -0.459864   -0.135800
     11          1           0        2.355787   -2.694903    0.308605
     12          7           0        2.589781    1.868143   -0.377703
     13          8           0        1.367140    1.905083   -0.497791
     14          8           0        3.338568    2.839451   -0.458418
     15          6           0       -4.835188    1.652313    0.394126
     16          6           0       -3.823576    1.388281    1.323346
     17          6           0       -2.973440    0.291265    1.154900
     18          6           0       -3.164100   -0.524584    0.040750
     19          6           0       -4.162826   -0.287781   -0.902522
     20          6           0       -5.001290    0.814916   -0.713888
     21          1           0       -5.491062    2.506708    0.532821
     22          1           0       -3.692250    2.036906    2.184789
     23          1           0       -2.182194    0.063690    1.858857
     24          1           0       -4.269209   -0.952363   -1.751304
     25          1           0       -5.786074    1.017539   -1.437149
     26          7           0       -2.270276   -1.688952   -0.148262
     27          8           0       -2.458955   -2.392519   -1.138227
     28          8           0       -1.397942   -1.875970    0.697134
 ---------------------------------------------------------------------

 SCF Done:  E(RHF) =  -868.340823013     A.U. after   16 cycles
 E2 =    -0.2598185386D+01 EUMP2 =    -0.87093900839889D+03

 The electronic state is 1-A.
 Alpha  occ. eigenvalues --  -20.61166 -20.61113 -20.60346 -20.60336 -15.86152
 Alpha  occ. eigenvalues --  -15.85385 -11.31120 -11.30495 -11.27667 -11.27645
 Alpha  occ. eigenvalues --  -11.27344 -11.27106 -11.26897 -11.26763 -11.26607
 Alpha  occ. eigenvalues --  -11.26570 -11.26095 -11.25865  -1.60199  -1.59423
 Alpha  occ. eigenvalues --   -1.39764  -1.38982  -1.19262  -1.18651  -1.08738
 Alpha  occ. eigenvalues --   -1.08106  -1.04613  -1.03987  -0.95638  -0.94976
 Alpha  occ. eigenvalues --   -0.86037  -0.85413  -0.82491  -0.81797  -0.77575
 Alpha  occ. eigenvalues --   -0.76865  -0.72395  -0.71620  -0.71482  -0.70740
 Alpha  occ. eigenvalues --   -0.70389  -0.69761  -0.64931  -0.64629  -0.64295
 Alpha  occ. eigenvalues --   -0.63974  -0.61976  -0.61311  -0.55149  -0.54543
 Alpha  occ. eigenvalues --   -0.52946  -0.52715  -0.52374  -0.52056  -0.49165
 Alpha  occ. eigenvalues --   -0.49115  -0.48376  -0.48347  -0.45245  -0.44444
 Alpha  occ. eigenvalues --   -0.37218  -0.36659  -0.36181  -0.35588
 Alpha virt. eigenvalues --    0.04911   0.05620   0.11470   0.12050   0.16461
 Alpha virt. eigenvalues --    0.17161   0.21538   0.22275   0.27465   0.27970
 Alpha virt. eigenvalues --    0.28523   0.29103   0.31116   0.31799   0.32465

 Mulliken charges:
               1
     1  C   -0.171420
     2  C   -0.219285
     3  C   -0.172386
     4  C    0.157328
     5  C   -0.173188
     6  C   -0.221380
     7  H    0.224256
     8  H    0.220459
     9  H    0.272347
    10  H    0.282841
    11  H    0.235639
    12  N    0.488205
    13  O   -0.463786
    14  O   -0.463273
    15  C   -0.168841
    16  C   -0.216662
    17  C   -0.166022
    18  C    0.158511
    19  C   -0.169830
    20  C   -0.218235
    21  H    0.226616
    22  H    0.225265
    23  H    0.274688
    24  H    0.274601
    25  H    0.223591
    26  N    0.488857
    27  O   -0.458251
    28  O   -0.470646
 Sum of Mulliken charges =  -0.00000

 Dipole moment (field-independent basis, Debye):
    X=             -1.3120    Y=             -0.5982    Z=              1.6004  Tot=              2.1542
 Quadrupole moment (field-independent basis, Debye-Ang):
   XX=            -66.5584   YY=           -114.1758   ZZ=           -102.5116
   XY=            -23.3251   XZ=              2.9927   YZ=              2.2420

 Normal termination of Gaussian 16 at Thu May  6 14:27:45 2021.
