 Gaussian 16, Revision A.03,
 Gaussian 16:  EM64L-G16RevA.03 25-Dec-2016

 -------------
 #p 6-31g* mp2
 -------------

 ------------------------------------------------------
 Input file generated by CHIRIPA (05-May-2021 14:57:26)
 ------------------------------------------------------
 Symbolic Z-matrix:
 Charge =  0 Multiplicity = 1

                         Standard orientation:
 ---------------------------------------------------------------------
 Center     Atomic      Atomic             Coordinates (Angstroms)
 Number     Number       Type             X           Y           Z
 ---------------------------------------------------------------------
      1          6           0        4.182814   -2.040523    0.321037
      2          6           0        3.178620   -1.852216   -0.634293
      3          6           0        2.664493   -0.575921   -0.881865
      4          6           0        3.179944    0.494476   -0.152585
      5          6           0        4.180339    0.339059    0.805718
      6          6           0        4.679593   -0.946214    1.036732
      7          1           0        4.576424   -3.035467    0.506926
      8          1           0        2.790920   -2.700232   -1.191611
      9          1           0        1.886984   -0.401730   -1.615729
     10          1           0        4.546841    1.203787    1.345477
     11          1           0        5.459453   -1.089477    1.779254
     12          7           0        2.643533    1.850385   -0.405914
     13          8           0        3.114511    2.777041    0.249925
     14          8           0        1.762273    1.960815   -1.255516
     15          6           0       -0.873655   -1.062986    0.046611
     16          6           0       -1.661031   -1.120075   -1.108077
     17          6           0       -2.989115   -0.683994   -1.084110
     18          6           0       -3.499861   -0.194440    0.117043
     19          6           0       -2.740688   -0.124878    1.284136
     20          6           0       -1.415043   -0.566446    1.236933
     21          1           0        0.157085   -1.403876    0.018966
     22          1           0       -1.243233   -1.505217   -2.033903
     23          1           0       -3.621008   -0.716998   -1.963337
     24          1           0       -3.185094    0.264083    2.192229
     25          1           0       -0.805897   -0.520937    2.135217
     26          7           0       -4.904554    0.270123    0.154715
     27          8           0       -5.330947    0.697173    1.225441
     28          8           0       -5.552560    0.198403   -0.887197
 ---------------------------------------------------------------------

 SCF Done:  E(RHF) =  -868.336197996     A.U. after   16 cycles
 E2 =    -0.2601745693D+01 EUMP2 =    -0.87093794368883D+03

 The electronic state is 1-A.
 Alpha  occ. eigenvalues --  -20.61563 -20.61551 -20.60556 -20.60550 -15.86622
 Alpha  occ. eigenvalues --  -15.85612 -11.32233 -11.30993 -11.28875 -11.28769
 Alpha  occ. eigenvalues --  -11.28546 -11.27921 -11.27789 -11.27596 -11.27568
 Alpha  occ. eigenvalues --  -11.27312 -11.26668 -11.26591  -1.60632  -1.59630
 Alpha  occ. eigenvalues --   -1.40178  -1.39183  -1.20435  -1.19177  -1.09750
 Alpha  occ. eigenvalues --   -1.08587  -1.05880  -1.04596  -0.96557  -0.95415
 Alpha  occ. eigenvalues --   -0.87230  -0.86011  -0.83389  -0.82254  -0.78408
 Alpha  occ. eigenvalues --   -0.77284  -0.72830  -0.71976  -0.71835  -0.71528
 Alpha  occ. eigenvalues --   -0.70949  -0.70323  -0.66059  -0.65832  -0.64851
 Alpha  occ. eigenvalues --   -0.64647  -0.63189  -0.61957  -0.56299  -0.55379
 Alpha  occ. eigenvalues --   -0.53994  -0.53887  -0.52887  -0.52714  -0.49607
 Alpha  occ. eigenvalues --   -0.49574  -0.48595  -0.48583  -0.45527  -0.44586
 Alpha  occ. eigenvalues --   -0.38397  -0.37534  -0.37076  -0.36181
 Alpha virt. eigenvalues --    0.04078   0.05259   0.10147   0.11419   0.15437
 Alpha virt. eigenvalues --    0.16751   0.19815   0.21902   0.25582   0.26944
 Alpha virt. eigenvalues --    0.27901   0.29494   0.29759   0.31125   0.31884

 Mulliken charges:
               1
     1  C   -0.170534
     2  C   -0.222777
     3  C   -0.182547
     4  C    0.159893
     5  C   -0.170733
     6  C   -0.218227
     7  H    0.229459
     8  H    0.224331
     9  H    0.276407
    10  H    0.279324
    11  H    0.227611
    12  N    0.487882
    13  O   -0.457237
    14  O   -0.457213
    15  C   -0.172006
    16  C   -0.218348
    17  C   -0.168616
    18  C    0.158945
    19  C   -0.168983
    20  C   -0.219852
    21  H    0.224848
    22  H    0.217052
    23  H    0.275561
    24  H    0.275788
    25  H    0.222728
    26  N    0.488182
    27  O   -0.460330
    28  O   -0.460612
 Sum of Mulliken charges =  -0.00000

 Dipole moment (field-independent basis, Debye):
    X=              7.0784    Y=             -6.2452    Z=              0.8507  Tot=              9.4778
 Quadrupole moment (field-independent basis, Debye-Ang):
   XX=           -125.2857   YY=           -109.2294   ZZ=            -98.4647
   XY=             -8.2711   XZ=              6.9709   YZ=              3.6893

 Normal termination of Gaussian 16 at Fri May  7 00:27:58 2021.
