 Gaussian 16, Revision A.03,
 Gaussian 16:  EM64L-G16RevA.03 25-Dec-2016

 -------------
 #p 6-31g* mp2
 -------------

 ------------------------------------------------------
 Input file generated by CHIRIPA (05-May-2021 14:51:13)
 ------------------------------------------------------
 Symbolic Z-matrix:
 Charge =  0 Multiplicity = 1

                         Standard orientation:
 ---------------------------------------------------------------------
 Center     Atomic      Atomic             Coordinates (Angstroms)
 Number     Number       Type             X           Y           Z
 ---------------------------------------------------------------------
      1          6           0       -2.188368   -0.802673   -0.555228
      2          6           0       -3.254624    0.270329   -0.332187
      3          6           0       -3.880271    0.762380   -1.637654
      4          1           0       -1.403855   -0.400324   -1.210667
      5          1           0       -2.637886   -1.650816   -1.090001
      6          1           0       -2.803564    1.115606    0.203228
      7          1           0       -4.036593   -0.134557    0.322953
      8          1           0       -4.355872   -0.065728   -2.173044
      9          1           0       -3.115838    1.191538   -2.293449
     10          1           0       -4.639763    1.528961   -1.454934
     11          6           0       -1.553660   -1.304592    0.740516
     12          6           0       -0.487404   -2.377594    0.517475
     13          6           0        0.138244   -2.869645    1.822942
     14          1           0       -1.104141   -0.456449    1.275289
     15          1           0       -2.338173   -1.706940    1.395955
     16          1           0        0.294565   -1.972708   -0.137665
     17          1           0       -0.938463   -3.222870   -0.017940
     18          1           0       -0.626190   -3.298803    2.478737
     19          1           0        0.613844   -2.041537    2.358332
     20          1           0        0.897735   -3.636225    1.640222
     21          6           0        2.042712    0.632422   -0.706267
     22          6           0        3.211968   -0.325654   -0.476234
     23          6           0        3.543498   -1.161425   -1.712912
     24          1           0        1.158091    0.055317   -1.008491
     25          1           0        2.283370    1.298515   -1.546386
     26          1           0        2.969749   -0.988828    0.364091
     27          1           0        4.093858    0.253781   -0.174338
     28          1           0        3.810816   -0.514522   -2.554730
     29          1           0        2.680321   -1.764192   -2.013243
     30          1           0        4.382243   -1.839317   -1.526285
     31          6           0        1.699316    1.474843    0.520980
     32          6           0        0.530059    2.432919    0.290947
     33          6           0        0.198530    3.268690    1.527623
     34          1           0        1.458658    0.808750    1.361098
     35          1           0        2.583937    2.051948    0.823204
     36          1           0       -0.351830    1.853484   -0.010951
     37          1           0        0.772277    3.096092   -0.549378
     38          1           0        1.061706    3.871456    1.827955
     39          1           0       -0.068789    2.621788    2.369442
     40          1           0       -0.640215    3.946582    1.340997
 ---------------------------------------------------------------------

 SCF Done:  E(RHF) =  -470.732323751     A.U. after   11 cycles
 E2 =    -0.1586714735D+01 EUMP2 =    -0.47231903848585D+03

 The electronic state is 1-A.
 Alpha  occ. eigenvalues --  -11.21655 -11.21654 -11.21644 -11.21636 -11.21473
 Alpha  occ. eigenvalues --  -11.21466 -11.21413 -11.21399 -11.21152 -11.21138
 Alpha  occ. eigenvalues --  -11.21106 -11.21096  -1.08610  -1.08399  -1.03638
 Alpha  occ. eigenvalues --   -1.03544  -0.96053  -0.96026  -0.87068  -0.87043
 Alpha  occ. eigenvalues --   -0.79662  -0.79652  -0.78429  -0.78215  -0.65893
 Alpha  occ. eigenvalues --   -0.64446  -0.61307  -0.60702  -0.59406  -0.59395
 Alpha  occ. eigenvalues --   -0.57661  -0.57640  -0.55387  -0.55271  -0.52733
 Alpha  occ. eigenvalues --   -0.52723  -0.52468  -0.52454  -0.50054  -0.49951
 Alpha  occ. eigenvalues --   -0.48066  -0.47896  -0.46792  -0.46702  -0.46316
 Alpha  occ. eigenvalues --   -0.45910  -0.45610  -0.45168  -0.43844  -0.43836
 Alpha virt. eigenvalues --    0.18301   0.21293   0.22958   0.24515   0.25405
 Alpha virt. eigenvalues --    0.26144   0.27206   0.28086   0.29010   0.30162
 Alpha virt. eigenvalues --    0.30871   0.31532   0.31651   0.31763   0.32545

 Mulliken charges:
               1
     1  C   -0.303867
     2  C   -0.303070
     3  C   -0.475915
     4  H    0.153038
     5  H    0.150627
     6  H    0.154665
     7  H    0.152498
     8  H    0.155315
     9  H    0.155691
    10  H    0.160468
    11  C   -0.301839
    12  C   -0.306910
    13  C   -0.476735
    14  H    0.152446
    15  H    0.150548
    16  H    0.158871
    17  H    0.152463
    18  H    0.155667
    19  H    0.155324
    20  H    0.160727
    21  C   -0.306442
    22  C   -0.302016
    23  C   -0.476903
    24  H    0.156215
    25  H    0.150153
    26  H    0.154349
    27  H    0.152575
    28  H    0.155396
    29  H    0.155732
    30  H    0.160638
    31  C   -0.299873
    32  C   -0.308642
    33  C   -0.476087
    34  H    0.150475
    35  H    0.150467
    36  H    0.160114
    37  H    0.152425
    38  H    0.155791
    39  H    0.155092
    40  H    0.160528
 Sum of Mulliken charges =  -0.00000

 Dipole moment (field-independent basis, Debye):
    X=             -0.0058    Y=             -0.0021    Z=             -0.0067  Tot=              0.0091
 Quadrupole moment (field-independent basis, Debye-Ang):
   XX=            -84.1806   YY=            -84.3480   ZZ=            -86.0655
   XY=              1.4874   XZ=             -0.4307   YZ=             -0.4343

 Normal termination of Gaussian 16 at Wed May  5 16:51:36 2021.
