 Gaussian 16, Revision A.03,
 Gaussian 16:  EM64L-G16RevA.03 25-Dec-2016

 -------------
 #p 6-31g* mp2
 -------------

 ------------------------------------------------------
 Input file generated by CHIRIPA (05-May-2021 14:55:24)
 ------------------------------------------------------
 Symbolic Z-matrix:
 Charge =  0 Multiplicity = 1

                         Standard orientation:
 ---------------------------------------------------------------------
 Center     Atomic      Atomic             Coordinates (Angstroms)
 Number     Number       Type             X           Y           Z
 ---------------------------------------------------------------------
      1          6           0        3.302171    2.640570    0.286433
      2          6           0        2.223499    1.815493    0.621450
      3          6           0        2.296021    0.434270    0.417711
      4          6           0        3.467687   -0.090594   -0.125434
      5          6           0        4.559317    0.705213   -0.469417
      6          6           0        4.464588    2.083778   -0.256974
      7          1           0        3.237208    3.712505    0.448083
      8          1           0        1.319500    2.245141    1.043627
      9          1           0        1.475881   -0.227628    0.668072
     10          1           0        5.447290    0.247797   -0.888574
     11          1           0        5.303863    2.722117   -0.518096
     12          7           0        3.556218   -1.551427   -0.345731
     13          8           0        4.599583   -1.989247   -0.825669
     14          8           0        2.580567   -2.230947   -0.034290
     15          6           0       -3.952328   -0.762392    0.313200
     16          6           0       -2.557967   -0.287762    0.723650
     17          6           0       -1.633968   -1.439946    1.119242
     18          1           0       -4.400381   -1.325058    1.143621
     19          1           0       -3.860435   -1.464881   -0.526717
     20          1           0       -2.652562    0.414687    1.561642
     21          1           0       -2.113257    0.274003   -0.107776
     22          1           0       -1.509982   -2.138127    0.285113
     23          1           0       -2.052351   -1.996644    1.964017
     24          1           0       -0.642525   -1.078113    1.409035
     25          6           0       -4.887599    0.377960   -0.085037
     26          6           0       -6.281960   -0.096668   -0.495487
     27          6           0       -7.205958    1.055515   -0.891081
     28          1           0       -4.979492    1.080449    0.754879
     29          1           0       -4.439545    0.940627   -0.915459
     30          1           0       -6.726669   -0.658434    0.335938
     31          1           0       -6.187365   -0.799118   -1.333480
     32          1           0       -6.787576    1.612213   -1.735855
     33          1           0       -7.329945    1.753696   -0.056952
     34          1           0       -8.197400    0.693682   -1.180873
 ---------------------------------------------------------------------

 SCF Done:  E(RHF) =  -669.535456098     A.U. after   15 cycles
 E2 =    -0.2090972950D+01 EUMP2 =    -0.67162642904866D+03

 The electronic state is 1-A.
 Alpha  occ. eigenvalues --  -20.60735 -20.60729 -15.85787 -11.31157 -11.27732
 Alpha  occ. eigenvalues --  -11.27712 -11.27479 -11.26752 -11.26737 -11.21893
 Alpha  occ. eigenvalues --  -11.21723 -11.21580 -11.21521 -11.21248 -11.21193
 Alpha  occ. eigenvalues --   -1.59810  -1.39363  -1.19334  -1.08729  -1.08613
 Alpha  occ. eigenvalues --   -1.04739  -1.03714  -0.96147  -0.95562  -0.87156
 Alpha  occ. eigenvalues --   -0.86136  -0.82393  -0.79774  -0.78426  -0.77440
 Alpha  occ. eigenvalues --   -0.72006  -0.71134  -0.70454  -0.65237  -0.64986
 Alpha  occ. eigenvalues --   -0.64752  -0.62131  -0.61094  -0.59524  -0.57776
 Alpha  occ. eigenvalues --   -0.55406  -0.55242  -0.53068  -0.53039  -0.52698
 Alpha  occ. eigenvalues --   -0.52497  -0.50056  -0.48766  -0.48761  -0.48093
 Alpha  occ. eigenvalues --   -0.46802  -0.45966  -0.45885  -0.44768  -0.43969
 Alpha  occ. eigenvalues --   -0.37319  -0.36342
 Alpha virt. eigenvalues --    0.05093   0.11309   0.16584   0.20122   0.22790
 Alpha virt. eigenvalues --    0.23742   0.26138   0.26510   0.27280   0.27892
 Alpha virt. eigenvalues --    0.29158   0.30466   0.31304   0.31539   0.31890

 Mulliken charges:
               1
     1  C   -0.170614
     2  C   -0.222857
     3  C   -0.181022
     4  C    0.157647
     5  C   -0.169881
     6  C   -0.219137
     7  H    0.225537
     8  H    0.223971
     9  H    0.291079
    10  H    0.275569
    11  H    0.223352
    12  N    0.486320
    13  O   -0.460571
    14  O   -0.460217
    15  C   -0.298578
    16  C   -0.301792
    17  C   -0.477632
    18  H    0.151108
    19  H    0.152556
    20  H    0.148472
    21  H    0.149038
    22  H    0.165740
    23  H    0.158665
    24  H    0.153478
    25  C   -0.298297
    26  C   -0.299934
    27  C   -0.475788
    28  H    0.148316
    29  H    0.149033
    30  H    0.152577
    31  H    0.153212
    32  H    0.154962
    33  H    0.154647
    34  H    0.161042
 Sum of Mulliken charges =  -0.00000

 Dipole moment (field-independent basis, Debye):
    X=             -0.4083    Y=              5.0467    Z=              0.7485  Tot=              5.1182
 Quadrupole moment (field-independent basis, Debye-Ang):
   XX=            -93.0339   YY=            -96.5547   ZZ=            -94.2831
   XY=             19.5244   XZ=              0.2627   YZ=             -0.6640

 Normal termination of Gaussian 16 at Thu May  6 09:29:22 2021.
