 Gaussian 16, Revision A.03,
 Gaussian 16:  EM64L-G16RevA.03 25-Dec-2016

 -------------
 #p 6-31g* mp2
 -------------

 ------------------------------------------------------
 Input file generated by CHIRIPA (05-May-2021 14:57:22)
 ------------------------------------------------------
 Symbolic Z-matrix:
 Charge =  0 Multiplicity = 1

                         Standard orientation:
 ---------------------------------------------------------------------
 Center     Atomic      Atomic             Coordinates (Angstroms)
 Number     Number       Type             X           Y           Z
 ---------------------------------------------------------------------
      1          6           0       -1.767746   -2.552550   -0.174182
      2          6           0       -1.451799   -1.753529    0.929568
      3          6           0       -2.016742   -0.482549    1.070980
      4          6           0       -2.897716   -0.040161    0.085348
      5          6           0       -3.232285   -0.812655   -1.025780
      6          6           0       -2.655416   -2.080396   -1.146619
      7          1           0       -1.324252   -3.538620   -0.276043
      8          1           0       -0.762741   -2.117618    1.686326
      9          1           0       -1.789604    0.156843    1.915375
     10          1           0       -3.922519   -0.422394   -1.763812
     11          1           0       -2.902614   -2.698744   -2.004863
     12          7           0       -3.502109    1.303654    0.224165
     13          8           0       -4.275422    1.670334   -0.657974
     14          8           0       -3.191075    1.964811    1.212479
     15          6           0        2.411573    2.738137   -0.351381
     16          6           0        3.714378    2.229038   -0.345159
     17          6           0        3.940397    0.858611   -0.185810
     18          6           0        2.835473    0.022219   -0.034539
     19          6           0        1.525570    0.499126   -0.036479
     20          6           0        1.323246    1.873081   -0.197293
     21          1           0        2.245200    3.804088   -0.475736
     22          1           0        4.561492    2.898495   -0.464617
     23          1           0        4.938497    0.437730   -0.177235
     24          1           0        0.701197   -0.193058    0.084797
     25          1           0        0.310371    2.265649   -0.201731
     26          7           0        3.062207   -1.430458    0.134932
     27          8           0        2.071822   -2.146352    0.266350
     28          8           0        4.226012   -1.825667    0.133137
 ---------------------------------------------------------------------

 SCF Done:  E(RHF) =  -868.340022188     A.U. after   16 cycles
 E2 =    -0.2601823419D+01 EUMP2 =    -0.87094184560788D+03

 The electronic state is 1-A.
 Alpha  occ. eigenvalues --  -20.61287 -20.61247 -20.61228 -20.61215 -15.86290
 Alpha  occ. eigenvalues --  -15.86280 -11.31492 -11.31308 -11.27991 -11.27987
 Alpha  occ. eigenvalues --  -11.27869 -11.27705 -11.27513 -11.27512 -11.26902
 Alpha  occ. eigenvalues --  -11.26813 -11.26779 -11.26716  -1.60324  -1.60323
 Alpha  occ. eigenvalues --   -1.39890  -1.39877  -1.19626  -1.19452  -1.08982
 Alpha  occ. eigenvalues --   -1.08912  -1.05011  -1.04776  -0.95855  -0.95804
 Alpha  occ. eigenvalues --   -0.86331  -0.86211  -0.82693  -0.82652  -0.77883
 Alpha  occ. eigenvalues --   -0.77664  -0.72546  -0.72477  -0.71666  -0.71632
 Alpha  occ. eigenvalues --   -0.70580  -0.70558  -0.65222  -0.65125  -0.64863
 Alpha  occ. eigenvalues --   -0.64768  -0.62347  -0.62125  -0.55339  -0.55306
 Alpha  occ. eigenvalues --   -0.53488  -0.53168  -0.52974  -0.52651  -0.49308
 Alpha  occ. eigenvalues --   -0.49264  -0.49234  -0.49207  -0.45371  -0.45314
 Alpha  occ. eigenvalues --   -0.37496  -0.37424  -0.36626  -0.36354
 Alpha virt. eigenvalues --    0.04550   0.04875   0.10988   0.11243   0.16230
 Alpha virt. eigenvalues --    0.16320   0.21268   0.21816   0.26945   0.27552
 Alpha virt. eigenvalues --    0.28454   0.28723   0.30763   0.31469   0.32313

 Mulliken charges:
               1
     1  C   -0.164618
     2  C   -0.225513
     3  C   -0.188177
     4  C    0.157556
     5  C   -0.171839
     6  C   -0.219535
     7  H    0.237669
     8  H    0.239812
     9  H    0.275501
    10  H    0.275615
    11  H    0.225973
    12  N    0.486883
    13  O   -0.458756
    14  O   -0.463731
    15  C   -0.169571
    16  C   -0.219592
    17  C   -0.170086
    18  C    0.153725
    19  C   -0.180918
    20  C   -0.226138
    21  H    0.229020
    22  H    0.223986
    23  H    0.274740
    24  H    0.289179
    25  H    0.230990
    26  N    0.489056
    27  O   -0.473630
    28  O   -0.457603
 Sum of Mulliken charges =  -0.00000

 Dipole moment (field-independent basis, Debye):
    X=              1.2930    Y=              0.1793    Z=             -1.1347  Tot=              1.7296
 Quadrupole moment (field-independent basis, Debye-Ang):
   XX=           -116.3026   YY=           -104.1047   ZZ=           -102.1541
   XY=             30.3288   XZ=              2.1070   YZ=             -0.0938

 Normal termination of Gaussian 16 at Thu May  6 19:32:06 2021.
