 Gaussian 16, Revision A.03,
 Gaussian 16:  EM64L-G16RevA.03 25-Dec-2016

 -------------
 #p 6-31g* mp2
 -------------

 ------------------------------------------------------
 Input file generated by CHIRIPA (05-May-2021 14:55:22)
 ------------------------------------------------------
 Symbolic Z-matrix:
 Charge =  0 Multiplicity = 1

                         Standard orientation:
 ---------------------------------------------------------------------
 Center     Atomic      Atomic             Coordinates (Angstroms)
 Number     Number       Type             X           Y           Z
 ---------------------------------------------------------------------
      1          6           0       -0.823708   -1.566369    1.064110
      2          6           0       -1.001932   -1.502983   -0.321797
      3          6           0       -2.049416   -0.756460   -0.869545
      4          6           0       -2.903773   -0.082689    0.001889
      5          6           0       -2.752302   -0.126361    1.386967
      6          6           0       -1.697921   -0.879067    1.912573
      7          1           0       -0.007319   -2.148688    1.481014
      8          1           0       -0.324546   -2.035733   -0.983138
      9          1           0       -2.210418   -0.690199   -1.938706
     10          1           0       -3.443773    0.415436    2.020798
     11          1           0       -1.561924   -0.926492    2.989281
     12          7           0       -4.016349    0.710895   -0.566266
     13          8           0       -4.755345    1.295433    0.222934
     14          8           0       -4.128322    0.733342   -1.790029
     15          6           0        3.154586    0.923515    0.108627
     16          6           0        4.021754    2.159089   -0.135012
     17          6           0        3.352896    3.452203    0.332190
     18          1           0        2.194248    1.049354   -0.409890
     19          1           0        2.923965    0.851579    1.180556
     20          1           0        4.251821    2.227903   -1.205969
     21          1           0        4.980215    2.030210    0.383987
     22          1           0        3.138142    3.409072    1.404861
     23          1           0        2.405611    3.607888   -0.194130
     24          1           0        3.990132    4.322867    0.148516
     25          6           0        3.809657   -0.377003   -0.353179
     26          6           0        2.942489   -1.612577   -0.109541
     27          6           0        3.611347   -2.905692   -0.576742
     28          1           0        4.040279   -0.305068   -1.425109
     29          1           0        4.769995   -0.502843    0.165338
     30          1           0        1.984029   -1.483699   -0.628539
     31          1           0        2.712421   -1.681391    0.961417
     32          1           0        4.558633   -3.061377   -0.050423
     33          1           0        3.826102   -2.862561   -1.649413
     34          1           0        2.974111   -3.776355   -0.393068
 ---------------------------------------------------------------------

 SCF Done:  E(RHF) =  -669.535057406     A.U. after   15 cycles
 E2 =    -0.2092241833D+01 EUMP2 =    -0.67162729923873D+03

 The electronic state is 1-A.
 Alpha  occ. eigenvalues --  -20.60746 -20.60741 -15.85800 -11.31156 -11.27736
 Alpha  occ. eigenvalues --  -11.27732 -11.27444 -11.26730 -11.26716 -11.22657
 Alpha  occ. eigenvalues --  -11.22122 -11.22029 -11.22018 -11.21916 -11.21366
 Alpha  occ. eigenvalues --   -1.59822  -1.39376  -1.19333  -1.09125  -1.08719
 Alpha  occ. eigenvalues --   -1.04742  -1.04217  -0.96630  -0.95558  -0.87648
 Alpha  occ. eigenvalues --   -0.86141  -0.82395  -0.80339  -0.78899  -0.77445
 Alpha  occ. eigenvalues --   -0.72018  -0.71146  -0.70424  -0.65787  -0.64982
 Alpha  occ. eigenvalues --   -0.64749  -0.62141  -0.61571  -0.60036  -0.58243
 Alpha  occ. eigenvalues --   -0.55900  -0.55221  -0.53361  -0.53094  -0.53015
 Alpha  occ. eigenvalues --   -0.52840  -0.50564  -0.48790  -0.48775  -0.48600
 Alpha  occ. eigenvalues --   -0.47352  -0.46430  -0.46328  -0.44784  -0.44451
 Alpha  occ. eigenvalues --   -0.37274  -0.36333
 Alpha virt. eigenvalues --    0.05088   0.11183   0.16542   0.19924   0.22592
 Alpha virt. eigenvalues --    0.23912   0.25022   0.26037   0.27250   0.27688
 Alpha virt. eigenvalues --    0.29098   0.29739   0.31064   0.31408   0.31774

 Mulliken charges:
               1
     1  C   -0.168945
     2  C   -0.220494
     3  C   -0.172154
     4  C    0.158243
     5  C   -0.170555
     6  C   -0.219370
     7  H    0.228743
     8  H    0.224817
     9  H    0.275309
    10  H    0.275503
    11  H    0.223190
    12  N    0.488099
    13  O   -0.460499
    14  O   -0.460681
    15  C   -0.299123
    16  C   -0.300312
    17  C   -0.476168
    18  H    0.152396
    19  H    0.148025
    20  H    0.153107
    21  H    0.152174
    22  H    0.154847
    23  H    0.157570
    24  H    0.161922
    25  C   -0.297923
    26  C   -0.306166
    27  C   -0.476329
    28  H    0.151887
    29  H    0.151854
    30  H    0.149465
    31  H    0.147121
    32  H    0.159541
    33  H    0.158572
    34  H    0.156331
 Sum of Mulliken charges =  -0.00000

 Dipole moment (field-independent basis, Debye):
    X=              4.0584    Y=             -2.7151    Z=              1.9895  Tot=              5.2726
 Quadrupole moment (field-independent basis, Debye-Ang):
   XX=           -117.3795   YY=            -95.6477   ZZ=            -89.7774
   XY=              7.8084   XZ=             -7.0300   YZ=              0.7799

 Normal termination of Gaussian 16 at Wed May  5 17:29:05 2021.
