 Gaussian 16, Revision A.03,
 Gaussian 16:  EM64L-G16RevA.03 25-Dec-2016

 -------------
 #p 6-31g* mp2
 -------------

 ------------------------------------------------------
 Input file generated by CHIRIPA (05-May-2021 14:55:25)
 ------------------------------------------------------
 Symbolic Z-matrix:
 Charge =  0 Multiplicity = 1

                         Standard orientation:
 ---------------------------------------------------------------------
 Center     Atomic      Atomic             Coordinates (Angstroms)
 Number     Number       Type             X           Y           Z
 ---------------------------------------------------------------------
      1          6           0       -0.367900   -2.061713    1.646873
      2          6           0       -0.715303   -0.805311    2.154106
      3          6           0       -1.455594    0.093037    1.379839
      4          6           0       -1.833583   -0.299550    0.096761
      5          6           0       -1.502833   -1.544243   -0.436751
      6          6           0       -0.762078   -2.426526    0.355340
      7          1           0        0.207356   -2.753331    2.255265
      8          1           0       -0.410542   -0.519299    3.156784
      9          1           0       -1.738109    1.071960    1.747690
     10          1           0       -1.820999   -1.800978   -1.439883
     11          1           0       -0.493703   -3.401608   -0.041187
     12          7           0       -2.617541    0.642987   -0.732355
     13          8           0       -2.938423    0.273160   -1.859697
     14          8           0       -2.896282    1.733727   -0.239174
     15          6           0        2.061963   -0.032595   -0.735879
     16          6           0        2.865774   -1.256114   -0.294435
     17          6           0        2.615730   -2.478178   -1.178647
     18          1           0        0.991982   -0.281560   -0.725710
     19          1           0        2.316848    0.208726   -1.777125
     20          1           0        2.610475   -1.494218    0.746115
     21          1           0        3.933954   -1.004148   -0.305472
     22          1           0        2.888279   -2.264477   -2.217227
     23          1           0        1.557281   -2.757332   -1.159664
     24          1           0        3.200266   -3.341316   -0.845225
     25          6           0        2.301245    1.197119    0.138351
     26          6           0        1.497432    2.420637   -0.303094
     27          6           0        1.747478    3.642702    0.581118
     28          1           0        2.046359    0.955798    1.179597
     29          1           0        3.371225    1.446083    0.128181
     30          1           0        0.429253    2.168671   -0.292056
     31          1           0        1.752731    2.658741   -1.343645
     32          1           0        2.805927    3.921855    0.562136
     33          1           0        1.474929    3.429001    1.619699
     34          1           0        1.162941    4.505840    0.247696
 ---------------------------------------------------------------------

 SCF Done:  E(RHF) =  -669.533049252     A.U. after   15 cycles
 E2 =    -0.2098854333D+01 EUMP2 =    -0.67163190358521D+03

 The electronic state is 1-A.
 Alpha  occ. eigenvalues --  -20.60961 -20.60951 -15.85999 -11.31401 -11.27996
 Alpha  occ. eigenvalues --  -11.27947 -11.27728 -11.27033 -11.26969 -11.21859
 Alpha  occ. eigenvalues --  -11.21478 -11.21457 -11.21366 -11.21267 -11.20978
 Alpha  occ. eigenvalues --   -1.60022  -1.39574  -1.19627  -1.08998  -1.08457
 Alpha  occ. eigenvalues --   -1.05033  -1.03616  -0.96089  -0.95804  -0.87124
 Alpha  occ. eigenvalues --   -0.86393  -0.82642  -0.79696  -0.78279  -0.77683
 Alpha  occ. eigenvalues --   -0.72216  -0.71353  -0.70689  -0.65261  -0.65248
 Alpha  occ. eigenvalues --   -0.64979  -0.62399  -0.61045  -0.59458  -0.57684
 Alpha  occ. eigenvalues --   -0.55558  -0.55388  -0.53339  -0.53116  -0.52773
 Alpha  occ. eigenvalues --   -0.52478  -0.50040  -0.48978  -0.48972  -0.48007
 Alpha  occ. eigenvalues --   -0.46747  -0.45794  -0.45661  -0.44931  -0.43835
 Alpha  occ. eigenvalues --   -0.37518  -0.36500
 Alpha virt. eigenvalues --    0.04813   0.10876   0.16156   0.20511   0.23046
 Alpha virt. eigenvalues --    0.23966   0.26076   0.26700   0.27433   0.28064
 Alpha virt. eigenvalues --    0.28552   0.29823   0.31414   0.31911   0.32391

 Mulliken charges:
               1
     1  C   -0.170181
     2  C   -0.217144
     3  C   -0.171826
     4  C    0.162404
     5  C   -0.177967
     6  C   -0.213948
     7  H    0.227640
     8  H    0.225093
     9  H    0.277020
    10  H    0.277031
    11  H    0.226353
    12  N    0.488636
    13  O   -0.458772
    14  O   -0.459895
    15  C   -0.305248
    16  C   -0.296684
    17  C   -0.478415
    18  H    0.160441
    19  H    0.149956
    20  H    0.144459
    21  H    0.152452
    22  H    0.158762
    23  H    0.148368
    24  H    0.157000
    25  C   -0.296590
    26  C   -0.302872
    27  C   -0.474693
    28  H    0.143512
    29  H    0.147995
    30  H    0.154089
    31  H    0.154418
    32  H    0.154142
    33  H    0.149252
    34  H    0.165210
 Sum of Mulliken charges =  -0.00000

 Dipole moment (field-independent basis, Debye):
    X=              2.5308    Y=             -3.3016    Z=              2.9118  Tot=              5.0777
 Quadrupole moment (field-independent basis, Debye-Ang):
   XX=           -105.5245   YY=            -91.7664   ZZ=            -91.5661
   XY=              5.6921   XZ=             -5.6375   YZ=              0.6475

 Normal termination of Gaussian 16 at Thu May  6 12:43:02 2021.
