 Gaussian 16, Revision A.03,
 Gaussian 16:  EM64L-G16RevA.03 25-Dec-2016

 -------------
 #p 6-31g* mp2
 -------------

 ------------------------------------------------------
 Input file generated by CHIRIPA (05-May-2021 14:53:12)
 ------------------------------------------------------
 Symbolic Z-matrix:
 Charge =  0 Multiplicity = 1

                         Standard orientation:
 ---------------------------------------------------------------------
 Center     Atomic      Atomic             Coordinates (Angstroms)
 Number     Number       Type             X           Y           Z
 ---------------------------------------------------------------------
      1          6           0        4.232724   -0.498210   -0.033956
      2          6           0        5.654567   -0.799895    0.440740
      3          6           0        5.962129   -2.297299    0.472025
      4          1           0        3.516915   -1.007302    0.625883
      5          1           0        4.090469   -0.923728   -1.036998
      6          1           0        5.794541   -0.372737    1.442019
      7          1           0        6.367069   -0.289870   -0.220191
      8          1           0        5.850106   -2.734508   -0.525422
      9          1           0        5.274324   -2.817847    1.146233
     10          1           0        6.983649   -2.490264    0.814255
     11          6           0        3.910210    0.994561   -0.070622
     12          6           0        2.488368    1.296246   -0.545318
     13          6           0        2.180805    2.793650   -0.576603
     14          1           0        4.052465    1.420079    0.932420
     15          1           0        4.626019    1.503653   -0.730461
     16          1           0        1.775865    0.786221    0.115613
     17          1           0        2.348393    0.869088   -1.546597
     18          1           0        2.868610    3.314198   -1.250811
     19          1           0        2.292828    3.230859    0.420844
     20          1           0        1.159285    2.986615   -0.918833
     21          6           0       -5.671692   -0.584691    0.134765
     22          6           0       -4.859546   -1.426170   -0.632603
     23          6           0       -3.478198   -1.219043   -0.691986
     24          6           0       -2.940027   -0.156106    0.031772
     25          6           0       -3.722768    0.699587    0.805331
     26          6           0       -5.101716    0.473635    0.850023
     27          1           0       -6.743824   -0.752904    0.175188
     28          1           0       -5.299449   -2.248866   -1.189110
     29          1           0       -2.826151   -1.855216   -1.278105
     30          1           0       -3.255297    1.511407    1.349240
     31          1           0       -5.729996    1.128739    1.446804
     32          7           0       -1.478926    0.073134   -0.023317
     33          8           0       -1.029241    1.016578    0.623470
     34          8           0       -0.811068   -0.694972   -0.712240
 ---------------------------------------------------------------------

 SCF Done:  E(RHF) =  -669.536591662     A.U. after   15 cycles
 E2 =    -0.2091913441D+01 EUMP2 =    -0.67162850510287D+03

 The electronic state is 1-A.
 Alpha  occ. eigenvalues --  -20.61104 -20.61095 -15.86096 -11.31382 -11.27934
 Alpha  occ. eigenvalues --  -11.27930 -11.27663 -11.26929 -11.26919 -11.20597
 Alpha  occ. eigenvalues --  -11.20247 -11.20075 -11.19845 -11.19415 -11.19297
 Alpha  occ. eigenvalues --   -1.60135  -1.39692  -1.19541  -1.08954  -1.07001
 Alpha  occ. eigenvalues --   -1.04929  -1.02065  -0.95801  -0.94593  -0.86331
 Alpha  occ. eigenvalues --   -0.85630  -0.82635  -0.78186  -0.77696  -0.76692
 Alpha  occ. eigenvalues --   -0.72298  -0.71440  -0.70648  -0.65195  -0.64932
 Alpha  occ. eigenvalues --   -0.63649  -0.62275  -0.59474  -0.58013  -0.56163
 Alpha  occ. eigenvalues --   -0.55424  -0.53919  -0.53263  -0.53018  -0.51320
 Alpha  occ. eigenvalues --   -0.51009  -0.49134  -0.49063  -0.48577  -0.46461
 Alpha  occ. eigenvalues --   -0.45214  -0.45108  -0.44258  -0.44027  -0.42335
 Alpha  occ. eigenvalues --   -0.37518  -0.36527
 Alpha virt. eigenvalues --    0.04824   0.11129   0.16332   0.21270   0.24168
 Alpha virt. eigenvalues --    0.25744   0.27195   0.28038   0.28161   0.28989
 Alpha virt. eigenvalues --    0.29298   0.30847   0.32387   0.32745   0.33084

 Mulliken charges:
               1
     1  C   -0.296553
     2  C   -0.298484
     3  C   -0.474689
     4  H    0.152031
     5  H    0.148502
     6  H    0.149661
     7  H    0.149278
     8  H    0.153920
     9  H    0.154276
    10  H    0.156505
    11  C   -0.298453
    12  C   -0.304103
    13  C   -0.471985
    14  H    0.144841
    15  H    0.142478
    16  H    0.179560
    17  H    0.148193
    18  H    0.143954
    19  H    0.149779
    20  H    0.162716
    21  C   -0.170398
    22  C   -0.218611
    23  C   -0.170729
    24  C    0.159114
    25  C   -0.170738
    26  C   -0.218584
    27  H    0.226318
    28  H    0.224147
    29  H    0.276090
    30  H    0.276066
    31  H    0.224150
    32  N    0.488103
    33  O   -0.458792
    34  O   -0.457563
 Sum of Mulliken charges =  -0.00000

 Dipole moment (field-independent basis, Debye):
    X=             -5.6885    Y=             -0.9265    Z=              0.2368  Tot=              5.7683
 Quadrupole moment (field-independent basis, Debye-Ang):
   XX=            -66.8634   YY=            -93.5504   ZZ=            -92.6433
   XY=              2.9231   XZ=             -1.3840   YZ=              3.0719

 Normal termination of Gaussian 16 at Thu May  6 08:49:11 2021.
