 Gaussian 16, Revision A.03,
 Gaussian 16:  EM64L-G16RevA.03 25-Dec-2016

 -------------
 #p 6-31g* mp2
 -------------

 ------------------------------------------------------
 Input file generated by CHIRIPA (05-May-2021 14:51:13)
 ------------------------------------------------------
 Symbolic Z-matrix:
 Charge =  0 Multiplicity = 1

                         Standard orientation:
 ---------------------------------------------------------------------
 Center     Atomic      Atomic             Coordinates (Angstroms)
 Number     Number       Type             X           Y           Z
 ---------------------------------------------------------------------
      1          6           0        2.970738   -1.102599    0.153377
      2          6           0        1.578718   -0.604174    0.543042
      3          6           0        0.553770   -1.734031    0.646464
      4          1           0        2.908112   -1.631844   -0.807312
      5          1           0        3.309529   -1.839518    0.894704
      6          1           0        1.243233    0.132611   -0.198047
      7          1           0        1.644699   -0.075887    1.502821
      8          1           0        0.862247   -2.466244    1.399663
      9          1           0        0.458500   -2.256560   -0.310870
     10          1           0       -0.434306   -1.355388    0.926100
     11          6           0        4.006381    0.015271    0.045961
     12          6           0        5.398400   -0.483154   -0.343704
     13          6           0        6.423349    0.646703   -0.447126
     14          1           0        3.667590    0.752190   -0.695366
     15          1           0        4.069006    0.544516    1.006650
     16          1           0        5.332420   -1.011440   -1.303483
     17          1           0        5.733885   -1.219939    0.397385
     18          1           0        6.518618    1.169232    0.510208
     19          1           0        6.114872    1.378916   -1.200325
     20          1           0        7.411424    0.268060   -0.726762
     21          6           0       -2.811817    0.872767   -0.230604
     22          6           0       -2.713395    2.296299    0.318813
     23          6           0       -1.353653    2.941372    0.049047
     24          1           0       -2.017922    0.258511    0.215898
     25          1           0       -2.621750    0.890879   -1.312704
     26          1           0       -2.904957    2.275690    1.399319
     27          1           0       -3.507737    2.907189   -0.128905
     28          1           0       -1.157587    2.991237   -1.026905
     29          1           0       -0.551382    2.356151    0.510002
     30          1           0       -1.305165    3.958507    0.450227
     31          6           0       -4.165301    0.214560    0.031266
     32          6           0       -4.263724   -1.208970   -0.518150
     33          6           0       -5.623466   -1.854044   -0.248385
     34          1           0       -4.355369    0.196448    1.113366
     35          1           0       -4.959197    0.828817   -0.415236
     36          1           0       -3.469382   -1.819862   -0.070434
     37          1           0       -4.072161   -1.188363   -1.598658
     38          1           0       -6.425737   -1.268822   -0.709339
     39          1           0       -5.819532   -1.903909    0.827567
     40          1           0       -5.671954   -2.871179   -0.649565
 ---------------------------------------------------------------------

 SCF Done:  E(RHF) =  -470.733275962     A.U. after   11 cycles
 E2 =    -0.1583176981D+01 EUMP2 =    -0.47231645294311D+03

 The electronic state is 1-A.
 Alpha  occ. eigenvalues --  -11.21632 -11.21604 -11.21583 -11.21579 -11.21418
 Alpha  occ. eigenvalues --  -11.21381 -11.21356 -11.21319 -11.21105 -11.21069
 Alpha  occ. eigenvalues --  -11.21052 -11.21042  -1.08451  -1.08407  -1.03555
 Alpha  occ. eigenvalues --   -1.03503  -0.96007  -0.95952  -0.87031  -0.86961
 Alpha  occ. eigenvalues --   -0.79624  -0.79559  -0.78270  -0.78216  -0.65099
 Alpha  occ. eigenvalues --   -0.65040  -0.60958  -0.60896  -0.59411  -0.59296
 Alpha  occ. eigenvalues --   -0.57653  -0.57539  -0.55288  -0.55248  -0.52750
 Alpha  occ. eigenvalues --   -0.52636  -0.52490  -0.52308  -0.49948  -0.49892
 Alpha  occ. eigenvalues --   -0.47955  -0.47857  -0.46665  -0.46577  -0.45821
 Alpha  occ. eigenvalues --   -0.45760  -0.45702  -0.45644  -0.43788  -0.43743
 Alpha virt. eigenvalues --    0.20644   0.23043   0.23636   0.24419   0.26014
 Alpha virt. eigenvalues --    0.26468   0.26790   0.27143   0.28430   0.29238
 Alpha virt. eigenvalues --    0.30579   0.31337   0.31761   0.31909   0.32388

 Mulliken charges:
               1
     1  C   -0.298295
     2  C   -0.302737
     3  C   -0.480835
     4  H    0.149866
     5  H    0.149599
     6  H    0.155396
     7  H    0.151460
     8  H    0.155334
     9  H    0.156026
    10  H    0.163887
    11  C   -0.298402
    12  C   -0.299681
    13  C   -0.475724
    14  H    0.149939
    15  H    0.149651
    16  H    0.151961
    17  H    0.151887
    18  H    0.155203
    19  H    0.155303
    20  H    0.160244
    21  C   -0.307065
    22  C   -0.298952
    23  C   -0.478816
    24  H    0.158411
    25  H    0.149218
    26  H    0.151599
    27  H    0.151881
    28  H    0.154599
    29  H    0.158853
    30  H    0.160128
    31  C   -0.297780
    32  C   -0.300734
    33  C   -0.475670
    34  H    0.149153
    35  H    0.149665
    36  H    0.153039
    37  H    0.151851
    38  H    0.155110
    39  H    0.155136
    40  H    0.160293
 Sum of Mulliken charges =  -0.00000

 Dipole moment (field-independent basis, Debye):
    X=              0.0243    Y=             -0.0097    Z=             -0.0068  Tot=              0.0270
 Quadrupole moment (field-independent basis, Debye-Ang):
   XX=            -86.2676   YY=            -85.5430   ZZ=            -83.0194
   XY=             -1.2844   XZ=              0.7432   YZ=             -0.2829

 Normal termination of Gaussian 16 at Wed May  5 16:50:16 2021.
