 Gaussian 16, Revision A.03,
 Gaussian 16:  EM64L-G16RevA.03 25-Dec-2016

 -------------
 #p 6-31g* mp2
 -------------

 ------------------------------------------------------
 Input file generated by CHIRIPA (05-May-2021 14:55:20)
 ------------------------------------------------------
 Symbolic Z-matrix:
 Charge =  0 Multiplicity = 1

                         Standard orientation:
 ---------------------------------------------------------------------
 Center     Atomic      Atomic             Coordinates (Angstroms)
 Number     Number       Type             X           Y           Z
 ---------------------------------------------------------------------
      1          6           0       -5.058802    0.380141   -0.362012
      2          6           0       -4.555109    0.342197    0.942356
      3          6           0       -3.263929   -0.132579    1.191334
      4          6           0       -2.500411   -0.563499    0.107527
      5          6           0       -2.974018   -0.538116   -1.203328
      6          6           0       -4.268043   -0.059362   -1.428810
      7          1           0       -6.062927    0.750503   -0.546298
      8          1           0       -5.166972    0.682876    1.772781
      9          1           0       -2.849074   -0.172915    2.191177
     10          1           0       -2.340367   -0.884512   -2.010740
     11          1           0       -4.656606   -0.031043   -2.442843
     12          7           0       -1.131990   -1.068228    0.358671
     13          8           0       -0.479352   -1.442137   -0.613384
     14          8           0       -0.737972   -1.080369    1.522819
     15          6           0        3.739449   -0.068708   -0.316229
     16          6           0        5.120933   -0.426557    0.232797
     17          6           0        5.607915   -1.796857   -0.239349
     18          1           0        3.019487   -0.840406   -0.011137
     19          1           0        3.772531   -0.088740   -1.414363
     20          1           0        5.085609   -0.404505    1.329557
     21          1           0        5.837652    0.346183   -0.073476
     22          1           0        5.671570   -1.827648   -1.331869
     23          1           0        4.915255   -2.582600    0.079136
     24          1           0        6.597315   -2.032486    0.164909
     25          6           0        3.238965    1.298309    0.146923
     26          6           0        1.857481    1.656159   -0.402103
     27          6           0        1.370499    3.026459    0.070043
     28          1           0        3.205882    1.318341    1.245057
     29          1           0        3.958927    2.070008   -0.158169
     30          1           0        1.140762    0.883419   -0.095830
     31          1           0        1.892805    1.634106   -1.498862
     32          1           0        2.063158    3.812202   -0.248441
     33          1           0        1.306843    3.057249    1.162563
     34          1           0        0.381098    3.262088   -0.334216
 ---------------------------------------------------------------------

 SCF Done:  E(RHF) =  -669.536264520     A.U. after   15 cycles
 E2 =    -0.2091740271D+01 EUMP2 =    -0.67162800479128D+03

 The electronic state is 1-A.
 Alpha  occ. eigenvalues --  -20.61010 -20.60991 -15.86012 -11.31313 -11.27874
 Alpha  occ. eigenvalues --  -11.27870 -11.27609 -11.26873 -11.26864 -11.20592
 Alpha  occ. eigenvalues --  -11.20510 -11.20358 -11.20312 -11.20148 -11.20092
 Alpha  occ. eigenvalues --   -1.60063  -1.39614  -1.19480  -1.08891  -1.07335
 Alpha  occ. eigenvalues --   -1.04871  -1.02560  -0.95736  -0.95027  -0.86272
 Alpha  occ. eigenvalues --   -0.86046  -0.82571  -0.78611  -0.77628  -0.77122
 Alpha  occ. eigenvalues --   -0.72233  -0.71391  -0.70589  -0.65134  -0.64874
 Alpha  occ. eigenvalues --   -0.63950  -0.62218  -0.59953  -0.58406  -0.56637
 Alpha  occ. eigenvalues --   -0.55379  -0.54310  -0.53206  -0.52962  -0.51770
 Alpha  occ. eigenvalues --   -0.51454  -0.49055  -0.49003  -0.48929  -0.46939
 Alpha  occ. eigenvalues --   -0.45628  -0.45075  -0.44660  -0.44467  -0.42780
 Alpha  occ. eigenvalues --   -0.37456  -0.36469
 Alpha virt. eigenvalues --    0.04862   0.11187   0.16358   0.21318   0.23948
 Alpha virt. eigenvalues --    0.25168   0.27243   0.27708   0.28143   0.28632
 Alpha virt. eigenvalues --    0.28971   0.30893   0.32288   0.32423   0.32596

 Mulliken charges:
               1
     1  C   -0.170386
     2  C   -0.218637
     3  C   -0.170581
     4  C    0.158603
     5  C   -0.170538
     6  C   -0.218698
     7  H    0.226129
     8  H    0.223940
     9  H    0.275845
    10  H    0.276157
    11  H    0.223953
    12  N    0.486522
    13  O   -0.458082
    14  O   -0.460190
    15  C   -0.302247
    16  C   -0.299039
    17  C   -0.475367
    18  H    0.168448
    19  H    0.145867
    20  H    0.151188
    21  H    0.147293
    22  H    0.153107
    23  H    0.158650
    24  H    0.156208
    25  C   -0.296846
    26  C   -0.304392
    27  C   -0.475574
    28  H    0.149801
    29  H    0.143689
    30  H    0.166732
    31  H    0.148124
    32  H    0.152081
    33  H    0.154816
    34  H    0.153423
 Sum of Mulliken charges =  -0.00000

 Dipole moment (field-independent basis, Debye):
    X=             -5.0808    Y=              1.5716    Z=             -0.8495  Tot=              5.3857
 Quadrupole moment (field-independent basis, Debye-Ang):
   XX=            -72.1109   YY=            -98.8347   ZZ=            -89.5889
   XY=             -1.6646   XZ=              0.9987   YZ=              1.1031

 Normal termination of Gaussian 16 at Thu May  6 09:15:07 2021.
