 Gaussian 16, Revision A.03,
 Gaussian 16:  EM64L-G16RevA.03 25-Dec-2016

 -------------
 #p 6-31g* mp2
 -------------

 ------------------------------------------------------
 Input file generated by CHIRIPA (05-May-2021 14:53:17)
 ------------------------------------------------------
 Symbolic Z-matrix:
 Charge =  0 Multiplicity = 1

                         Standard orientation:
 ---------------------------------------------------------------------
 Center     Atomic      Atomic             Coordinates (Angstroms)
 Number     Number       Type             X           Y           Z
 ---------------------------------------------------------------------
      1          6           0       -4.874270   -0.558051    0.007085
      2          6           0       -5.743076    0.596993   -0.491948
      3          6           0       -7.073997    0.125136   -1.078287
      4          1           0       -4.685248   -1.251756   -0.823571
      5          1           0       -5.430504   -1.124381    0.766867
      6          1           0       -5.184843    1.161802   -1.249565
      7          1           0       -5.929892    1.288129    0.339946
      8          1           0       -7.654184   -0.420298   -0.326965
      9          1           0       -6.904902   -0.547343   -1.925506
     10          1           0       -7.679211    0.966959   -1.428873
     11          6           0       -3.540442   -0.102274    0.596065
     12          6           0       -2.671635   -1.257318    1.095097
     13          6           0       -1.340714   -0.785461    1.681437
     14          1           0       -2.984208    0.464056   -0.163717
     15          1           0       -3.729464    0.591431    1.426720
     16          1           0       -2.484819   -1.948454    0.263204
     17          1           0       -3.229868   -1.822127    1.852714
     18          1           0       -1.509809   -0.112982    2.528656
     19          1           0       -0.760527   -0.240027    0.930114
     20          1           0       -0.735500   -1.627284    2.032023
     21          6           0        5.072537   -1.519919   -0.365935
     22          6           0        5.303727   -0.347621    0.361245
     23          6           0        4.321585    0.644192    0.440306
     24          6           0        3.114377    0.429817   -0.223005
     25          6           0        2.854050   -0.727366   -0.955431
     26          6           0        3.850591   -1.705723   -1.020798
     27          1           0        5.841082   -2.285157   -0.422033
     28          1           0        6.251758   -0.200619    0.870823
     29          1           0        4.474104    1.561281    0.996277
     30          1           0        1.899018   -0.845395   -1.452826
     31          1           0        3.668272   -2.615145   -1.586267
     32          7           0        2.067006    1.472681   -0.146556
     33          8           0        1.011885    1.259745   -0.739867
     34          8           0        2.321028    2.483269    0.505227
 ---------------------------------------------------------------------

 SCF Done:  E(RHF) =  -669.536450684     A.U. after   15 cycles
 E2 =    -0.2090998761D+01 EUMP2 =    -0.67162744944456D+03

 The electronic state is 1-A.
 Alpha  occ. eigenvalues --  -20.60969 -20.60956 -15.85980 -11.31272 -11.27836
 Alpha  occ. eigenvalues --  -11.27832 -11.27572 -11.26840 -11.26831 -11.21048
 Alpha  occ. eigenvalues --  -11.20935 -11.20795 -11.20632 -11.20590 -11.20180
 Alpha  occ. eigenvalues --   -1.60012  -1.39572  -1.19440  -1.08851  -1.07776
 Alpha  occ. eigenvalues --   -1.04835  -1.02891  -0.95698  -0.95331  -0.86350
 Alpha  occ. eigenvalues --   -0.86237  -0.82535  -0.78965  -0.77605  -0.77559
 Alpha  occ. eigenvalues --   -0.72209  -0.71316  -0.70554  -0.65100  -0.64840
 Alpha  occ. eigenvalues --   -0.64405  -0.62184  -0.60287  -0.58718  -0.56944
 Alpha  occ. eigenvalues --   -0.55344  -0.54606  -0.53165  -0.52929  -0.52059
 Alpha  occ. eigenvalues --   -0.51746  -0.49276  -0.48970  -0.48951  -0.47285
 Alpha  occ. eigenvalues --   -0.46036  -0.45180  -0.45098  -0.44748  -0.43152
 Alpha  occ. eigenvalues --   -0.37417  -0.36433
 Alpha virt. eigenvalues --    0.04903   0.11214   0.16365   0.21308   0.23506
 Alpha virt. eigenvalues --    0.24915   0.27150   0.27356   0.27957   0.28284
 Alpha virt. eigenvalues --    0.28789   0.30774   0.31901   0.32295   0.32422

 Mulliken charges:
               1
     1  C   -0.297773
     2  C   -0.299576
     3  C   -0.475328
     4  H    0.147324
     5  H    0.147036
     6  H    0.154042
     7  H    0.152012
     8  H    0.153816
     9  H    0.153886
    10  H    0.159380
    11  C   -0.300050
    12  C   -0.297455
    13  C   -0.487048
    14  H    0.159220
    15  H    0.149625
    16  H    0.146948
    17  H    0.148013
    18  H    0.155043
    19  H    0.173982
    20  H    0.151315
    21  C   -0.170527
    22  C   -0.218586
    23  C   -0.170692
    24  C    0.158907
    25  C   -0.170342
    26  C   -0.218576
    27  H    0.225932
    28  H    0.223759
    29  H    0.275797
    30  H    0.275564
    31  H    0.223780
    32  N    0.488520
    33  O   -0.460172
    34  O   -0.457776
 Sum of Mulliken charges =  -0.00000

 Dipole moment (field-independent basis, Debye):
    X=              3.9191    Y=             -3.5169    Z=             -0.3386  Tot=              5.2766
 Quadrupole moment (field-independent basis, Debye-Ang):
   XX=            -71.6720   YY=            -97.0071   ZZ=            -93.1899
   XY=             -8.7022   XZ=             -0.4023   YZ=              2.8240

 Normal termination of Gaussian 16 at Thu May  6 12:16:57 2021.
