 Gaussian 16, Revision A.03,
 Gaussian 16:  EM64L-G16RevA.03 25-Dec-2016

 -------------
 #p 6-31g* mp2
 -------------

 ------------------------------------------------------
 Input file generated by CHIRIPA (05-May-2021 14:51:09)
 ------------------------------------------------------
 Symbolic Z-matrix:
 Charge =  0 Multiplicity = 1

                         Standard orientation:
 ---------------------------------------------------------------------
 Center     Atomic      Atomic             Coordinates (Angstroms)
 Number     Number       Type             X           Y           Z
 ---------------------------------------------------------------------
      1          6           0       -2.400850    0.865669    0.057269
      2          6           0       -2.457095    2.390249   -0.045090
      3          6           0       -1.239577    3.070149    0.581952
      4          1           0       -2.322642    0.578165    1.114704
      5          1           0       -1.485720    0.505736   -0.433016
      6          1           0       -3.372539    2.747092    0.444033
      7          1           0       -2.535372    2.674151   -1.102392
      8          1           0       -0.318759    2.742475    0.088673
      9          1           0       -1.160683    2.815830    1.643884
     10          1           0       -1.300404    4.159667    0.497634
     11          6           0       -3.611075    0.171645   -0.565159
     12          6           0       -3.554830   -1.352935   -0.462800
     13          6           0       -4.772348   -2.032834   -1.089842
     14          1           0       -4.526205    0.531578   -0.074874
     15          1           0       -3.689283    0.459150   -1.622594
     16          1           0       -3.476553   -1.636837    0.594502
     17          1           0       -2.639386   -1.709777   -0.951923
     18          1           0       -4.851242   -1.778516   -2.151774
     19          1           0       -5.693166   -1.705160   -0.596562
     20          1           0       -4.711521   -3.122352   -1.005524
     21          6           0        2.434149   -0.345825    0.729960
     22          6           0        1.559774   -1.547720    1.088992
     23          6           0        0.420163   -1.186027    2.042018
     24          1           0        2.847953    0.086726    1.651161
     25          1           0        1.806450    0.432208    0.273832
     26          1           0        2.189176   -2.323804    1.543045
     27          1           0        1.148158   -1.977575    0.166815
     28          1           0       -0.231505   -0.429172    1.593577
     29          1           0        0.815428   -0.777366    2.977626
     30          1           0       -0.192248   -2.059848    2.285430
     31          6           0        3.577776   -0.691489   -0.222070
     32          6           0        4.452151    0.510404   -0.581103
     33          6           0        5.591762    0.148713   -1.534128
     34          1           0        4.205476   -1.469522    0.234058
     35          1           0        3.163973   -1.124041   -1.143271
     36          1           0        4.863767    0.940261    0.341075
     37          1           0        3.822750    1.286489   -1.035155
     38          1           0        5.196497   -0.259949   -2.469737
     39          1           0        6.243429   -0.608143   -1.085687
     40          1           0        6.204174    1.022534   -1.777539
 ---------------------------------------------------------------------

 SCF Done:  E(RHF) =  -470.732797051     A.U. after   11 cycles
 E2 =    -0.1583753763D+01 EUMP2 =    -0.47231655081432D+03

 The electronic state is 1-A.
 Alpha  occ. eigenvalues --  -11.21656 -11.21625 -11.21587 -11.21527 -11.21459
 Alpha  occ. eigenvalues --  -11.21398 -11.21375 -11.21313 -11.21124 -11.21091
 Alpha  occ. eigenvalues --  -11.21061 -11.20858  -1.08495  -1.08383  -1.03576
 Alpha  occ. eigenvalues --   -1.03467  -0.96038  -0.95907  -0.87058  -0.86924
 Alpha  occ. eigenvalues --   -0.79669  -0.79526  -0.78365  -0.78149  -0.65124
 Alpha  occ. eigenvalues --   -0.65015  -0.60968  -0.60885  -0.59418  -0.59266
 Alpha  occ. eigenvalues --   -0.57694  -0.57491  -0.55314  -0.55220  -0.52722
 Alpha  occ. eigenvalues --   -0.52608  -0.52546  -0.52250  -0.49973  -0.49881
 Alpha  occ. eigenvalues --   -0.48081  -0.47775  -0.46694  -0.46663  -0.45957
 Alpha  occ. eigenvalues --   -0.45754  -0.45710  -0.45305  -0.43831  -0.43731
 Alpha virt. eigenvalues --    0.20564   0.23186   0.23618   0.24314   0.25420
 Alpha virt. eigenvalues --    0.26237   0.26983   0.27814   0.28521   0.29564
 Alpha virt. eigenvalues --    0.30807   0.31146   0.31459   0.31807   0.32099

 Mulliken charges:
               1
     1  C   -0.303962
     2  C   -0.299058
     3  C   -0.478108
     4  H    0.154348
     5  H    0.150336
     6  H    0.152256
     7  H    0.151893
     8  H    0.155925
     9  H    0.156331
    10  H    0.160883
    11  C   -0.297471
    12  C   -0.300050
    13  C   -0.475737
    14  H    0.149745
    15  H    0.149569
    16  H    0.152886
    17  H    0.151747
    18  H    0.155121
    19  H    0.155267
    20  H    0.160425
    21  C   -0.300122
    22  C   -0.298902
    23  C   -0.484907
    24  H    0.149923
    25  H    0.150262
    26  H    0.151471
    27  H    0.150885
    28  H    0.167100
    29  H    0.153532
    30  H    0.158876
    31  C   -0.298211
    32  C   -0.299522
    33  C   -0.475670
    34  H    0.149654
    35  H    0.149195
    36  H    0.152108
    37  H    0.151532
    38  H    0.155017
    39  H    0.155213
    40  H    0.160220
 Sum of Mulliken charges =  -0.00000

 Dipole moment (field-independent basis, Debye):
    X=             -0.0655    Y=              0.0371    Z=             -0.0011  Tot=              0.0753
 Quadrupole moment (field-independent basis, Debye-Ang):
   XX=            -85.5391   YY=            -85.1895   ZZ=            -84.0304
   XY=             -0.5685   XZ=              0.2566   YZ=             -0.3799

 Normal termination of Gaussian 16 at Wed May  5 23:00:11 2021.
