 Gaussian 16, Revision A.03,
 Gaussian 16:  EM64L-G16RevA.03 25-Dec-2016

 -------------
 #p 6-31g* mp2
 -------------

 ------------------------------------------------------
 Input file generated by CHIRIPA (05-May-2021 14:53:17)
 ------------------------------------------------------
 Symbolic Z-matrix:
 Charge =  0 Multiplicity = 1

                         Standard orientation:
 ---------------------------------------------------------------------
 Center     Atomic      Atomic             Coordinates (Angstroms)
 Number     Number       Type             X           Y           Z
 ---------------------------------------------------------------------
      1          6           0       -3.212551   -0.537512    0.067304
      2          6           0       -3.122318   -1.836875   -0.733631
      3          6           0       -3.344040   -3.079653    0.129002
      4          1           0       -2.470192   -0.560921    0.876810
      5          1           0       -4.198485   -0.479549    0.548935
      6          1           0       -2.137355   -1.891712   -1.214731
      7          1           0       -3.864847   -1.810288   -1.541443
      8          1           0       -4.333032   -3.051800    0.597746
      9          1           0       -2.595724   -3.133686    0.926314
     10          1           0       -3.275207   -3.997210   -0.463628
     11          6           0       -2.993092    0.713689   -0.781261
     12          6           0       -3.083325    2.013052    0.019674
     13          6           0       -2.861603    3.255830   -0.842960
     14          1           0       -2.007157    0.655726   -1.262892
     15          1           0       -3.735451    0.737098   -1.590768
     16          1           0       -2.340795    1.986465    0.827486
     17          1           0       -4.068288    2.067888    0.500774
     18          1           0       -3.609919    3.309862   -1.640271
     19          1           0       -1.872611    3.227977   -1.311703
     20          1           0       -2.930436    4.173387   -0.250329
     21          6           0        4.443321   -0.197921   -1.228398
     22          6           0        4.187075    0.968286   -0.499824
     23          6           0        3.071255    1.051020    0.338418
     24          6           0        2.228866   -0.056339    0.424608
     25          6           0        2.457291   -1.232159   -0.288523
     26          6           0        3.579135   -1.292491   -1.120614
     27          1           0        5.312457   -0.253488   -1.877176
     28          1           0        4.856491    1.819898   -0.581570
     29          1           0        2.849160    1.941592    0.913722
     30          1           0        1.771836   -2.064706   -0.186374
     31          1           0        3.775653   -2.199468   -1.685254
     32          7           0        1.044409    0.019391    1.308761
     33          8           0        0.317585   -0.970024    1.367253
     34          8           0        0.865284    1.066728    1.926528
 ---------------------------------------------------------------------

 SCF Done:  E(RHF) =  -669.536867338     A.U. after   15 cycles
 E2 =    -0.2091926255D+01 EUMP2 =    -0.67162879359320D+03

 The electronic state is 1-A.
 Alpha  occ. eigenvalues --  -20.61135 -20.61127 -15.86141 -11.31393 -11.27944
 Alpha  occ. eigenvalues --  -11.27940 -11.27669 -11.26935 -11.26925 -11.20599
 Alpha  occ. eigenvalues --  -11.20525 -11.20371 -11.20302 -11.20097 -11.19981
 Alpha  occ. eigenvalues --   -1.60177  -1.39735  -1.19552  -1.08970  -1.07324
 Alpha  occ. eigenvalues --   -1.04936  -1.02529  -0.95822  -0.94990  -0.86340
 Alpha  occ. eigenvalues --   -0.86013  -0.82658  -0.78593  -0.77721  -0.77123
 Alpha  occ. eigenvalues --   -0.72363  -0.71486  -0.70659  -0.65210  -0.64939
 Alpha  occ. eigenvalues --   -0.63926  -0.62283  -0.59918  -0.58367  -0.56607
 Alpha  occ. eigenvalues --   -0.55444  -0.54274  -0.53271  -0.53026  -0.51735
 Alpha  occ. eigenvalues --   -0.51428  -0.49180  -0.49119  -0.48889  -0.46928
 Alpha  occ. eigenvalues --   -0.45638  -0.45143  -0.44706  -0.44421  -0.42754
 Alpha  occ. eigenvalues --   -0.37525  -0.36533
 Alpha virt. eigenvalues --    0.04767   0.11120   0.16256   0.21199   0.23843
 Alpha virt. eigenvalues --    0.25151   0.27098   0.27472   0.28382   0.28704
 Alpha virt. eigenvalues --    0.28997   0.30901   0.31851   0.32562   0.32747

 Mulliken charges:
               1
     1  C   -0.309741
     2  C   -0.294861
     3  C   -0.478014
     4  H    0.178995
     5  H    0.143923
     6  H    0.146898
     7  H    0.145637
     8  H    0.152625
     9  H    0.165034
    10  H    0.153051
    11  C   -0.295457
    12  C   -0.304344
    13  C   -0.474066
    14  H    0.142956
    15  H    0.143920
    16  H    0.166914
    17  H    0.149285
    18  H    0.151456
    19  H    0.151084
    20  H    0.158554
    21  C   -0.170299
    22  C   -0.218577
    23  C   -0.170588
    24  C    0.157956
    25  C   -0.170835
    26  C   -0.218519
    27  H    0.226462
    28  H    0.224258
    29  H    0.276120
    30  H    0.276085
    31  H    0.224341
    32  N    0.489036
    33  O   -0.460405
    34  O   -0.458883
 Sum of Mulliken charges =  -0.00000

 Dipole moment (field-independent basis, Debye):
    X=              4.5087    Y=             -0.2692    Z=             -2.8607  Tot=              5.3465
 Quadrupole moment (field-independent basis, Debye-Ang):
   XX=            -76.2073   YY=            -92.0492   ZZ=            -98.1602
   XY=              0.2716   XZ=             -5.5272   YZ=              2.0056

 Normal termination of Gaussian 16 at Thu May  6 12:16:39 2021.
