 Gaussian 16, Revision A.03,
 Gaussian 16:  EM64L-G16RevA.03 25-Dec-2016

 -------------
 #p 6-31g* mp2
 -------------

 ------------------------------------------------------
 Input file generated by CHIRIPA (05-May-2021 14:53:16)
 ------------------------------------------------------
 Symbolic Z-matrix:
 Charge =  0 Multiplicity = 1

                         Standard orientation:
 ---------------------------------------------------------------------
 Center     Atomic      Atomic             Coordinates (Angstroms)
 Number     Number       Type             X           Y           Z
 ---------------------------------------------------------------------
      1          6           0        5.681892   -0.533256   -0.005664
      2          6           0        7.020247    0.127487   -0.337641
      3          6           0        8.187114   -0.860433   -0.322509
      4          1           0        5.749678   -1.007734    0.982880
      5          1           0        5.490139   -1.339702   -0.726961
      6          1           0        7.208762    0.933354    0.383231
      7          1           0        6.949206    0.600612   -1.325428
      8          1           0        8.025521   -1.658724   -1.054096
      9          1           0        8.286552   -1.324091    0.664270
     10          1           0        9.134086   -0.366947   -0.562461
     11          6           0        4.505731    0.441552   -0.016831
     12          6           0        3.167376   -0.219190    0.315146
     13          6           0        2.000509    0.768730    0.300014
     14          1           0        4.697484    1.247999    0.704466
     15          1           0        4.437945    0.916031   -1.005375
     16          1           0        3.238417   -0.692315    1.302932
     17          1           0        2.978861   -1.025057   -0.405726
     18          1           0        1.901071    1.232388   -0.686765
     19          1           0        2.162102    1.567021    1.031601
     20          1           0        1.053537    0.275243    0.539966
     21          6           0       -2.658128    2.176984    0.196447
     22          6           0       -3.918017    2.182915   -0.411144
     23          6           0       -4.659043    1.002474   -0.520628
     24          6           0       -4.107290   -0.171178   -0.009355
     25          6           0       -2.854785   -0.209362    0.601433
     26          6           0       -2.131461    0.982970    0.699908
     27          1           0       -2.089357    3.098598    0.277220
     28          1           0       -4.329532    3.108724   -0.803032
     29          1           0       -5.636837    0.978587   -0.986210
     30          1           0       -2.470901   -1.147822    0.982673
     31          1           0       -1.153269    0.975379    1.172273
     32          7           0       -4.882410   -1.427152   -0.119433
     33          8           0       -4.374081   -2.447997    0.338948
     34          8           0       -5.983603   -1.366957   -0.662008
 ---------------------------------------------------------------------

 SCF Done:  E(RHF) =  -669.535499463     A.U. after   15 cycles
 E2 =    -0.2090725071D+01 EUMP2 =    -0.67162622453475D+03

 The electronic state is 1-A.
 Alpha  occ. eigenvalues --  -20.60730 -20.60725 -15.85783 -11.31141 -11.27712
 Alpha  occ. eigenvalues --  -11.27703 -11.27440 -11.26725 -11.26677 -11.22257
 Alpha  occ. eigenvalues --  -11.22032 -11.21930 -11.21904 -11.21759 -11.21329
 Alpha  occ. eigenvalues --   -1.59806  -1.39359  -1.19311  -1.08918  -1.08705
 Alpha  occ. eigenvalues --   -1.04715  -1.04058  -0.96533  -0.95542  -0.87563
 Alpha  occ. eigenvalues --   -0.86107  -0.82378  -0.80128  -0.78699  -0.77427
 Alpha  occ. eigenvalues --   -0.72001  -0.71129  -0.70417  -0.65540  -0.64962
 Alpha  occ. eigenvalues --   -0.64743  -0.62103  -0.61446  -0.59908  -0.58123
 Alpha  occ. eigenvalues --   -0.55808  -0.55213  -0.53408  -0.53029  -0.52975
 Alpha  occ. eigenvalues --   -0.52622  -0.50459  -0.48759  -0.48757  -0.48439
 Alpha  occ. eigenvalues --   -0.47136  -0.46252  -0.46151  -0.44767  -0.44305
 Alpha  occ. eigenvalues --   -0.37286  -0.36311
 Alpha virt. eigenvalues --    0.05103   0.11303   0.16554   0.20617   0.22495
 Alpha virt. eigenvalues --    0.23817   0.25981   0.26212   0.27017   0.28172
 Alpha virt. eigenvalues --    0.28476   0.30204   0.30879   0.31490   0.32319

 Mulliken charges:
               1
     1  C   -0.298845
     2  C   -0.299972
     3  C   -0.476002
     4  H    0.150482
     5  H    0.151038
     6  H    0.151901
     7  H    0.152288
     8  H    0.156038
     9  H    0.155699
    10  H    0.161077
    11  C   -0.299158
    12  C   -0.299345
    13  C   -0.480322
    14  H    0.149419
    15  H    0.150418
    16  H    0.153384
    17  H    0.155626
    18  H    0.158587
    19  H    0.153859
    20  H    0.154246
    21  C   -0.171962
    22  C   -0.218585
    23  C   -0.171091
    24  C    0.158618
    25  C   -0.172596
    26  C   -0.221568
    27  H    0.226024
    28  H    0.223180
    29  H    0.275418
    30  H    0.275078
    31  H    0.230149
    32  N    0.488109
    33  O   -0.460570
    34  O   -0.460620
 Sum of Mulliken charges =  -0.00000

 Dipole moment (field-independent basis, Debye):
    X=              2.9163    Y=              4.4230    Z=              0.3500  Tot=              5.3095
 Quadrupole moment (field-independent basis, Debye-Ang):
   XX=           -115.0559   YY=            -95.8394   ZZ=            -93.4460
   XY=            -20.4537   XZ=              0.4617   YZ=             -1.2823

 Normal termination of Gaussian 16 at Wed May  5 23:33:44 2021.
