 Gaussian 16, Revision A.03,
 Gaussian 16:  EM64L-G16RevA.03 25-Dec-2016

 -------------
 #p 6-31g* mp2
 -------------

 ------------------------------------------------------
 Input file generated by CHIRIPA (05-May-2021 14:57:25)
 ------------------------------------------------------
 Symbolic Z-matrix:
 Charge =  0 Multiplicity = 1

                         Standard orientation:
 ---------------------------------------------------------------------
 Center     Atomic      Atomic             Coordinates (Angstroms)
 Number     Number       Type             X           Y           Z
 ---------------------------------------------------------------------
      1          6           0       -4.285725   -1.486551    0.495267
      2          6           0       -3.539797   -1.563248   -0.685508
      3          6           0       -2.695058   -0.514478   -1.061071
      4          6           0       -2.620137    0.601095   -0.228500
      5          6           0       -3.350621    0.707174    0.954052
      6          6           0       -4.188926   -0.353583    1.309843
      7          1           0       -4.939439   -2.305917    0.779334
      8          1           0       -3.612981   -2.441903   -1.320059
      9          1           0       -2.106377   -0.547680   -1.969790
     10          1           0       -3.256693    1.595955    1.566149
     11          1           0       -4.767049   -0.291275    2.227414
     12          7           0       -1.729255    1.717725   -0.615626
     13          8           0       -1.680956    2.689660    0.135139
     14          8           0       -1.096150    1.599862   -1.662489
     15          6           0        5.153196    0.401689    0.126322
     16          6           0        4.383018    0.543548    1.285296
     17          6           0        3.059770    0.093548    1.317938
     18          6           0        2.536273   -0.496214    0.168408
     19          6           0        3.278204   -0.651790   -1.001474
     20          6           0        4.599308   -0.194476   -1.011359
     21          1           0        6.180293    0.754101    0.109804
     22          1           0        4.810552    1.006148    2.170316
     23          1           0        2.441097    0.190807    2.201795
     24          1           0        2.824384   -1.117037   -1.868082
     25          1           0        5.195088   -0.305962   -1.912837
     26          7           0        1.136545   -0.976480    0.190918
     27          8           0        0.698673   -1.492596   -0.835010
     28          8           0        0.503814   -0.827704    1.234065
 ---------------------------------------------------------------------

 SCF Done:  E(RHF) =  -868.339776915     A.U. after   16 cycles
 E2 =    -0.2600396273D+01 EUMP2 =    -0.87094017318785D+03

 The electronic state is 1-A.
 Alpha  occ. eigenvalues --  -20.60721 -20.60706 -20.59695 -20.59684 -15.85731
 Alpha  occ. eigenvalues --  -15.84728 -11.30866 -11.29716 -11.27427 -11.27420
 Alpha  occ. eigenvalues --  -11.27164 -11.26413 -11.26403 -11.26392 -11.26251
 Alpha  occ. eigenvalues --  -11.26135 -11.25366 -11.25262  -1.59765  -1.58768
 Alpha  occ. eigenvalues --   -1.39327  -1.38331  -1.19026  -1.17907  -1.08474
 Alpha  occ. eigenvalues --   -1.07406  -1.04409  -1.03293  -0.95349  -0.94293
 Alpha  occ. eigenvalues --   -0.85822  -0.84735  -0.82199  -0.81157  -0.77260
 Alpha  occ. eigenvalues --   -0.76212  -0.71984  -0.71143  -0.70971  -0.70165
 Alpha  occ. eigenvalues --   -0.69977  -0.69115  -0.64701  -0.64433  -0.63617
 Alpha  occ. eigenvalues --   -0.63368  -0.61768  -0.60674  -0.54951  -0.53912
 Alpha  occ. eigenvalues --   -0.52733  -0.52517  -0.51627  -0.51445  -0.48729
 Alpha  occ. eigenvalues --   -0.48673  -0.47734  -0.47707  -0.44809  -0.43793
 Alpha  occ. eigenvalues --   -0.37003  -0.35990  -0.35874  -0.34811
 Alpha virt. eigenvalues --    0.05268   0.06338   0.11668   0.12822   0.16789
 Alpha virt. eigenvalues --    0.17861   0.21741   0.22692   0.27657   0.28535
 Alpha virt. eigenvalues --    0.28669   0.29581   0.31281   0.32167   0.32845

 Mulliken charges:
               1
     1  C   -0.169072
     2  C   -0.218130
     3  C   -0.151134
     4  C    0.162327
     5  C   -0.167152
     6  C   -0.218906
     7  H    0.220112
     8  H    0.219578
     9  H    0.277119
    10  H    0.269921
    11  H    0.217191
    12  N    0.487172
    13  O   -0.466717
    14  O   -0.464922
    15  C   -0.169783
    16  C   -0.218290
    17  C   -0.168472
    18  C    0.161512
    19  C   -0.166983
    20  C   -0.218427
    21  H    0.224985
    22  H    0.222890
    23  H    0.274983
    24  H    0.274906
    25  H    0.222834
    26  N    0.489767
    27  O   -0.463986
    28  O   -0.463323
 Sum of Mulliken charges =  -0.00000

 Dipole moment (field-independent basis, Debye):
    X=              2.0653    Y=             -2.3493    Z=              1.2061  Tot=              3.3525
 Quadrupole moment (field-independent basis, Debye-Ang):
   XX=            -65.0786   YY=           -111.3281   ZZ=            -98.0051
   XY=              9.9456   XZ=             -3.8763   YZ=              6.2578

 Normal termination of Gaussian 16 at Thu May  6 01:58:41 2021.
