 Gaussian 16, Revision A.03,
 Gaussian 16:  EM64L-G16RevA.03 25-Dec-2016

 -------------
 #p 6-31g* mp2
 -------------

 ------------------------------------------------------
 Input file generated by CHIRIPA (05-May-2021 14:51:08)
 ------------------------------------------------------
 Symbolic Z-matrix:
 Charge =  0 Multiplicity = 1

                         Standard orientation:
 ---------------------------------------------------------------------
 Center     Atomic      Atomic             Coordinates (Angstroms)
 Number     Number       Type             X           Y           Z
 ---------------------------------------------------------------------
      1          6           0       -3.087303    0.478995    0.289708
      2          6           0       -3.442857    0.603684   -1.192189
      3          6           0       -4.414408    1.750542   -1.472545
      4          1           0       -4.008350    0.331344    0.870067
      5          1           0       -2.648469    1.425277    0.635208
      6          1           0       -3.879617   -0.343018   -1.535134
      7          1           0       -2.520838    0.750863   -1.769108
      8          1           0       -3.983307    2.706337   -1.157569
      9          1           0       -5.349807    1.606241   -0.922266
     10          1           0       -4.655001    1.821530   -2.537879
     11          6           0       -2.116889   -0.663071    0.585867
     12          6           0       -1.761334   -0.787761    2.067764
     13          6           0       -0.789784   -1.934619    2.348120
     14          1           0       -2.555722   -1.609354    0.240367
     15          1           0       -1.195842   -0.515421    0.005508
     16          1           0       -2.683353   -0.934940    2.644683
     17          1           0       -1.324574    0.158941    2.410709
     18          1           0        0.145615   -1.790318    1.797841
     19          1           0       -1.220884   -2.890414    2.033144
     20          1           0       -0.549191   -2.005607    3.413454
     21          6           0        2.114488   -0.353000   -0.821989
     22          6           0        2.616620   -1.785557   -1.005379
     23          6           0        1.630156   -2.663666   -1.775838
     24          1           0        1.150754   -0.373668   -0.294985
     25          1           0        1.921569    0.089685   -1.809009
     26          1           0        2.809850   -2.224939   -0.018353
     27          1           0        3.579363   -1.761464   -1.531838
     28          1           0        1.444813   -2.251354   -2.772958
     29          1           0        0.670928   -2.717462   -1.250872
     30          1           0        2.009094   -3.683448   -1.895458
     31          6           0        3.089704    0.537077   -0.053586
     32          6           0        2.587572    1.969634    0.129804
     33          6           0        3.574036    2.847742    0.900262
     34          1           0        3.282623    0.094392    0.933434
     35          1           0        4.053438    0.557745   -0.580590
     36          1           0        1.624828    1.945541    0.656264
     37          1           0        2.394341    2.409016   -0.857223
     38          1           0        4.533264    2.901539    0.375297
     39          1           0        3.759378    2.435431    1.897383
     40          1           0        3.195097    3.867525    1.019884
 ---------------------------------------------------------------------

 SCF Done:  E(RHF) =  -470.733216628     A.U. after   11 cycles
 E2 =    -0.1583998428D+01 EUMP2 =    -0.47231721505536D+03

 The electronic state is 1-A.
 Alpha  occ. eigenvalues --  -11.21662 -11.21659 -11.21622 -11.21595 -11.21447
 Alpha  occ. eigenvalues --  -11.21423 -11.21387 -11.21363 -11.21150 -11.21110
 Alpha  occ. eigenvalues --  -11.21066 -11.21050  -1.08499  -1.08438  -1.03579
 Alpha  occ. eigenvalues --   -1.03544  -0.96014  -0.96004  -0.87030  -0.87021
 Alpha  occ. eigenvalues --   -0.79655  -0.79595  -0.78409  -0.78165  -0.65324
 Alpha  occ. eigenvalues --   -0.64906  -0.61056  -0.60864  -0.59410  -0.59342
 Alpha  occ. eigenvalues --   -0.57633  -0.57605  -0.55312  -0.55287  -0.52708
 Alpha  occ. eigenvalues --   -0.52695  -0.52464  -0.52406  -0.49961  -0.49957
 Alpha  occ. eigenvalues --   -0.48054  -0.47874  -0.46827  -0.46599  -0.46246
 Alpha  occ. eigenvalues --   -0.45782  -0.45767  -0.45128  -0.43818  -0.43811
 Alpha virt. eigenvalues --    0.19371   0.23017   0.23670   0.24607   0.25693
 Alpha virt. eigenvalues --    0.26555   0.26918   0.27933   0.28237   0.29811
 Alpha virt. eigenvalues --    0.30891   0.31568   0.31688   0.31749   0.32134

 Mulliken charges:
               1
     1  C   -0.297576
     2  C   -0.299910
     3  C   -0.475759
     4  H    0.149705
     5  H    0.149427
     6  H    0.151994
     7  H    0.152672
     8  H    0.155233
     9  H    0.155099
    10  H    0.160296
    11  C   -0.308198
    12  C   -0.299266
    13  C   -0.479949
    14  H    0.149715
    15  H    0.158301
    16  H    0.152546
    17  H    0.151409
    18  H    0.157733
    19  H    0.155791
    20  H    0.160724
    21  C   -0.309867
    22  C   -0.299521
    23  C   -0.478064
    24  H    0.159515
    25  H    0.149465
    26  H    0.152275
    27  H    0.152211
    28  H    0.154939
    29  H    0.157899
    30  H    0.160360
    31  C   -0.297655
    32  C   -0.299658
    33  C   -0.475743
    34  H    0.149660
    35  H    0.150091
    36  H    0.150975
    37  H    0.151979
    38  H    0.155425
    39  H    0.155419
    40  H    0.160308
 Sum of Mulliken charges =  -0.00000

 Dipole moment (field-independent basis, Debye):
    X=             -0.0014    Y=             -0.0035    Z=             -0.0050  Tot=              0.0063
 Quadrupole moment (field-independent basis, Debye-Ang):
   XX=            -84.7712   YY=            -85.4921   ZZ=            -84.4052
   XY=              0.7451   XZ=             -1.0851   YZ=             -0.4650

 Normal termination of Gaussian 16 at Thu May  6 11:33:33 2021.
