 Gaussian 16, Revision A.03,
 Gaussian 16:  EM64L-G16RevA.03 25-Dec-2016

 -------------
 #p 6-31g* mp2
 -------------

 ------------------------------------------------------
 Input file generated by CHIRIPA (05-May-2021 14:53:16)
 ------------------------------------------------------
 Symbolic Z-matrix:
 Charge =  0 Multiplicity = 1

                         Standard orientation:
 ---------------------------------------------------------------------
 Center     Atomic      Atomic             Coordinates (Angstroms)
 Number     Number       Type             X           Y           Z
 ---------------------------------------------------------------------
      1          6           0        3.557433    1.275435   -0.011561
      2          6           0        2.308151    1.745303   -0.757554
      3          6           0        2.085976    3.254007   -0.646895
      4          1           0        3.473015    1.558428    1.046613
      5          1           0        4.434087    1.806147   -0.408068
      6          1           0        1.434298    1.212849   -0.360703
      7          1           0        2.395467    1.460990   -1.814038
      8          1           0        2.939587    3.800484   -1.060794
      9          1           0        1.972958    3.550933    0.400799
     10          1           0        1.187634    3.568219   -1.187369
     11          6           0        3.793007   -0.230541   -0.112892
     12          6           0        5.042289   -0.700408    0.633100
     13          6           0        5.264464   -2.209112    0.522442
     14          1           0        2.916353   -0.761253    0.283614
     15          1           0        3.877425   -0.513533   -1.171067
     16          1           0        4.954973   -0.416096    1.689584
     17          1           0        5.916142   -0.167955    0.236249
     18          1           0        5.377482   -2.506038   -0.525252
     19          1           0        4.410853   -2.755589    0.936340
     20          1           0        6.162806   -2.523324    1.062915
     21          6           0       -5.110725    0.653532    0.521428
     22          6           0       -4.974221   -0.250709   -0.536984
     23          6           0       -3.738173   -0.845020   -0.808151
     24          6           0       -2.654763   -0.510803    0.002905
     25          6           0       -2.758949    0.386436    1.064695
     26          6           0       -4.004603    0.968663    1.317486
     27          1           0       -6.074648    1.110513    0.724938
     28          1           0       -5.831524   -0.497317   -1.156871
     29          1           0       -3.604421   -1.548300   -1.621123
     30          1           0       -1.886173    0.612536    1.665162
     31          1           0       -4.107672    1.670568    2.140135
     32          7           0       -1.341129   -1.133576   -0.274440
     33          8           0       -0.401985   -0.822474    0.454848
     34          8           0       -1.275522   -1.921017   -1.215860
 ---------------------------------------------------------------------

 SCF Done:  E(RHF) =  -669.536549805     A.U. after   15 cycles
 E2 =    -0.2091357354D+01 EUMP2 =    -0.67162790715931D+03

 The electronic state is 1-A.
 Alpha  occ. eigenvalues --  -20.61054 -20.61048 -15.86065 -11.31344 -11.27903
 Alpha  occ. eigenvalues --  -11.27898 -11.27632 -11.26900 -11.26891 -11.20592
 Alpha  occ. eigenvalues --  -11.20431 -11.20349 -11.20314 -11.20121 -11.20046
 Alpha  occ. eigenvalues --   -1.60097  -1.39656  -1.19508  -1.08920  -1.07315
 Alpha  occ. eigenvalues --   -1.04898  -1.02535  -0.95769  -0.95007  -0.86301
 Alpha  occ. eigenvalues --   -0.86026  -0.82607  -0.78578  -0.77667  -0.77090
 Alpha  occ. eigenvalues --   -0.72290  -0.71400  -0.70618  -0.65167  -0.64901
 Alpha  occ. eigenvalues --   -0.63936  -0.62247  -0.59936  -0.58381  -0.56611
 Alpha  occ. eigenvalues --   -0.55405  -0.54301  -0.53232  -0.52990  -0.51746
 Alpha  occ. eigenvalues --   -0.51430  -0.49071  -0.49046  -0.48935  -0.46922
 Alpha  occ. eigenvalues --   -0.45697  -0.45078  -0.44671  -0.44330  -0.42754
 Alpha  occ. eigenvalues --   -0.37483  -0.36497
 Alpha virt. eigenvalues --    0.04823   0.11157   0.16292   0.21258   0.23948
 Alpha virt. eigenvalues --    0.25198   0.27194   0.27619   0.28092   0.28770
 Alpha virt. eigenvalues --    0.29016   0.30843   0.32124   0.32461   0.32611

 Mulliken charges:
               1
     1  C   -0.296059
     2  C   -0.308996
     3  C   -0.474799
     4  H    0.145637
     5  H    0.143954
     6  H    0.171287
     7  H    0.149868
     8  H    0.152437
     9  H    0.150734
    10  H    0.155057
    11  C   -0.304299
    12  C   -0.298769
    13  C   -0.475270
    14  H    0.170126
    15  H    0.147896
    16  H    0.148935
    17  H    0.147477
    18  H    0.154436
    19  H    0.158587
    20  H    0.155635
    21  C   -0.170455
    22  C   -0.218576
    23  C   -0.170617
    24  C    0.158179
    25  C   -0.170583
    26  C   -0.218487
    27  H    0.226226
    28  H    0.224016
    29  H    0.275977
    30  H    0.275584
    31  H    0.224093
    32  N    0.489508
    33  O   -0.461329
    34  O   -0.457411
 Sum of Mulliken charges =  -0.00000

 Dipole moment (field-independent basis, Debye):
    X=             -4.9866    Y=              1.9781    Z=              0.9832  Tot=              5.4540
 Quadrupole moment (field-independent basis, Debye-Ang):
   XX=            -70.8026   YY=            -98.1717   ZZ=            -91.5445
   XY=             -2.4409   XZ=             -1.3837   YZ=              1.8962

 Normal termination of Gaussian 16 at Wed May  5 21:57:43 2021.
