 Gaussian 16, Revision A.03,
 Gaussian 16:  EM64L-G16RevA.03 25-Dec-2016

 -------------
 #p 6-31g* mp2
 -------------

 ------------------------------------------------------
 Input file generated by CHIRIPA (05-May-2021 14:53:17)
 ------------------------------------------------------
 Symbolic Z-matrix:
 Charge =  0 Multiplicity = 1

                         Standard orientation:
 ---------------------------------------------------------------------
 Center     Atomic      Atomic             Coordinates (Angstroms)
 Number     Number       Type             X           Y           Z
 ---------------------------------------------------------------------
      1          6           0        4.210829    0.557662   -0.082979
      2          6           0        5.555794   -0.015926    0.364292
      3          6           0        6.559681    1.068398    0.757033
      4          1           0        4.372581    1.234772   -0.932864
      5          1           0        3.792732    1.169111    0.728637
      6          1           0        5.970578   -0.627237   -0.447415
      7          1           0        5.390798   -0.691897    1.213089
      8          1           0        6.170491    1.672872    1.582710
      9          1           0        6.753566    1.737900   -0.087229
     10          1           0        7.514131    0.636240    1.073459
     11          6           0        3.196683   -0.514044   -0.478810
     12          6           0        1.851719    0.059544   -0.926081
     13          6           0        0.847831   -1.024780   -1.318821
     14          1           0        3.614780   -1.125492   -1.290426
     15          1           0        3.034931   -1.191153    0.371075
     16          1           0        2.016714    0.735515   -1.774878
     17          1           0        1.436934    0.670855   -0.114374
     18          1           0        0.653946   -1.694281   -0.474560
     19          1           0        1.237021   -1.629254   -2.144499
     20          1           0       -0.106618   -0.592622   -1.635248
     21          6           0       -3.758195    2.305022   -0.256331
     22          6           0       -3.581448    1.395526   -1.304233
     23          6           0       -3.102992    0.106279   -1.052303
     24          6           0       -2.809970   -0.241527    0.265445
     25          6           0       -2.975467    0.642068    1.330885
     26          6           0       -3.455174    1.926058    1.055571
     27          1           0       -4.130356    3.304498   -0.461119
     28          1           0       -3.815955    1.687081   -2.324060
     29          1           0       -2.956808   -0.617728   -1.844681
     30          1           0       -2.733041    0.322422    2.337102
     31          1           0       -3.591458    2.630298    1.871363
     32          7           0       -2.302788   -1.603612    0.544530
     33          8           0       -2.051945   -1.885538    1.714246
     34          8           0       -2.165706   -2.363499   -0.411722
 ---------------------------------------------------------------------

 SCF Done:  E(RHF) =  -669.535292290     A.U. after   15 cycles
 E2 =    -0.2092734341D+01 EUMP2 =    -0.67162802663103D+03

 The electronic state is 1-A.
 Alpha  occ. eigenvalues --  -20.60842 -20.60827 -15.85854 -11.31244 -11.27808
 Alpha  occ. eigenvalues --  -11.27805 -11.27551 -11.26831 -11.26821 -11.21330
 Alpha  occ. eigenvalues --  -11.21146 -11.21085 -11.20940 -11.20873 -11.20322
 Alpha  occ. eigenvalues --   -1.59897  -1.39452  -1.19416  -1.08806  -1.08062
 Alpha  occ. eigenvalues --   -1.04822  -1.03139  -0.95658  -0.95558  -0.86590
 Alpha  occ. eigenvalues --   -0.86214  -0.82476  -0.79212  -0.77876  -0.77519
 Alpha  occ. eigenvalues --   -0.72092  -0.71229  -0.70523  -0.65070  -0.64823
 Alpha  occ. eigenvalues --   -0.64693  -0.62174  -0.60533  -0.58971  -0.57205
 Alpha  occ. eigenvalues --   -0.55320  -0.54846  -0.53179  -0.52917  -0.52258
 Alpha  occ. eigenvalues --   -0.51964  -0.49513  -0.48851  -0.48849  -0.47507
 Alpha  occ. eigenvalues --   -0.46267  -0.45421  -0.45360  -0.44794  -0.43331
 Alpha  occ. eigenvalues --   -0.37379  -0.36411
 Alpha virt. eigenvalues --    0.04972   0.11132   0.16482   0.21320   0.23196
 Alpha virt. eigenvalues --    0.24596   0.27009   0.27064   0.27845   0.27895
 Alpha virt. eigenvalues --    0.28692   0.30643   0.31511   0.31862   0.32194

 Mulliken charges:
               1
     1  C   -0.297588
     2  C   -0.299568
     3  C   -0.475431
     4  H    0.147663
     5  H    0.148038
     6  H    0.151894
     7  H    0.153134
     8  H    0.154337
     9  H    0.154101
    10  H    0.159881
    11  C   -0.298631
    12  C   -0.299805
    13  C   -0.479175
    14  H    0.149332
    15  H    0.153430
    16  H    0.147110
    17  H    0.148060
    18  H    0.170316
    19  H    0.154680
    20  H    0.152644
    21  C   -0.170622
    22  C   -0.219018
    23  C   -0.172354
    24  C    0.161120
    25  C   -0.171300
    26  C   -0.218315
    27  H    0.225883
    28  H    0.223861
    29  H    0.276268
    30  H    0.275616
    31  H    0.223678
    32  N    0.488584
    33  O   -0.460876
    34  O   -0.456946
 Sum of Mulliken charges =  -0.00000

 Dipole moment (field-independent basis, Debye):
    X=             -1.9263    Y=              4.6780    Z=             -0.9395  Tot=              5.1456
 Quadrupole moment (field-independent basis, Debye-Ang):
   XX=            -86.3627   YY=            -97.7309   ZZ=            -89.8216
   XY=            -14.0387   XZ=              2.1330   YZ=              2.5703

 Normal termination of Gaussian 16 at Wed May  5 23:38:58 2021.
