 Gaussian 16, Revision A.03,
 Gaussian 16:  EM64L-G16RevA.03 25-Dec-2016

 -------------
 #p 6-31g* mp2
 -------------

 ------------------------------------------------------
 Input file generated by CHIRIPA (05-May-2021 14:57:22)
 ------------------------------------------------------
 Symbolic Z-matrix:
 Charge =  0 Multiplicity = 1

                         Standard orientation:
 ---------------------------------------------------------------------
 Center     Atomic      Atomic             Coordinates (Angstroms)
 Number     Number       Type             X           Y           Z
 ---------------------------------------------------------------------
      1          6           0       -1.005112    0.690722    1.907572
      2          6           0       -1.230906   -0.677564    1.725005
      3          6           0       -2.255490   -1.122108    0.884080
      4          6           0       -3.038688   -0.166561    0.238463
      5          6           0       -2.838538    1.203531    0.399955
      6          6           0       -1.808233    1.625255    1.245631
      7          1           0       -0.206968    1.027191    2.562668
      8          1           0       -0.608761   -1.405596    2.237793
      9          1           0       -2.452187   -2.175359    0.724739
     10          1           0       -3.475262    1.905442   -0.124756
     11          1           0       -1.635174    2.688516    1.385527
     12          7           0       -4.126398   -0.625100   -0.654302
     13          8           0       -4.802433    0.236854   -1.211660
     14          8           0       -4.282314   -1.837775   -0.779788
     15          6           0        1.068532    1.766673   -0.977817
     16          6           0        0.804402    0.396444   -1.073881
     17          6           0        1.789165   -0.540999   -0.748323
     18          6           0        3.032557   -0.071011   -0.328348
     19          6           0        3.326232    1.287601   -0.222429
     20          6           0        2.326387    2.207101   -0.553147
     21          1           0        0.297686    2.487933   -1.232724
     22          1           0       -0.171555    0.051518   -1.403396
     23          1           0        1.611611   -1.607592   -0.813683
     24          1           0        4.308703    1.601055    0.109104
     25          1           0        2.534336    3.270631   -0.477600
     26          7           0        4.083065   -1.053943    0.019037
     27          8           0        5.170399   -0.614230    0.386455
     28          8           0        3.799230   -2.245466   -0.082678
 ---------------------------------------------------------------------

 SCF Done:  E(RHF) =  -868.336272191     A.U. after   16 cycles
 E2 =    -0.2604456686D+01 EUMP2 =    -0.87094072887709D+03

 The electronic state is 1-A.
 Alpha  occ. eigenvalues --  -20.61518 -20.61508 -20.61220 -20.61215 -15.86577
 Alpha  occ. eigenvalues --  -15.86271 -11.32050 -11.31639 -11.28644 -11.28566
 Alpha  occ. eigenvalues --  -11.28216 -11.28183 -11.28109 -11.27858 -11.27592
 Alpha  occ. eigenvalues --  -11.27469 -11.27237 -11.27073  -1.60598  -1.60299
 Alpha  occ. eigenvalues --   -1.40145  -1.39851  -1.20226  -1.19782  -1.09563
 Alpha  occ. eigenvalues --   -1.09170  -1.05611  -1.05172  -0.96372  -0.96021
 Alpha  occ. eigenvalues --   -0.86974  -0.86571  -0.83197  -0.82842  -0.78259
 Alpha  occ. eigenvalues --   -0.77901  -0.72774  -0.72482  -0.71945  -0.71631
 Alpha  occ. eigenvalues --   -0.71221  -0.70889  -0.65816  -0.65557  -0.65422
 Alpha  occ. eigenvalues --   -0.65178  -0.62930  -0.62531  -0.56008  -0.55673
 Alpha  occ. eigenvalues --   -0.54539  -0.53649  -0.53339  -0.52865  -0.49546
 Alpha  occ. eigenvalues --   -0.49534  -0.49245  -0.49237  -0.45526  -0.45256
 Alpha  occ. eigenvalues --   -0.38734  -0.37792  -0.36982  -0.36343
 Alpha virt. eigenvalues --    0.04231   0.04559   0.10316   0.10947   0.15712
 Alpha virt. eigenvalues --    0.16199   0.20336   0.21326   0.26035   0.26821
 Alpha virt. eigenvalues --    0.27653   0.28294   0.29722   0.31096   0.31823

 Mulliken charges:
               1
     1  C   -0.162226
     2  C   -0.218337
     3  C   -0.177693
     4  C    0.155023
     5  C   -0.178506
     6  C   -0.221610
     7  H    0.230506
     8  H    0.230104
     9  H    0.278916
    10  H    0.276146
    11  H    0.222394
    12  N    0.487503
    13  O   -0.459586
    14  O   -0.457549
    15  C   -0.172479
    16  C   -0.210301
    17  C   -0.176780
    18  C    0.157114
    19  C   -0.173854
    20  C   -0.222041
    21  H    0.223344
    22  H    0.229329
    23  H    0.274823
    24  H    0.275600
    25  H    0.222589
    26  N    0.487713
    27  O   -0.459757
    28  O   -0.460387
 Sum of Mulliken charges =  -0.00000

 Dipole moment (field-independent basis, Debye):
    X=              0.0339    Y=              4.9872    Z=              2.0508  Tot=              5.3925
 Quadrupole moment (field-independent basis, Debye-Ang):
   XX=           -149.8207   YY=            -98.9535   ZZ=           -103.2360
   XY=              6.7386   XZ=            -10.2322   YZ=             -1.3623

 Normal termination of Gaussian 16 at Fri May  7 07:55:04 2021.
