 Gaussian 16, Revision A.03,
 Gaussian 16:  EM64L-G16RevA.03 25-Dec-2016

 -------------
 #p 6-31g* mp2
 -------------

 ------------------------------------------------------
 Input file generated by CHIRIPA (05-May-2021 14:57:22)
 ------------------------------------------------------
 Symbolic Z-matrix:
 Charge =  0 Multiplicity = 1

                         Standard orientation:
 ---------------------------------------------------------------------
 Center     Atomic      Atomic             Coordinates (Angstroms)
 Number     Number       Type             X           Y           Z
 ---------------------------------------------------------------------
      1          6           0       -1.295647    2.449748   -0.019539
      2          6           0       -2.500637    2.360672    0.685150
      3          6           0       -3.293780    1.213061    0.593164
      4          6           0       -2.849557    0.168761   -0.216401
      5          6           0       -1.653931    0.227447   -0.930772
      6          6           0       -0.876879    1.384729   -0.823833
      7          1           0       -0.685765    3.344996    0.057726
      8          1           0       -2.828355    3.186225    1.310536
      9          1           0       -4.230997    1.117574    1.127882
     10          1           0       -1.353552   -0.611883   -1.546170
     11          1           0        0.058476    1.451127   -1.372238
     12          7           0       -3.680704   -1.051282   -0.321698
     13          8           0       -3.267133   -1.957484   -1.041694
     14          8           0       -4.729991   -1.078249    0.317761
     15          6           0        3.672128    1.899731   -0.343382
     16          6           0        2.607863    1.786750    0.557226
     17          6           0        2.068279    0.534335    0.865211
     18          6           0        2.619807   -0.589253    0.251487
     19          6           0        3.680190   -0.509278   -0.649890
     20          6           0        4.203958    0.753378   -0.943009
     21          1           0        4.085147    2.876614   -0.576858
     22          1           0        2.192835    2.675307    1.024412
     23          1           0        1.244387    0.418113    1.558834
     24          1           0        4.072811   -1.413116   -1.099717
     25          1           0        5.030483    0.838105   -1.642810
     26          7           0        2.056947   -1.920549    0.569667
     27          8           0        2.560658   -2.895167    0.015563
     28          8           0        1.122723   -1.964193    1.367137
 ---------------------------------------------------------------------

 SCF Done:  E(RHF) =  -868.335946499     A.U. after   16 cycles
 E2 =    -0.2602892454D+01 EUMP2 =    -0.87093883895326D+03

 The electronic state is 1-A.
 Alpha  occ. eigenvalues --  -20.61152 -20.61140 -20.60517 -20.60487 -15.86212
 Alpha  occ. eigenvalues --  -15.85563 -11.31793 -11.31152 -11.28415 -11.28412
 Alpha  occ. eigenvalues --  -11.28247 -11.27734 -11.27691 -11.27618 -11.27507
 Alpha  occ. eigenvalues --  -11.27430 -11.26876 -11.26790  -1.60223  -1.59569
 Alpha  occ. eigenvalues --   -1.39768  -1.39118  -1.20042  -1.19352  -1.09383
 Alpha  occ. eigenvalues --   -1.08737  -1.05473  -1.04774  -0.96165  -0.95526
 Alpha  occ. eigenvalues --   -0.86841  -0.86179  -0.82986  -0.82347  -0.77993
 Alpha  occ. eigenvalues --   -0.77331  -0.72415  -0.71786  -0.71571  -0.71111
 Alpha  occ. eigenvalues --   -0.70883  -0.70519  -0.65669  -0.65452  -0.65009
 Alpha  occ. eigenvalues --   -0.64804  -0.62783  -0.62121  -0.55953  -0.55367
 Alpha  occ. eigenvalues --   -0.53964  -0.53545  -0.53033  -0.52766  -0.49193
 Alpha  occ. eigenvalues --   -0.49159  -0.48561  -0.48521  -0.45121  -0.44474
 Alpha  occ. eigenvalues --   -0.38088  -0.37746  -0.37005  -0.36032
 Alpha virt. eigenvalues --    0.04523   0.05159   0.10401   0.11356   0.15964
 Alpha virt. eigenvalues --    0.16569   0.20101   0.21621   0.25702   0.27187
 Alpha virt. eigenvalues --    0.27698   0.28394   0.30148   0.31479   0.32455

 Mulliken charges:
               1
     1  C   -0.179262
     2  C   -0.218101
     3  C   -0.170796
     4  C    0.162117
     5  C   -0.168366
     6  C   -0.220181
     7  H    0.217623
     8  H    0.222171
     9  H    0.276502
    10  H    0.278771
    11  H    0.226416
    12  N    0.488568
    13  O   -0.455618
    14  O   -0.460946
    15  C   -0.172547
    16  C   -0.227021
    17  C   -0.167929
    18  C    0.154234
    19  C   -0.170731
    20  C   -0.219972
    21  H    0.226460
    22  H    0.219779
    23  H    0.280631
    24  H    0.278659
    25  H    0.225871
    26  N    0.487422
    27  O   -0.457646
    28  O   -0.456108
 Sum of Mulliken charges =  -0.00000

 Dipole moment (field-independent basis, Debye):
    X=              4.8942    Y=              8.6370    Z=             -0.7502  Tot=              9.9556
 Quadrupole moment (field-independent basis, Debye-Ang):
   XX=           -107.0002   YY=           -108.6607   ZZ=           -102.6251
   XY=             -3.6861   XZ=             -8.9524   YZ=              3.9489

 Normal termination of Gaussian 16 at Thu May  6 16:14:25 2021.
