 Gaussian 16, Revision A.03,
 Gaussian 16:  EM64L-G16RevA.03 25-Dec-2016

 -------------
 #p 6-31g* mp2
 -------------

 ------------------------------------------------------
 Input file generated by CHIRIPA (05-May-2021 14:55:22)
 ------------------------------------------------------
 Symbolic Z-matrix:
 Charge =  0 Multiplicity = 1

                         Standard orientation:
 ---------------------------------------------------------------------
 Center     Atomic      Atomic             Coordinates (Angstroms)
 Number     Number       Type             X           Y           Z
 ---------------------------------------------------------------------
      1          6           0        1.036415   -2.608445    1.028389
      2          6           0        0.879524   -1.386585    1.690933
      3          6           0        1.454352   -0.220801    1.176086
      4          6           0        2.182913   -0.313637   -0.008764
      5          6           0        2.357077   -1.516142   -0.692093
      6          6           0        1.773392   -2.669217   -0.158916
      7          1           0        0.586435   -3.509118    1.435454
      8          1           0        0.307706   -1.336403    2.613186
      9          1           0        1.348642    0.738238    1.668517
     10          1           0        2.932656   -1.534700   -1.609580
     11          1           0        1.896887   -3.616755   -0.675603
     12          7           0        2.796146    0.913799   -0.563512
     13          8           0        3.433312    0.805444   -1.608938
     14          8           0        2.628019    1.960978    0.057606
     15          6           0       -3.230714    0.275449   -0.444848
     16          6           0       -3.176398   -1.231362   -0.190771
     17          6           0       -4.315146   -1.987752   -0.875548
     18          1           0       -4.195604    0.665619   -0.093139
     19          1           0       -3.195206    0.459186   -1.527611
     20          1           0       -3.210603   -1.412141    0.891248
     21          1           0       -2.211448   -1.617958   -0.542952
     22          1           0       -4.280873   -1.836870   -1.959366
     23          1           0       -5.285706   -1.629883   -0.517017
     24          1           0       -4.257019   -3.063171   -0.680724
     25          6           0       -2.098807    1.045340    0.233226
     26          6           0       -2.153124    2.552152   -0.020851
     27          6           0       -1.014376    3.308542    0.663926
     28          1           0       -2.134315    0.861603    1.315988
     29          1           0       -1.133918    0.655170   -0.118484
     30          1           0       -3.118074    2.938747    0.331329
     31          1           0       -2.118919    2.732930   -1.102871
     32          1           0       -0.043816    2.950673    0.305395
     33          1           0       -1.048648    3.157659    1.747744
     34          1           0       -1.072502    4.383961    0.469102
 ---------------------------------------------------------------------

 SCF Done:  E(RHF) =  -669.535965844     A.U. after   15 cycles
 E2 =    -0.2093942498D+01 EUMP2 =    -0.67162990834238D+03

 The electronic state is 1-A.
 Alpha  occ. eigenvalues --  -20.60965 -20.60957 -15.85982 -11.31277 -11.27845
 Alpha  occ. eigenvalues --  -11.27813 -11.27577 -11.26844 -11.26816 -11.21869
 Alpha  occ. eigenvalues --  -11.21501 -11.21412 -11.21354 -11.21353 -11.20567
 Alpha  occ. eigenvalues --   -1.60020  -1.39576  -1.19453  -1.08857  -1.08483
 Alpha  occ. eigenvalues --   -1.04837  -1.03525  -0.95955  -0.95701  -0.86971
 Alpha  occ. eigenvalues --   -0.86238  -0.82530  -0.79607  -0.78326  -0.77569
 Alpha  occ. eigenvalues --   -0.72204  -0.71334  -0.70549  -0.65141  -0.65085
 Alpha  occ. eigenvalues --   -0.64826  -0.62184  -0.60911  -0.59368  -0.57578
 Alpha  occ. eigenvalues --   -0.55340  -0.55239  -0.53242  -0.52926  -0.52625
 Alpha  occ. eigenvalues --   -0.52355  -0.49912  -0.48963  -0.48959  -0.47911
 Alpha  occ. eigenvalues --   -0.46657  -0.45847  -0.45774  -0.44857  -0.43784
 Alpha  occ. eigenvalues --   -0.37418  -0.36365
 Alpha virt. eigenvalues --    0.04893   0.11141   0.16325   0.20951   0.22864
 Alpha virt. eigenvalues --    0.24050   0.26039   0.26746   0.27190   0.28155
 Alpha virt. eigenvalues --    0.28970   0.30926   0.31496   0.31611   0.32127

 Mulliken charges:
               1
     1  C   -0.170281
     2  C   -0.215546
     3  C   -0.171086
     4  C    0.157044
     5  C   -0.171267
     6  C   -0.219279
     7  H    0.226409
     8  H    0.224371
     9  H    0.278873
    10  H    0.275668
    11  H    0.223828
    12  N    0.488206
    13  O   -0.458649
    14  O   -0.459640
    15  C   -0.297765
    16  C   -0.300212
    17  C   -0.475408
    18  H    0.149736
    19  H    0.151405
    20  H    0.146205
    21  H    0.152598
    22  H    0.156719
    23  H    0.156126
    24  H    0.157187
    25  C   -0.301248
    26  C   -0.299329
    27  C   -0.487498
    28  H    0.140851
    29  H    0.153948
    30  H    0.149748
    31  H    0.153860
    32  H    0.175764
    33  H    0.146386
    34  H    0.162277
 Sum of Mulliken charges =  -0.00000

 Dipole moment (field-independent basis, Debye):
    X=             -1.9771    Y=             -4.3079    Z=              1.8788  Tot=              5.0987
 Quadrupole moment (field-independent basis, Debye-Ang):
   XX=           -104.7554   YY=            -91.4393   ZZ=            -91.7104
   XY=            -10.4586   XZ=              2.0763   YZ=              1.2834

 Normal termination of Gaussian 16 at Wed May  5 23:54:48 2021.
