 Gaussian 16, Revision A.03,
 Gaussian 16:  EM64L-G16RevA.03 25-Dec-2016

 -------------
 #p 6-31g* mp2
 -------------

 ------------------------------------------------------
 Input file generated by CHIRIPA (05-May-2021 14:57:27)
 ------------------------------------------------------
 Symbolic Z-matrix:
 Charge =  0 Multiplicity = 1

                         Standard orientation:
 ---------------------------------------------------------------------
 Center     Atomic      Atomic             Coordinates (Angstroms)
 Number     Number       Type             X           Y           Z
 ---------------------------------------------------------------------
      1          6           0       -2.648588    2.688147   -0.305200
      2          6           0       -2.176720    1.966287   -1.406463
      3          6           0       -2.242671    0.569870   -1.421205
      4          6           0       -2.789073   -0.075274   -0.312817
      5          6           0       -3.267542    0.615851    0.799254
      6          6           0       -3.191535    2.011817    0.792210
      7          1           0       -2.593449    3.772742   -0.302210
      8          1           0       -1.754556    2.488879   -2.260114
      9          1           0       -1.884723   -0.013748   -2.260658
     10          1           0       -3.683066    0.066935    1.635585
     11          1           0       -3.558765    2.569825    1.648839
     12          7           0       -2.864215   -1.553360   -0.316892
     13          8           0       -3.350080   -2.098119    0.671951
     14          8           0       -2.435824   -2.139137   -1.308851
     15          6           0        0.885199   -0.692131    1.897651
     16          6           0        1.002460   -1.392137    0.692346
     17          6           0        2.046469   -1.110285   -0.193744
     18          6           0        2.959551   -0.117693    0.158865
     19          6           0        2.869568    0.597125    1.352275
     20          6           0        1.817483    0.298520    2.223195
     21          1           0        0.071052   -0.917588    2.580095
     22          1           0        0.279895   -2.162005    0.436910
     23          1           0        2.160937   -1.636866   -1.133439
     24          1           0        3.605231    1.359129    1.579363
     25          1           0        1.728900    0.843761    3.158561
     26          7           0        4.069070    0.189559   -0.771169
     27          8           0        4.860517    1.068626   -0.437266
     28          8           0        4.126256   -0.454501   -1.816421
 ---------------------------------------------------------------------

 SCF Done:  E(RHF) =  -868.339339364     A.U. after   16 cycles
 E2 =    -0.2600164898D+01 EUMP2 =    -0.87093950426159D+03

 The electronic state is 1-A.
 Alpha  occ. eigenvalues --  -20.61705 -20.61695 -20.60728 -20.60719 -15.86727
 Alpha  occ. eigenvalues --  -15.85774 -11.31849 -11.31061 -11.28422 -11.28349
 Alpha  occ. eigenvalues --  -11.28058 -11.27651 -11.27558 -11.27367 -11.27312
 Alpha  occ. eigenvalues --  -11.27288 -11.26655 -11.26479  -1.60789  -1.59805
 Alpha  occ. eigenvalues --   -1.40341  -1.39360  -1.19994  -1.19217  -1.09434
 Alpha  occ. eigenvalues --   -1.08624  -1.05356  -1.04595  -0.96308  -0.95474
 Alpha  occ. eigenvalues --   -0.86767  -0.85998  -0.83144  -0.82297  -0.78230
 Alpha  occ. eigenvalues --   -0.77363  -0.72938  -0.72142  -0.71984  -0.71131
 Alpha  occ. eigenvalues --   -0.71093  -0.70310  -0.65645  -0.65349  -0.64859
 Alpha  occ. eigenvalues --   -0.64563  -0.62709  -0.61925  -0.55853  -0.55090
 Alpha  occ. eigenvalues --   -0.53734  -0.53441  -0.52911  -0.52660  -0.49718
 Alpha  occ. eigenvalues --   -0.49682  -0.48754  -0.48743  -0.45792  -0.44782
 Alpha  occ. eigenvalues --   -0.38010  -0.37161  -0.36953  -0.36173
 Alpha virt. eigenvalues --    0.04251   0.05143   0.10672   0.11428   0.15822
 Alpha virt. eigenvalues --    0.16673   0.20835   0.21662   0.26781   0.27299
 Alpha virt. eigenvalues --    0.27938   0.28454   0.30575   0.31063   0.32167

 Mulliken charges:
               1
     1  C   -0.169520
     2  C   -0.217468
     3  C   -0.169121
     4  C    0.157930
     5  C   -0.174649
     6  C   -0.218655
     7  H    0.228415
     8  H    0.227978
     9  H    0.277012
    10  H    0.273518
    11  H    0.224053
    12  N    0.484941
    13  O   -0.461868
    14  O   -0.460713
    15  C   -0.171465
    16  C   -0.227688
    17  C   -0.173205
    18  C    0.157749
    19  C   -0.172527
    20  C   -0.218798
    21  H    0.227621
    22  H    0.238738
    23  H    0.277769
    24  H    0.273702
    25  H    0.220861
    26  N    0.487762
    27  O   -0.462106
    28  O   -0.460267
 Sum of Mulliken charges =  -0.00000

 Dipole moment (field-independent basis, Debye):
    X=             -3.7879    Y=              4.1909    Z=              3.1722  Tot=              6.4788
 Quadrupole moment (field-independent basis, Debye-Ang):
   XX=           -129.8405   YY=           -103.5058   ZZ=            -98.1386
   XY=            -16.6018   XZ=              8.0993   YZ=              0.2774

 Normal termination of Gaussian 16 at Thu May  6 21:25:38 2021.
