 Gaussian 16, Revision A.03,
 Gaussian 16:  EM64L-G16RevA.03 25-Dec-2016

 -------------
 #p 6-31g* mp2
 -------------

 ------------------------------------------------------
 Input file generated by CHIRIPA (05-May-2021 14:57:27)
 ------------------------------------------------------
 Symbolic Z-matrix:
 Charge =  0 Multiplicity = 1

                         Standard orientation:
 ---------------------------------------------------------------------
 Center     Atomic      Atomic             Coordinates (Angstroms)
 Number     Number       Type             X           Y           Z
 ---------------------------------------------------------------------
      1          6           0       -4.561098    2.352023    0.553410
      2          6           0       -5.537198    1.406853    0.221136
      3          6           0       -5.172409    0.106853   -0.141459
      4          6           0       -3.816249   -0.215212   -0.161288
      5          6           0       -2.820265    0.704126    0.164479
      6          6           0       -3.208132    1.998266    0.524072
      7          1           0       -4.853439    3.359618    0.833916
      8          1           0       -6.588684    1.678775    0.243051
      9          1           0       -5.907362   -0.644594   -0.403357
     10          1           0       -1.780050    0.403442    0.133472
     11          1           0       -2.447910    2.730229    0.781631
     12          7           0       -3.417847   -1.588363   -0.543563
     13          8           0       -2.216348   -1.847096   -0.553298
     14          8           0       -4.314623   -2.379904   -0.826216
     15          6           0        1.692273   -0.924314    0.957034
     16          6           0        1.700904    0.171184    0.087362
     17          6           0        2.908215    0.685528   -0.394715
     18          6           0        4.093596    0.077186    0.015264
     19          6           0        4.117803   -1.015436    0.880642
     20          6           0        2.898623   -1.513090    1.350206
     21          1           0        0.749795   -1.317387    1.326663
     22          1           0        0.765566    0.630445   -0.219667
     23          1           0        2.943844    1.532611   -1.068954
     24          1           0        5.066308   -1.452074    1.168915
     25          1           0        2.894954   -2.363976    2.025503
     26          7           0        5.378004    0.612865   -0.488465
     27          8           0        6.408722    0.059037   -0.112255
     28          8           0        5.329687    1.576414   -1.249961
 ---------------------------------------------------------------------

 SCF Done:  E(RHF) =  -868.337856705     A.U. after   16 cycles
 E2 =    -0.2599493534D+01 EUMP2 =    -0.87093735023831D+03

 The electronic state is 1-A.
 Alpha  occ. eigenvalues --  -20.61704 -20.61656 -20.60637 -20.60629 -15.86729
 Alpha  occ. eigenvalues --  -15.85691 -11.32056 -11.31010 -11.28724 -11.28539
 Alpha  occ. eigenvalues --  -11.28268 -11.27644 -11.27624 -11.27579 -11.27535
 Alpha  occ. eigenvalues --  -11.27259 -11.26680 -11.26524  -1.60747  -1.59713
 Alpha  occ. eigenvalues --   -1.40308  -1.39268  -1.20202  -1.19189  -1.09588
 Alpha  occ. eigenvalues --   -1.08573  -1.05608  -1.04607  -0.96444  -0.95412
 Alpha  occ. eigenvalues --   -0.87003  -0.86004  -0.83284  -0.82263  -0.78361
 Alpha  occ. eigenvalues --   -0.77335  -0.72950  -0.72063  -0.71911  -0.71312
 Alpha  occ. eigenvalues --   -0.71036  -0.70239  -0.65855  -0.65622  -0.64843
 Alpha  occ. eigenvalues --   -0.64646  -0.62977  -0.61956  -0.56068  -0.55028
 Alpha  occ. eigenvalues --   -0.53917  -0.53711  -0.52909  -0.52699  -0.49719
 Alpha  occ. eigenvalues --   -0.49683  -0.48667  -0.48665  -0.45721  -0.44684
 Alpha  occ. eigenvalues --   -0.38143  -0.37203  -0.37121  -0.36215
 Alpha virt. eigenvalues --    0.04182   0.05237   0.10446   0.11448   0.15710
 Alpha virt. eigenvalues --    0.16744   0.18192   0.21979   0.24882   0.27011
 Alpha virt. eigenvalues --    0.28107   0.28981   0.30742   0.31130   0.31794

 Mulliken charges:
               1
     1  C   -0.170025
     2  C   -0.218065
     3  C   -0.169371
     4  C    0.159715
     5  C   -0.177627
     6  C   -0.219703
     7  H    0.228994
     8  H    0.226778
     9  H    0.277957
    10  H    0.272319
    11  H    0.224212
    12  N    0.488097
    13  O   -0.467569
    14  O   -0.454991
    15  C   -0.169290
    16  C   -0.219482
    17  C   -0.171083
    18  C    0.158147
    19  C   -0.170436
    20  C   -0.219217
    21  H    0.234335
    22  H    0.215811
    23  H    0.274095
    24  H    0.275496
    25  H    0.224995
    26  N    0.488099
    27  O   -0.460455
    28  O   -0.461733
 Sum of Mulliken charges =  -0.00000

 Dipole moment (field-independent basis, Debye):
    X=             -6.2586    Y=              2.8815    Z=              3.1686  Tot=              7.5837
 Quadrupole moment (field-independent basis, Debye-Ang):
   XX=           -124.2931   YY=           -105.0721   ZZ=           -105.1863
   XY=            -27.6193   XZ=              4.5460   YZ=             -2.8781

 Normal termination of Gaussian 16 at Thu May  6 03:37:57 2021.
