 Gaussian 16, Revision A.03,
 Gaussian 16:  EM64L-G16RevA.03 25-Dec-2016

 -------------
 #p 6-31g* mp2
 -------------

 ------------------------------------------------------
 Input file generated by CHIRIPA (05-May-2021 14:55:23)
 ------------------------------------------------------
 Symbolic Z-matrix:
 Charge =  0 Multiplicity = 1

                         Standard orientation:
 ---------------------------------------------------------------------
 Center     Atomic      Atomic             Coordinates (Angstroms)
 Number     Number       Type             X           Y           Z
 ---------------------------------------------------------------------
      1          6           0       -0.516967   -2.218611    0.053579
      2          6           0       -1.597538   -2.366424   -0.822229
      3          6           0       -2.663705   -1.462543   -0.793304
      4          6           0       -2.616408   -0.417767    0.128376
      5          6           0       -1.553914   -0.243799    1.013888
      6          6           0       -0.498636   -1.159638    0.967231
      7          1           0        0.307028   -2.925412    0.024223
      8          1           0       -1.614459   -3.187883   -1.532836
      9          1           0       -3.512692   -1.553417   -1.459923
     10          1           0       -1.565340    0.585115    1.711160
     11          1           0        0.339245   -1.042376    1.648590
     12          7           0       -3.739347    0.545461    0.168383
     13          8           0       -3.673791    1.457432    0.989753
     14          8           0       -4.663800    0.370229   -0.622387
     15          6           0        3.862991    0.603000   -0.118499
     16          6           0        4.203116   -0.865384    0.138692
     17          6           0        5.709111   -1.119483    0.210842
     18          1           0        4.335709    0.923323   -1.057049
     19          1           0        4.301915    1.218875    0.678645
     20          1           0        3.762509   -1.478446   -0.657949
     21          1           0        3.729374   -1.182303    1.076640
     22          1           0        6.160624   -0.532559    1.017228
     23          1           0        6.193947   -0.830385   -0.727218
     24          1           0        5.929691   -2.175496    0.395347
     25          6           0        2.361225    0.872886   -0.193264
     26          6           0        2.021099    2.341271   -0.450455
     27          6           0        0.515104    2.595370   -0.522605
     28          1           0        1.922300    0.257012   -0.990407
     29          1           0        1.888506    0.552563    0.745286
     30          1           0        2.494841    2.658189   -1.388403
     31          1           0        2.461706    2.954332    0.346186
     32          1           0        0.030267    2.306270    0.415455
     33          1           0        0.063591    2.008445   -1.328990
     34          1           0        0.294525    3.651383   -0.707109
 ---------------------------------------------------------------------

 SCF Done:  E(RHF) =  -669.534001752     A.U. after   15 cycles
 E2 =    -0.2094037812D+01 EUMP2 =    -0.67162803956353D+03

 The electronic state is 1-A.
 Alpha  occ. eigenvalues --  -20.60729 -20.60722 -15.85781 -11.31150 -11.27709
 Alpha  occ. eigenvalues --  -11.27704 -11.27440 -11.26739 -11.26704 -11.22393
 Alpha  occ. eigenvalues --  -11.21979 -11.21940 -11.21886 -11.21698 -11.21208
 Alpha  occ. eigenvalues --   -1.59801  -1.39355  -1.19323  -1.09000  -1.08708
 Alpha  occ. eigenvalues --   -1.04739  -1.04020  -0.96450  -0.95547  -0.87471
 Alpha  occ. eigenvalues --   -0.86123  -0.82393  -0.80115  -0.78848  -0.77416
 Alpha  occ. eigenvalues --   -0.72000  -0.71122  -0.70428  -0.65665  -0.64973
 Alpha  occ. eigenvalues --   -0.64741  -0.62122  -0.61396  -0.59835  -0.58072
 Alpha  occ. eigenvalues --   -0.55744  -0.55223  -0.53184  -0.53085  -0.53023
 Alpha  occ. eigenvalues --   -0.52633  -0.50381  -0.48763  -0.48755  -0.48404
 Alpha  occ. eigenvalues --   -0.47165  -0.46333  -0.46254  -0.44755  -0.44281
 Alpha  occ. eigenvalues --   -0.37274  -0.36233
 Alpha virt. eigenvalues --    0.05069   0.11251   0.16479   0.19814   0.22869
 Alpha virt. eigenvalues --    0.23574   0.24833   0.26123   0.26659   0.28581
 Alpha virt. eigenvalues --    0.29292   0.30768   0.31242   0.31376   0.31592

 Mulliken charges:
               1
     1  C   -0.172667
     2  C   -0.218887
     3  C   -0.171765
     4  C    0.158514
     5  C   -0.169524
     6  C   -0.212529
     7  H    0.226167
     8  H    0.223115
     9  H    0.275331
    10  H    0.274427
    11  H    0.223689
    12  N    0.488312
    13  O   -0.460538
    14  O   -0.460688
    15  C   -0.298141
    16  C   -0.299323
    17  C   -0.475591
    18  H    0.152338
    19  H    0.151012
    20  H    0.149105
    21  H    0.144660
    22  H    0.157264
    23  H    0.157693
    24  H    0.160056
    25  C   -0.297490
    26  C   -0.301084
    27  C   -0.474384
    28  H    0.151370
    29  H    0.140273
    30  H    0.153412
    31  H    0.152246
    32  H    0.151986
    33  H    0.156866
    34  H    0.164772
 Sum of Mulliken charges =  -0.00000

 Dipole moment (field-independent basis, Debye):
    X=              4.0054    Y=             -3.3091    Z=             -0.2182  Tot=              5.2001
 Quadrupole moment (field-independent basis, Debye-Ang):
   XX=           -115.9778   YY=            -91.1347   ZZ=            -91.4637
   XY=              8.9999   XZ=              2.5706   YZ=              1.8984

 Normal termination of Gaussian 16 at Thu May  6 03:08:42 2021.
