 Gaussian 16, Revision A.03,
 Gaussian 16:  EM64L-G16RevA.03 25-Dec-2016

 -------------
 #p 6-31g* mp2
 -------------

 ------------------------------------------------------
 Input file generated by CHIRIPA (05-May-2021 14:53:13)
 ------------------------------------------------------
 Symbolic Z-matrix:
 Charge =  0 Multiplicity = 1

                         Standard orientation:
 ---------------------------------------------------------------------
 Center     Atomic      Atomic             Coordinates (Angstroms)
 Number     Number       Type             X           Y           Z
 ---------------------------------------------------------------------
      1          6           0       -3.656944    0.799136   -0.522484
      2          6           0       -2.436425    1.711835   -0.646174
      3          6           0       -2.788030    3.099627   -1.183018
      4          1           0       -4.135950    0.702684   -1.506454
      5          1           0       -4.394993    1.273146    0.139326
      6          1           0       -1.700315    1.235612   -1.306453
      7          1           0       -1.960159    1.805972    0.338166
      8          1           0       -3.504302    3.598277   -0.522031
      9          1           0       -3.242982    3.024677   -2.175994
     10          1           0       -1.900928    3.735589   -1.263413
     11          6           0       -3.321530   -0.591767    0.012880
     12          6           0       -4.542049   -1.504466    0.136570
     13          6           0       -4.190445   -2.892258    0.673413
     14          1           0       -2.583481   -1.065777   -0.648931
     15          1           0       -2.842525   -0.495315    0.996849
     16          1           0       -5.018316   -1.598603   -0.847770
     17          1           0       -5.278160   -1.028243    0.796849
     18          1           0       -3.735493   -2.817308    1.666390
     19          1           0       -3.474172   -3.390908    0.012426
     20          1           0       -5.077546   -3.528220    0.753808
     21          6           0        4.483036   -1.052162   -1.329164
     22          6           0        4.857048   -0.199588   -0.285252
     23          6           0        3.892020    0.344296    0.567660
     24          6           0        2.556100    0.012884    0.346808
     25          6           0        2.151962   -0.833536   -0.684471
     26          6           0        3.134065   -1.365862   -1.525096
     27          1           0        5.239325   -1.470175   -1.986954
     28          1           0        5.903929    0.045780   -0.130717
     29          1           0        4.153773    1.006995    1.383583
     30          1           0        1.100491   -1.059747   -0.813531
     31          1           0        2.840688   -2.027703   -2.334999
     32          7           0        1.525429    0.582552    1.243244
     33          8           0        0.355142    0.275057    1.027577
     34          8           0        1.907392    1.325764    2.144563
 ---------------------------------------------------------------------

 SCF Done:  E(RHF) =  -669.535898733     A.U. after   15 cycles
 E2 =    -0.2091745658D+01 EUMP2 =    -0.67162764439093D+03

 The electronic state is 1-A.
 Alpha  occ. eigenvalues --  -20.60935 -20.60907 -15.85947 -11.31277 -11.27841
 Alpha  occ. eigenvalues --  -11.27837 -11.27580 -11.26851 -11.26841 -11.20903
 Alpha  occ. eigenvalues --  -11.20521 -11.20455 -11.20386 -11.20318 -11.20168
 Alpha  occ. eigenvalues --   -1.59984  -1.39539  -1.19446  -1.08851  -1.07494
 Alpha  occ. eigenvalues --   -1.04843  -1.02658  -0.95692  -0.95150  -0.86243
 Alpha  occ. eigenvalues --   -0.86170  -0.82530  -0.78703  -0.77626  -0.77204
 Alpha  occ. eigenvalues --   -0.72166  -0.71294  -0.70554  -0.65102  -0.64849
 Alpha  occ. eigenvalues --   -0.64134  -0.62190  -0.60064  -0.58516  -0.56738
 Alpha  occ. eigenvalues --   -0.55348  -0.54456  -0.53175  -0.52936  -0.51869
 Alpha  occ. eigenvalues --   -0.51567  -0.49126  -0.48948  -0.48931  -0.47051
 Alpha  occ. eigenvalues --   -0.45733  -0.45090  -0.44759  -0.44521  -0.42900
 Alpha  occ. eigenvalues --   -0.37425  -0.36445
 Alpha virt. eigenvalues --    0.04935   0.11206   0.16420   0.21069   0.23505
 Alpha virt. eigenvalues --    0.25085   0.25923   0.27542   0.27977   0.28620
 Alpha virt. eigenvalues --    0.29224   0.31188   0.32029   0.32410   0.32704

 Mulliken charges:
               1
     1  C   -0.298966
     2  C   -0.300693
     3  C   -0.475581
     4  H    0.143010
     5  H    0.147512
     6  H    0.143972
     7  H    0.175896
     8  H    0.153541
     9  H    0.149164
    10  H    0.157914
    11  C   -0.296810
    12  C   -0.299340
    13  C   -0.474520
    14  H    0.141668
    15  H    0.164734
    16  H    0.147947
    17  H    0.151210
    18  H    0.157520
    19  H    0.150868
    20  H    0.157324
    21  C   -0.170566
    22  C   -0.218611
    23  C   -0.170649
    24  C    0.157963
    25  C   -0.171251
    26  C   -0.218612
    27  H    0.225934
    28  H    0.223738
    29  H    0.275758
    30  H    0.276445
    31  H    0.223776
    32  N    0.490513
    33  O   -0.460884
    34  O   -0.459923
 Sum of Mulliken charges =  -0.00000

 Dipole moment (field-independent basis, Debye):
    X=              3.8883    Y=             -1.9818    Z=             -2.9391  Tot=              5.2616
 Quadrupole moment (field-independent basis, Debye-Ang):
   XX=            -74.8492   YY=            -95.8565   ZZ=            -95.6130
   XY=             -3.2678   XZ=             -5.7384   YZ=              1.8081

 Normal termination of Gaussian 16 at Wed May  5 17:03:36 2021.
