 Gaussian 16, Revision A.03,
 Gaussian 16:  EM64L-G16RevA.03 25-Dec-2016

 -------------
 #p 6-31g* mp2
 -------------

 ------------------------------------------------------
 Input file generated by CHIRIPA (05-May-2021 14:57:21)
 ------------------------------------------------------
 Symbolic Z-matrix:
 Charge =  0 Multiplicity = 1

                         Standard orientation:
 ---------------------------------------------------------------------
 Center     Atomic      Atomic             Coordinates (Angstroms)
 Number     Number       Type             X           Y           Z
 ---------------------------------------------------------------------
      1          6           0       -1.304183   -0.156483    0.700908
      2          6           0       -1.943907   -1.328487    0.284158
      3          6           0       -3.306208   -1.320601   -0.029885
      4          6           0       -4.001360   -0.117696    0.084451
      5          6           0       -3.392276    1.066454    0.496879
      6          6           0       -2.029131    1.035146    0.805753
      7          1           0       -0.245587   -0.171706    0.942857
      8          1           0       -1.383413   -2.255369    0.201820
      9          1           0       -3.826422   -2.213409   -0.354981
     10          1           0       -3.977446    1.975158    0.569332
     11          1           0       -1.534929    1.946861    1.129149
     12          7           0       -5.444014   -0.096949   -0.245277
     13          8           0       -6.034120    0.975693   -0.136421
     14          8           0       -5.957342   -1.153723   -0.606330
     15          6           0        4.858249   -2.137682    0.117112
     16          6           0        5.611606   -0.971444    0.287001
     17          6           0        5.015548    0.285469    0.147594
     18          6           0        3.657766    0.339487   -0.163534
     19          6           0        2.880485   -0.804345   -0.338954
     20          6           0        3.497492   -2.050564   -0.194774
     21          1           0        5.329417   -3.109929    0.227261
     22          1           0        6.668574   -1.036070    0.529251
     23          1           0        5.575219    1.204320    0.273685
     24          1           0        1.828821   -0.707978   -0.580062
     25          1           0        2.909955   -2.954604   -0.327280
     26          7           0        3.015657    1.664464   -0.313644
     27          8           0        1.817784    1.685084   -0.588068
     28          8           0        3.722406    2.657273   -0.154034
 ---------------------------------------------------------------------

 SCF Done:  E(RHF) =  -868.338393762     A.U. after   16 cycles
 E2 =    -0.2599831921D+01 EUMP2 =    -0.87093822568213D+03

 The electronic state is 1-A.
 Alpha  occ. eigenvalues --  -20.61828 -20.61768 -20.60475 -20.60461 -15.86837
 Alpha  occ. eigenvalues --  -15.85522 -11.32142 -11.30830 -11.28754 -11.28631
 Alpha  occ. eigenvalues --  -11.28362 -11.27713 -11.27625 -11.27453 -11.27322
 Alpha  occ. eigenvalues --  -11.27097 -11.26515 -11.26247  -1.60866  -1.59548
 Alpha  occ. eigenvalues --   -1.40425  -1.39103  -1.20290  -1.18991  -1.09686
 Alpha  occ. eigenvalues --   -1.08393  -1.05687  -1.04385  -0.96540  -0.95240
 Alpha  occ. eigenvalues --   -0.87084  -0.85784  -0.83374  -0.82077  -0.78450
 Alpha  occ. eigenvalues --   -0.77135  -0.73059  -0.72187  -0.71743  -0.71394
 Alpha  occ. eigenvalues --   -0.70869  -0.70088  -0.65940  -0.65678  -0.64645
 Alpha  occ. eigenvalues --   -0.64389  -0.63042  -0.61734  -0.56160  -0.54900
 Alpha  occ. eigenvalues --   -0.54003  -0.53746  -0.52708  -0.52475  -0.49820
 Alpha  occ. eigenvalues --   -0.49798  -0.48500  -0.48495  -0.45839  -0.44522
 Alpha  occ. eigenvalues --   -0.38239  -0.37286  -0.36950  -0.35980
 Alpha virt. eigenvalues --    0.04043   0.05379   0.10286   0.11652   0.15602
 Alpha virt. eigenvalues --    0.16806   0.19768   0.22028   0.25909   0.27038
 Alpha virt. eigenvalues --    0.27760   0.28986   0.30415   0.31072   0.32454

 Mulliken charges:
               1
     1  C   -0.169089
     2  C   -0.220640
     3  C   -0.171080
     4  C    0.158340
     5  C   -0.171569
     6  C   -0.215888
     7  H    0.226457
     8  H    0.213835
     9  H    0.273227
    10  H    0.276033
    11  H    0.233190
    12  N    0.488138
    13  O   -0.460050
    14  O   -0.462440
    15  C   -0.169995
    16  C   -0.217693
    17  C   -0.170041
    18  C    0.158790
    19  C   -0.178097
    20  C   -0.217991
    21  H    0.228855
    22  H    0.226957
    23  H    0.278005
    24  H    0.272834
    25  H    0.223425
    26  N    0.488511
    27  O   -0.467195
    28  O   -0.454830
 Sum of Mulliken charges =  -0.00000

 Dipole moment (field-independent basis, Debye):
    X=              7.7299    Y=             -4.5371    Z=              1.7278  Tot=              9.1281
 Quadrupole moment (field-independent basis, Debye-Ang):
   XX=           -124.6167   YY=           -102.4729   ZZ=           -106.0485
   XY=            -15.3155   XZ=             -1.6968   YZ=              2.6286

 Normal termination of Gaussian 16 at Thu May  6 14:28:19 2021.
