 Gaussian 16, Revision A.03,
 Gaussian 16:  EM64L-G16RevA.03 25-Dec-2016

 -------------
 #p 6-31g* mp2
 -------------

 ------------------------------------------------------
 Input file generated by CHIRIPA (05-May-2021 14:57:22)
 ------------------------------------------------------
 Symbolic Z-matrix:
 Charge =  0 Multiplicity = 1

                         Standard orientation:
 ---------------------------------------------------------------------
 Center     Atomic      Atomic             Coordinates (Angstroms)
 Number     Number       Type             X           Y           Z
 ---------------------------------------------------------------------
      1          6           0        2.088156    2.627412    0.251576
      2          6           0        1.323071    1.787336   -0.564168
      3          6           0        1.751536    0.486218   -0.843553
      4          6           0        2.955507    0.055882   -0.288077
      5          6           0        3.740066    0.869026    0.528353
      6          6           0        3.292089    2.166388    0.794276
      7          1           0        1.747735    3.636693    0.463380
      8          1           0        0.387668    2.142692   -0.987003
      9          1           0        1.178896   -0.185180   -1.471826
     10          1           0        4.668172    0.486533    0.935459
     11          1           0        3.888325    2.816596    1.428135
     12          7           0        3.419432   -1.319566   -0.576723
     13          8           0        4.483805   -1.674836   -0.075194
     14          8           0        2.709900   -2.016327   -1.299028
     15          6           0       -4.727248    1.106846   -0.769244
     16          6           0       -4.856078   -0.284160   -0.698366
     17          6           0       -3.838376   -1.063981   -0.140953
     18          6           0       -2.700370   -0.416896    0.338123
     19          6           0       -2.542474    0.967003    0.281725
     20          6           0       -3.572893    1.726896   -0.279835
     21          1           0       -5.522763    1.704888   -1.203867
     22          1           0       -5.751448   -0.768411   -1.077658
     23          1           0       -3.912047   -2.142612   -0.073535
     24          1           0       -1.638126    1.421159    0.668139
     25          1           0       -3.470108    2.806985   -0.333565
     26          7           0       -1.616243   -1.231909    0.930426
     27          8           0       -0.623620   -0.637707    1.345471
     28          8           0       -1.779653   -2.449484    0.968413
 ---------------------------------------------------------------------

 SCF Done:  E(RHF) =  -868.336341604     A.U. after   16 cycles
 E2 =    -0.2601913943D+01 EUMP2 =    -0.87093825554669D+03

 The electronic state is 1-A.
 Alpha  occ. eigenvalues --  -20.61045 -20.61033 -20.59985 -20.59965 -15.86080
 Alpha  occ. eigenvalues --  -15.85039 -11.31632 -11.30464 -11.28253 -11.28157
 Alpha  occ. eigenvalues --  -11.27952 -11.27307 -11.27201 -11.27154 -11.27116
 Alpha  occ. eigenvalues --  -11.27000 -11.26247 -11.26157  -1.60109  -1.59041
 Alpha  occ. eigenvalues --   -1.39659  -1.38598  -1.19812  -1.18695  -1.09166
 Alpha  occ. eigenvalues --   -1.08104  -1.05244  -1.04150  -0.95974  -0.94919
 Alpha  occ. eigenvalues --   -0.86627  -0.85571  -0.82804  -0.81775  -0.77840
 Alpha  occ. eigenvalues --   -0.76776  -0.72301  -0.71459  -0.71272  -0.70903
 Alpha  occ. eigenvalues --   -0.70338  -0.69893  -0.65457  -0.65253  -0.64397
 Alpha  occ. eigenvalues --   -0.64242  -0.62592  -0.61515  -0.55709  -0.54737
 Alpha  occ. eigenvalues --   -0.53561  -0.53345  -0.52402  -0.52287  -0.49080
 Alpha  occ. eigenvalues --   -0.49038  -0.48037  -0.48012  -0.45028  -0.43989
 Alpha  occ. eigenvalues --   -0.37788  -0.36874  -0.36684  -0.35639
 Alpha virt. eigenvalues --    0.04631   0.05866   0.10731   0.11834   0.16139
 Alpha virt. eigenvalues --    0.17224   0.20548   0.21993   0.26186   0.27507
 Alpha virt. eigenvalues --    0.28471   0.28904   0.30582   0.31222   0.32167

 Mulliken charges:
               1
     1  C   -0.171082
     2  C   -0.218652
     3  C   -0.151637
     4  C    0.161541
     5  C   -0.168463
     6  C   -0.218159
     7  H    0.219295
     8  H    0.211502
     9  H    0.272478
    10  H    0.274778
    11  H    0.220714
    12  N    0.489383
    13  O   -0.462644
    14  O   -0.459182
    15  C   -0.170602
    16  C   -0.217962
    17  C   -0.169846
    18  C    0.157413
    19  C   -0.178649
    20  C   -0.219621
    21  H    0.226806
    22  H    0.225829
    23  H    0.278766
    24  H    0.274472
    25  H    0.220998
    26  N    0.486961
    27  O   -0.460427
    28  O   -0.454009
 Sum of Mulliken charges =  -0.00000

 Dipole moment (field-independent basis, Debye):
    X=             -5.5506    Y=              7.3459    Z=             -1.0080  Tot=              9.2622
 Quadrupole moment (field-independent basis, Debye-Ang):
   XX=            -89.3132   YY=           -104.3916   ZZ=           -106.5702
   XY=             11.3940   XZ=             11.2935   YZ=              1.8608

 Normal termination of Gaussian 16 at Thu May  6 12:55:59 2021.
