 Gaussian 16, Revision A.03,
 Gaussian 16:  EM64L-G16RevA.03 25-Dec-2016

 -------------
 #p 6-31g* mp2
 -------------

 ------------------------------------------------------
 Input file generated by CHIRIPA (05-May-2021 14:51:08)
 ------------------------------------------------------
 Symbolic Z-matrix:
 Charge =  0 Multiplicity = 1

                         Standard orientation:
 ---------------------------------------------------------------------
 Center     Atomic      Atomic             Coordinates (Angstroms)
 Number     Number       Type             X           Y           Z
 ---------------------------------------------------------------------
      1          6           0       -2.297574   -0.199937    0.643092
      2          6           0       -2.008457    0.675145    1.863185
      3          6           0       -0.537646    0.641578    2.279577
      4          1           0       -2.000870   -1.234555    0.863266
      5          1           0       -1.670464    0.133371   -0.195379
      6          1           0       -2.636931    0.341171    2.698707
      7          1           0       -2.306061    1.707764    1.640149
      8          1           0        0.101744    0.994904    1.464138
      9          1           0       -0.231006   -0.379454    2.528711
     10          1           0       -0.353314    1.273979    3.153619
     11          6           0       -3.763750   -0.176787    0.214700
     12          6           0       -4.052867   -1.051869   -1.005393
     13          6           0       -5.523678   -1.018301   -1.421785
     14          1           0       -4.390860   -0.510095    1.053171
     15          1           0       -4.060454    0.857831   -0.005474
     16          1           0       -3.755263   -2.084488   -0.782357
     17          1           0       -3.424393   -0.717894   -1.840916
     18          1           0       -5.830318    0.002730   -1.670919
     19          1           0       -6.163068   -1.371628   -0.606346
     20          1           0       -5.708011   -1.650703   -2.295828
     21          6           0        3.588963   -0.302155   -0.605322
     22          6           0        3.685594   -1.483725    0.360358
     23          6           0        4.807178   -2.456240   -0.005784
     24          1           0        3.429355   -0.681430   -1.623959
     25          1           0        4.549179    0.231914   -0.617520
     26          1           0        2.725037   -2.014589    0.371775
     27          1           0        3.844799   -1.101585    1.376842
     28          1           0        5.776318   -1.947012    0.001647
     29          1           0        4.650195   -2.865203   -1.009131
     30          1           0        4.858326   -3.293233    0.697556
     31          6           0        2.472362    0.678878   -0.252470
     32          6           0        2.375730    1.860449   -1.218150
     33          6           0        1.254146    2.832964   -0.852009
     34          1           0        1.512145    0.144810   -0.240271
     35          1           0        2.631969    1.058154    0.766167
     36          1           0        2.216526    1.478309   -2.234634
     37          1           0        3.336287    2.391313   -1.229567
     38          1           0        1.411130    3.241926    0.151340
     39          1           0        0.285007    2.323736   -0.859439
     40          1           0        1.202998    3.669957   -1.555347
 ---------------------------------------------------------------------

 SCF Done:  E(RHF) =  -470.732314123     A.U. after   11 cycles
 E2 =    -0.1584169767D+01 EUMP2 =    -0.47231648388997D+03

 The electronic state is 1-A.
 Alpha  occ. eigenvalues --  -11.21643 -11.21611 -11.21582 -11.21529 -11.21411
 Alpha  occ. eigenvalues --  -11.21393 -11.21351 -11.21332 -11.21154 -11.21076
 Alpha  occ. eigenvalues --  -11.21059 -11.20843  -1.08465  -1.08398  -1.03576
 Alpha  occ. eigenvalues --   -1.03469  -0.96007  -0.95934  -0.87036  -0.86946
 Alpha  occ. eigenvalues --   -0.79702  -0.79502  -0.78372  -0.78114  -0.65131
 Alpha  occ. eigenvalues --   -0.64997  -0.61008  -0.60855  -0.59411  -0.59279
 Alpha  occ. eigenvalues --   -0.57652  -0.57519  -0.55299  -0.55223  -0.52718
 Alpha  occ. eigenvalues --   -0.52620  -0.52522  -0.52283  -0.49975  -0.49893
 Alpha  occ. eigenvalues --   -0.48146  -0.47742  -0.46731  -0.46592  -0.46022
 Alpha  occ. eigenvalues --   -0.45732  -0.45718  -0.45170  -0.43799  -0.43751
 Alpha virt. eigenvalues --    0.20382   0.23107   0.23595   0.24871   0.25806
 Alpha virt. eigenvalues --    0.26603   0.26729   0.27691   0.28007   0.29778
 Alpha virt. eigenvalues --    0.30655   0.31243   0.31470   0.31805   0.32036

 Mulliken charges:
               1
     1  C   -0.300994
     2  C   -0.299123
     3  C   -0.485754
     4  H    0.149547
     5  H    0.149731
     6  H    0.151395
     7  H    0.151751
     8  H    0.170041
     9  H    0.153682
    10  H    0.158489
    11  C   -0.298146
    12  C   -0.299632
    13  C   -0.475704
    14  H    0.149874
    15  H    0.149835
    16  H    0.151844
    17  H    0.151570
    18  H    0.155275
    19  H    0.155264
    20  H    0.160208
    21  C   -0.297375
    22  C   -0.299706
    23  C   -0.475742
    24  H    0.149435
    25  H    0.149353
    26  H    0.152176
    27  H    0.152310
    28  H    0.155124
    29  H    0.155099
    30  H    0.160226
    31  C   -0.304354
    32  C   -0.298831
    33  C   -0.480108
    34  H    0.153660
    35  H    0.151697
    36  H    0.151809
    37  H    0.152163
    38  H    0.156626
    39  H    0.156299
    40  H    0.160989
 Sum of Mulliken charges =  -0.00000

 Dipole moment (field-independent basis, Debye):
    X=              0.0437    Y=              0.0164    Z=             -0.0164  Tot=              0.0495
 Quadrupole moment (field-independent basis, Debye-Ang):
   XX=            -85.9762   YY=            -84.4726   ZZ=            -84.3895
   XY=              1.0860   XZ=              0.0050   YZ=             -0.3327

 Normal termination of Gaussian 16 at Wed May  5 21:17:46 2021.
