 Gaussian 16, Revision A.03,
 Gaussian 16:  EM64L-G16RevA.03 25-Dec-2016

 -------------
 #p 6-31g* mp2
 -------------

 ------------------------------------------------------
 Input file generated by CHIRIPA (05-May-2021 14:53:17)
 ------------------------------------------------------
 Symbolic Z-matrix:
 Charge =  0 Multiplicity = 1

                         Standard orientation:
 ---------------------------------------------------------------------
 Center     Atomic      Atomic             Coordinates (Angstroms)
 Number     Number       Type             X           Y           Z
 ---------------------------------------------------------------------
      1          6           0       -3.397380   -0.258247   -0.310703
      2          6           0       -4.323424   -1.099685    0.568166
      3          6           0       -4.364246   -2.568940    0.146954
      4          1           0       -3.727077   -0.332458   -1.356043
      5          1           0       -2.383479   -0.680035   -0.272044
      6          1           0       -5.334980   -0.675619    0.528955
      7          1           0       -3.991599   -1.023309    1.611562
      8          1           0       -3.365495   -3.013799    0.203506
      9          1           0       -4.716509   -2.664132   -0.885252
     10          1           0       -5.032208   -3.152095    0.788527
     11          6           0       -3.345950    1.212840    0.097935
     12          6           0       -2.419907    2.054278   -0.780934
     13          6           0       -2.379085    3.523532   -0.359722
     14          1           0       -4.359852    1.634627    0.059276
     15          1           0       -3.016253    1.287051    1.143276
     16          1           0       -2.751732    1.977902   -1.824330
     17          1           0       -1.408350    1.630211   -0.741723
     18          1           0       -2.026821    3.618725    0.672484
     19          1           0       -3.377836    3.968391   -0.416274
     20          1           0       -1.711122    4.106688   -1.001294
     21          6           0        4.945833    0.637623    0.055817
     22          6           0        3.968837    1.148146    0.916843
     23          6           0        2.684621    0.596074    0.940423
     24          6           0        2.410625   -0.470580    0.085751
     25          6           0        3.362544   -1.001356   -0.783396
     26          6           0        4.640107   -0.433610   -0.790064
     27          1           0        5.940859    1.072573    0.044068
     28          1           0        4.203436    1.980020    1.574865
     29          1           0        1.909304    0.971778    1.597042
     30          1           0        3.098856   -1.831235   -1.427747
     31          1           0        5.396869   -0.832136   -1.459791
     32          7           0        1.054604   -1.063330    0.101762
     33          8           0        0.838395   -2.002526   -0.660997
     34          8           0        0.233642   -0.577510    0.876768
 ---------------------------------------------------------------------

 SCF Done:  E(RHF) =  -669.537039042     A.U. after   15 cycles
 E2 =    -0.2091921923D+01 EUMP2 =    -0.67162896096489D+03

 The electronic state is 1-A.
 Alpha  occ. eigenvalues --  -20.61186 -20.61171 -15.86169 -11.31411 -11.27960
 Alpha  occ. eigenvalues --  -11.27956 -11.27683 -11.26947 -11.26937 -11.20575
 Alpha  occ. eigenvalues --  -11.20385 -11.20220 -11.20121 -11.19737 -11.19667
 Alpha  occ. eigenvalues --   -1.60214  -1.39773  -1.19568  -1.08989  -1.07099
 Alpha  occ. eigenvalues --   -1.04950  -1.02356  -0.95844  -0.94802  -0.86355
 Alpha  occ. eigenvalues --   -0.85830  -0.82680  -0.78439  -0.77745  -0.76873
 Alpha  occ. eigenvalues --   -0.72388  -0.71512  -0.70676  -0.65226  -0.64954
 Alpha  occ. eigenvalues --   -0.63696  -0.62297  -0.59750  -0.58213  -0.56421
 Alpha  occ. eigenvalues --   -0.55460  -0.54081  -0.53285  -0.53040  -0.51579
 Alpha  occ. eigenvalues --   -0.51246  -0.49241  -0.49149  -0.48673  -0.46766
 Alpha  occ. eigenvalues --   -0.45515  -0.45196  -0.44454  -0.44105  -0.42550
 Alpha  occ. eigenvalues --   -0.37540  -0.36545
 Alpha virt. eigenvalues --    0.04750   0.11108   0.16243   0.21224   0.24134
 Alpha virt. eigenvalues --    0.25420   0.27173   0.27725   0.28286   0.28857
 Alpha virt. eigenvalues --    0.29145   0.30913   0.32198   0.32588   0.32742

 Mulliken charges:
               1
     1  C   -0.309957
     2  C   -0.297581
     3  C   -0.476970
     4  H    0.141594
     5  H    0.180090
     6  H    0.144513
     7  H    0.152215
     8  H    0.164845
     9  H    0.151060
    10  H    0.153967
    11  C   -0.294550
    12  C   -0.300357
    13  C   -0.474888
    14  H    0.142586
    15  H    0.150788
    16  H    0.148302
    17  H    0.155927
    18  H    0.152338
    19  H    0.153369
    20  H    0.154600
    21  C   -0.170255
    22  C   -0.218513
    23  C   -0.170536
    24  C    0.158355
    25  C   -0.170510
    26  C   -0.218610
    27  H    0.226495
    28  H    0.224376
    29  H    0.275958
    30  H    0.276154
    31  H    0.224272
    32  N    0.488446
    33  O   -0.457761
    34  O   -0.459762
 Sum of Mulliken charges =  -0.00000

 Dipole moment (field-independent basis, Debye):
    X=              5.2328    Y=              1.8910    Z=             -0.0057  Tot=              5.5640
 Quadrupole moment (field-independent basis, Debye-Ang):
   XX=            -72.6903   YY=            -96.8832   ZZ=            -92.4937
   XY=              1.7996   XZ=             -0.5701   YZ=              2.7888

 Normal termination of Gaussian 16 at Thu May  6 12:16:19 2021.
