 Gaussian 16, Revision A.03,
 Gaussian 16:  EM64L-G16RevA.03 25-Dec-2016

 -------------
 #p 6-31g* mp2
 -------------

 ------------------------------------------------------
 Input file generated by CHIRIPA (05-May-2021 14:53:12)
 ------------------------------------------------------
 Symbolic Z-matrix:
 Charge =  0 Multiplicity = 1

                         Standard orientation:
 ---------------------------------------------------------------------
 Center     Atomic      Atomic             Coordinates (Angstroms)
 Number     Number       Type             X           Y           Z
 ---------------------------------------------------------------------
      1          6           0        3.627804   -0.345581    0.001923
      2          6           0        2.998278   -1.602553   -0.599493
      3          6           0        3.720578   -2.883585   -0.181121
      4          1           0        4.682036   -0.289785   -0.302093
      5          1           0        3.622464   -0.429522    1.097515
      6          1           0        3.003547   -1.515654   -1.693585
      7          1           0        1.945371   -1.655263   -0.294167
      8          1           0        3.703465   -2.997466    0.907612
      9          1           0        4.767654   -2.857064   -0.499758
     10          1           0        3.254041   -3.769899   -0.622314
     11          6           0        2.916803    0.943170   -0.407135
     12          6           0        3.546329    2.200142    0.194281
     13          6           0        2.824029    3.481174   -0.224091
     14          1           0        2.922143    1.027111   -1.502726
     15          1           0        1.862571    0.887374   -0.103118
     16          1           0        4.599236    2.252852   -0.111045
     17          1           0        3.541060    2.113243    1.288373
     18          1           0        1.776953    3.454653    0.094546
     19          1           0        2.841142    3.595054   -1.312824
     20          1           0        3.290566    4.367488    0.217102
     21          6           0       -4.608401    1.089586   -0.478261
     22          6           0       -3.552978    1.714869    0.193767
     23          6           0       -2.411225    0.991638    0.551378
     24          6           0       -2.358116   -0.361338    0.219825
     25          6           0       -3.393145   -1.012710   -0.449291
     26          6           0       -4.525264   -0.269812   -0.797084
     27          1           0       -5.491600    1.659049   -0.752247
     28          1           0       -3.614794    2.770463    0.442655
     29          1           0       -1.579579    1.450664    1.072029
     30          1           0       -3.302557   -2.066368   -0.683847
     31          1           0       -5.343392   -0.758041   -1.318949
     32          7           0       -1.154493   -1.137401    0.593214
     33          8           0       -1.132159   -2.328201    0.289677
     34          8           0       -0.256219   -0.540184    1.182342
 ---------------------------------------------------------------------

 SCF Done:  E(RHF) =  -669.537005336     A.U. after   15 cycles
 E2 =    -0.2092553958D+01 EUMP2 =    -0.67162955929433D+03

 The electronic state is 1-A.
 Alpha  occ. eigenvalues --  -20.61207 -20.61198 -15.86182 -11.31418 -11.27967
 Alpha  occ. eigenvalues --  -11.27961 -11.27686 -11.26949 -11.26940 -11.20809
 Alpha  occ. eigenvalues --  -11.20611 -11.20197 -11.20059 -11.19945 -11.19698
 Alpha  occ. eigenvalues --   -1.60231  -1.39791  -1.19573  -1.08995  -1.07241
 Alpha  occ. eigenvalues --   -1.04954  -1.02417  -0.95852  -0.94911  -0.86359
 Alpha  occ. eigenvalues --   -0.85944  -0.82693  -0.78517  -0.77758  -0.77007
 Alpha  occ. eigenvalues --   -0.72404  -0.71529  -0.70682  -0.65233  -0.64957
 Alpha  occ. eigenvalues --   -0.63837  -0.62303  -0.59805  -0.58329  -0.56502
 Alpha  occ. eigenvalues --   -0.55463  -0.54204  -0.53289  -0.53044  -0.51657
 Alpha  occ. eigenvalues --   -0.51353  -0.49268  -0.49173  -0.48822  -0.46830
 Alpha  occ. eigenvalues --   -0.45584  -0.45286  -0.44564  -0.44158  -0.42642
 Alpha  occ. eigenvalues --   -0.37541  -0.36548
 Alpha virt. eigenvalues --    0.04695   0.11104   0.16178   0.21089   0.23875
 Alpha virt. eigenvalues --    0.25299   0.26828   0.27488   0.28161   0.28906
 Alpha virt. eigenvalues --    0.29217   0.31104   0.31848   0.32497   0.33046

 Mulliken charges:
               1
     1  C   -0.294065
     2  C   -0.309689
     3  C   -0.473967
     4  H    0.142199
     5  H    0.152269
     6  H    0.142223
     7  H    0.178048
     8  H    0.156345
     9  H    0.147551
    10  H    0.158969
    11  C   -0.305709
    12  C   -0.298574
    13  C   -0.473565
    14  H    0.142495
    15  H    0.164268
    16  H    0.149280
    17  H    0.152491
    18  H    0.148948
    19  H    0.153195
    20  H    0.157257
    21  C   -0.170186
    22  C   -0.218493
    23  C   -0.170452
    24  C    0.159770
    25  C   -0.170506
    26  C   -0.218621
    27  H    0.226564
    28  H    0.224518
    29  H    0.275692
    30  H    0.276151
    31  H    0.224304
    32  N    0.488788
    33  O   -0.457562
    34  O   -0.459936
 Sum of Mulliken charges =  -0.00000

 Dipole moment (field-independent basis, Debye):
    X=             -4.6958    Y=              2.5967    Z=             -1.1771  Tot=              5.4936
 Quadrupole moment (field-independent basis, Debye-Ang):
   XX=            -75.3484   YY=            -95.1715   ZZ=            -94.8039
   XY=             -2.7888   XZ=              3.1837   YZ=              3.1040

 Normal termination of Gaussian 16 at Wed May  5 23:21:31 2021.
