 Gaussian 16, Revision A.03,
 Gaussian 16:  EM64L-G16RevA.03 25-Dec-2016

 -------------
 #p 6-31g* mp2
 -------------

 ------------------------------------------------------
 Input file generated by CHIRIPA (05-May-2021 14:55:21)
 ------------------------------------------------------
 Symbolic Z-matrix:
 Charge =  0 Multiplicity = 1

                         Standard orientation:
 ---------------------------------------------------------------------
 Center     Atomic      Atomic             Coordinates (Angstroms)
 Number     Number       Type             X           Y           Z
 ---------------------------------------------------------------------
      1          6           0        0.618326   -1.536876    0.985539
      2          6           0        0.753672   -1.330287   -0.391241
      3          6           0        1.824396   -0.586215   -0.895676
      4          6           0        2.745462   -0.060895    0.009291
      5          6           0        2.637938   -0.249295    1.386330
      6          6           0        1.559232   -0.996673    1.868374
      7          1           0       -0.216539   -2.116173    1.368700
      8          1           0        0.024467   -1.748623   -1.079209
      9          1           0        1.953287   -0.410901   -1.956840
     10          1           0        3.380811    0.180293    2.047398
     11          1           0        1.456647   -1.155500    2.938091
     12          7           0        3.883215    0.728571   -0.512879
     13          8           0        4.681196    1.180766    0.305278
     14          8           0        3.955460    0.880210   -1.730427
     15          6           0       -2.853481   -0.391223   -0.170206
     16          6           0       -3.683639   -1.649911   -0.424223
     17          6           0       -2.827883   -2.913505   -0.518075
     18          1           0       -2.115928   -0.277242   -0.976413
     19          1           0       -2.282597   -0.518484    0.760005
     20          1           0       -4.253847   -1.519761   -1.352954
     21          1           0       -4.419428   -1.760805    0.382581
     22          1           0       -2.270117   -3.070899    0.410754
     23          1           0       -2.103595   -2.828485   -1.334641
     24          1           0       -3.441500   -3.801348   -0.699928
     25          6           0       -3.694863    0.880205   -0.073895
     26          6           0       -2.864705    2.138894    0.180124
     27          6           0       -3.720459    3.402487    0.273975
     28          1           0       -4.265746    1.007465   -1.004104
     29          1           0       -4.432415    0.766224    0.732313
     30          1           0       -2.128915    2.249786   -0.626680
     31          1           0       -2.294497    2.008744    1.108854
     32          1           0       -4.444748    3.317468    1.090541
     33          1           0       -4.278225    3.559881   -0.654854
     34          1           0       -3.106843    4.290330    0.455828
 ---------------------------------------------------------------------

 SCF Done:  E(RHF) =  -669.533659379     A.U. after   15 cycles
 E2 =    -0.2094051384D+01 EUMP2 =    -0.67162771076284D+03

 The electronic state is 1-A.
 Alpha  occ. eigenvalues --  -20.60705 -20.60700 -15.85757 -11.31101 -11.27669
 Alpha  occ. eigenvalues --  -11.27646 -11.27363 -11.26687 -11.26603 -11.22631
 Alpha  occ. eigenvalues --  -11.22502 -11.22270 -11.22061 -11.21996 -11.21411
 Alpha  occ. eigenvalues --   -1.59781  -1.39335  -1.19269  -1.09251  -1.08657
 Alpha  occ. eigenvalues --   -1.04677  -1.04335  -0.96818  -0.95509  -0.87839
 Alpha  occ. eigenvalues --   -0.86079  -0.82347  -0.80434  -0.79013  -0.77382
 Alpha  occ. eigenvalues --   -0.71976  -0.71103  -0.70405  -0.65890  -0.64918
 Alpha  occ. eigenvalues --   -0.64699  -0.62093  -0.61707  -0.60173  -0.58412
 Alpha  occ. eigenvalues --   -0.56167  -0.55177  -0.53510  -0.53343  -0.52943
 Alpha  occ. eigenvalues --   -0.52750  -0.50783  -0.48784  -0.48735  -0.48644
 Alpha  occ. eigenvalues --   -0.47411  -0.46512  -0.46410  -0.44746  -0.44557
 Alpha  occ. eigenvalues --   -0.37192  -0.36249
 Alpha virt. eigenvalues --    0.05106   0.11328   0.16483   0.19285   0.22623
 Alpha virt. eigenvalues --    0.23877   0.24139   0.25993   0.27054   0.27654
 Alpha virt. eigenvalues --    0.29139   0.30263   0.31116   0.31781   0.32087

 Mulliken charges:
               1
     1  C   -0.174128
     2  C   -0.218312
     3  C   -0.174113
     4  C    0.158906
     5  C   -0.170993
     6  C   -0.220365
     7  H    0.229191
     8  H    0.229768
     9  H    0.275149
    10  H    0.275080
    11  H    0.222967
    12  N    0.487999
    13  O   -0.460756
    14  O   -0.460787
    15  C   -0.301216
    16  C   -0.300154
    17  C   -0.481673
    18  H    0.148532
    19  H    0.147280
    20  H    0.156490
    21  H    0.155251
    22  H    0.148144
    23  H    0.151335
    24  H    0.169010
    25  C   -0.298856
    26  C   -0.299933
    27  C   -0.476378
    28  H    0.151349
    29  H    0.150371
    30  H    0.154317
    31  H    0.152345
    32  H    0.155013
    33  H    0.156039
    34  H    0.163128
 Sum of Mulliken charges =  -0.00000

 Dipole moment (field-independent basis, Debye):
    X=             -4.2247    Y=             -2.7178    Z=              1.8119  Tot=              5.3402
 Quadrupole moment (field-independent basis, Debye-Ang):
   XX=           -116.6439   YY=            -95.8315   ZZ=            -89.4669
   XY=             -6.6082   XZ=              6.9124   YZ=              0.4159

 Normal termination of Gaussian 16 at Wed May  5 15:56:11 2021.
