 Gaussian 16, Revision A.03,
 Gaussian 16:  EM64L-G16RevA.03 25-Dec-2016

 -------------
 #p 6-31g* mp2
 -------------

 ------------------------------------------------------
 Input file generated by CHIRIPA (05-May-2021 14:57:22)
 ------------------------------------------------------
 Symbolic Z-matrix:
 Charge =  0 Multiplicity = 1

                         Standard orientation:
 ---------------------------------------------------------------------
 Center     Atomic      Atomic             Coordinates (Angstroms)
 Number     Number       Type             X           Y           Z
 ---------------------------------------------------------------------
      1          6           0        2.070084    2.681746   -0.591670
      2          6           0        3.360663    2.327825   -0.184648
      3          6           0        3.683209    0.991690    0.070802
      4          6           0        2.686230    0.030982   -0.091571
      5          6           0        1.391311    0.352068   -0.495770
      6          6           0        1.091252    1.694479   -0.745660
      7          1           0        1.828257    3.722126   -0.787950
      8          1           0        4.122847    3.092429   -0.064230
      9          1           0        4.674316    0.689870    0.387076
     10          1           0        0.652719   -0.432476   -0.607088
     11          1           0        0.088132    1.966422   -1.061636
     12          7           0        3.015792   -1.386847    0.175920
     13          8           0        2.119562   -2.214364    0.025507
     14          8           0        4.164092   -1.643777    0.530927
     15          6           0       -1.804220   -2.606278   -0.308929
     16          6           0       -1.368297   -1.913275    0.825195
     17          6           0       -1.820314   -0.615387    1.081549
     18          6           0       -2.711933   -0.038278    0.178638
     19          6           0       -3.164622   -0.702940   -0.960040
     20          6           0       -2.699413   -1.999968   -1.196362
     21          1           0       -1.447959   -3.614175   -0.500290
     22          1           0       -0.673104   -2.381649    1.516121
     23          1           0       -1.499043   -0.056128    1.951855
     24          1           0       -3.857901   -0.209756   -1.630526
     25          1           0       -3.039657   -2.535778   -2.077945
     26          7           0       -3.197446    1.335282    0.439425
     27          8           0       -3.982729    1.821525   -0.371460
     28          8           0       -2.783515    1.899628    1.449777
 ---------------------------------------------------------------------

 SCF Done:  E(RHF) =  -868.339762439     A.U. after   16 cycles
 E2 =    -0.2602192349D+01 EUMP2 =    -0.87094195478762D+03

 The electronic state is 1-A.
 Alpha  occ. eigenvalues --  -20.61243 -20.61240 -20.61231 -20.61177 -15.86284
 Alpha  occ. eigenvalues --  -15.86248 -11.31510 -11.31264 -11.28041 -11.27953
 Alpha  occ. eigenvalues --  -11.27828 -11.27692 -11.27568 -11.27462 -11.26971
 Alpha  occ. eigenvalues --  -11.26767 -11.26756 -11.26691  -1.60331  -1.60286
 Alpha  occ. eigenvalues --   -1.39879  -1.39851  -1.19657  -1.19412  -1.09019
 Alpha  occ. eigenvalues --   -1.08868  -1.05008  -1.04744  -0.95881  -0.95758
 Alpha  occ. eigenvalues --   -0.86341  -0.86173  -0.82699  -0.82608  -0.77836
 Alpha  occ. eigenvalues --   -0.77670  -0.72505  -0.72468  -0.71686  -0.71600
 Alpha  occ. eigenvalues --   -0.70612  -0.70506  -0.65230  -0.65080  -0.64851
 Alpha  occ. eigenvalues --   -0.64762  -0.62286  -0.62152  -0.55350  -0.55291
 Alpha  occ. eigenvalues --   -0.53526  -0.53110  -0.52970  -0.52632  -0.49269
 Alpha  occ. eigenvalues --   -0.49257  -0.49211  -0.49193  -0.45334  -0.45306
 Alpha  occ. eigenvalues --   -0.37587  -0.37384  -0.36817  -0.36087
 Alpha virt. eigenvalues --    0.04493   0.04955   0.11005   0.11287   0.16228
 Alpha virt. eigenvalues --    0.16398   0.21402   0.21591   0.27092   0.27422
 Alpha virt. eigenvalues --    0.28310   0.28532   0.30850   0.31400   0.32394

 Mulliken charges:
               1
     1  C   -0.168663
     2  C   -0.219401
     3  C   -0.170633
     4  C    0.153114
     5  C   -0.177183
     6  C   -0.220799
     7  H    0.229697
     8  H    0.224119
     9  H    0.274620
    10  H    0.284035
    11  H    0.227201
    12  N    0.488727
    13  O   -0.471968
    14  O   -0.457936
    15  C   -0.169254
    16  C   -0.220522
    17  C   -0.180183
    18  C    0.152237
    19  C   -0.174881
    20  C   -0.220423
    21  H    0.235904
    22  H    0.239329
    23  H    0.277097
    24  H    0.275144
    25  H    0.225608
    26  N    0.486349
    27  O   -0.461212
    28  O   -0.460124
 Sum of Mulliken charges =  -0.00000

 Dipole moment (field-independent basis, Debye):
    X=              0.5584    Y=              0.0106    Z=             -1.8087  Tot=              1.8930
 Quadrupole moment (field-independent basis, Debye-Ang):
   XX=           -115.4400   YY=           -103.8924   ZZ=           -102.1563
   XY=             28.8999   XZ=              4.2084   YZ=             -0.9895

 Normal termination of Gaussian 16 at Fri May  7 01:45:10 2021.
