 Gaussian 16, Revision A.03,
 Gaussian 16:  EM64L-G16RevA.03 25-Dec-2016

 -------------
 #p 6-31g* mp2
 -------------

 ------------------------------------------------------
 Input file generated by CHIRIPA (05-May-2021 14:51:12)
 ------------------------------------------------------
 Symbolic Z-matrix:
 Charge =  0 Multiplicity = 1

                         Standard orientation:
 ---------------------------------------------------------------------
 Center     Atomic      Atomic             Coordinates (Angstroms)
 Number     Number       Type             X           Y           Z
 ---------------------------------------------------------------------
      1          6           0       -3.937436   -0.292713    0.230547
      2          6           0       -4.456960    0.293620   -1.082576
      3          6           0       -5.983052    0.276152   -1.174952
      4          1           0       -4.300622   -1.324468    0.333120
      5          1           0       -4.363054    0.273446    1.070612
      6          1           0       -4.029400   -0.272601   -1.919954
      7          1           0       -4.092338    1.324036   -1.182126
      8          1           0       -6.425051    0.857291   -0.359161
      9          1           0       -6.361756   -0.748418   -1.101180
     10          1           0       -6.332830    0.699798   -2.121545
     11          6           0       -2.413586   -0.282196    0.337777
     12          6           0       -1.894062   -0.868529    1.650900
     13          6           0       -0.367970   -0.851060    1.743275
     14          1           0       -1.987969   -0.848355   -0.502288
     15          1           0       -2.050400    0.749559    0.235203
     16          1           0       -2.258685   -1.898945    1.750450
     17          1           0       -2.321622   -0.302308    2.488278
     18          1           0        0.010733    0.173509    1.669504
     19          1           0        0.074028   -1.432200    0.927484
     20          1           0       -0.018193   -1.274706    2.689869
     21          6           0        3.266475    1.026317   -0.455158
     22          6           0        2.427592    1.958826    0.419307
     23          6           0        2.620380    3.433683    0.065158
     24          1           0        4.327113    1.293808   -0.352976
     25          1           0        3.003374    1.188594   -1.509596
     26          1           0        2.691207    1.793856    1.471878
     27          1           0        1.368844    1.688960    0.315180
     28          1           0        2.338705    3.619799   -0.976294
     29          1           0        3.668582    3.725292    0.186978
     30          1           0        2.011472    4.082502    0.702436
     31          6           0        3.084548   -0.451408   -0.113166
     32          6           0        3.923431   -1.383917   -0.987630
     33          6           0        3.730642   -2.858775   -0.633481
     34          1           0        3.347648   -0.613685    0.941272
     35          1           0        2.023910   -0.718900   -0.215347
     36          1           0        4.982178   -1.114050   -0.883503
     37          1           0        3.659815   -1.218947   -2.040203
     38          1           0        2.682441   -3.150383   -0.755302
     39          1           0        4.012318   -3.044891    0.407970
     40          1           0        4.339550   -3.507593   -1.270760
 ---------------------------------------------------------------------

 SCF Done:  E(RHF) =  -470.732348390     A.U. after   11 cycles
 E2 =    -0.1583783262D+01 EUMP2 =    -0.47231613165167D+03

 The electronic state is 1-A.
 Alpha  occ. eigenvalues --  -11.21621 -11.21581 -11.21566 -11.21543 -11.21431
 Alpha  occ. eigenvalues --  -11.21371 -11.21334 -11.21230 -11.21086 -11.21059
 Alpha  occ. eigenvalues --  -11.21048 -11.20982  -1.08452  -1.08369  -1.03532
 Alpha  occ. eigenvalues --   -1.03495  -0.95999  -0.95924  -0.87010  -0.86953
 Alpha  occ. eigenvalues --   -0.79637  -0.79560  -0.78341  -0.78079  -0.65077
 Alpha  occ. eigenvalues --   -0.65018  -0.61022  -0.60820  -0.59362  -0.59301
 Alpha  occ. eigenvalues --   -0.57661  -0.57505  -0.55341  -0.55169  -0.52717
 Alpha  occ. eigenvalues --   -0.52650  -0.52452  -0.52309  -0.50042  -0.49794
 Alpha  occ. eigenvalues --   -0.48051  -0.47874  -0.46760  -0.46423  -0.46038
 Alpha  occ. eigenvalues --   -0.45715  -0.45657  -0.45230  -0.43787  -0.43733
 Alpha virt. eigenvalues --    0.21590   0.23115   0.23591   0.24087   0.25973
 Alpha virt. eigenvalues --    0.26376   0.26835   0.27654   0.27882   0.29437
 Alpha virt. eigenvalues --    0.30284   0.31321   0.31829   0.32095   0.32305

 Mulliken charges:
               1
     1  C   -0.298154
     2  C   -0.299678
     3  C   -0.475721
     4  H    0.149840
     5  H    0.149711
     6  H    0.151790
     7  H    0.151916
     8  H    0.155257
     9  H    0.155229
    10  H    0.160285
    11  C   -0.298483
    12  C   -0.299883
    13  C   -0.482283
    14  H    0.148628
    15  H    0.149080
    16  H    0.151700
    17  H    0.151702
    18  H    0.161999
    19  H    0.157006
    20  H    0.160033
    21  C   -0.297738
    22  C   -0.303829
    23  C   -0.475254
    24  H    0.149240
    25  H    0.148952
    26  H    0.152018
    27  H    0.155654
    28  H    0.155090
    29  H    0.155226
    30  H    0.159682
    31  C   -0.303485
    32  C   -0.299395
    33  C   -0.475533
    34  H    0.149446
    35  H    0.157409
    36  H    0.151561
    37  H    0.151327
    38  H    0.154124
    39  H    0.155408
    40  H    0.160119
 Sum of Mulliken charges =  -0.00000

 Dipole moment (field-independent basis, Debye):
    X=             -0.0075    Y=             -0.0003    Z=              0.0197  Tot=              0.0211
 Quadrupole moment (field-independent basis, Debye-Ang):
   XX=            -85.5097   YY=            -85.2339   ZZ=            -84.2303
   XY=              0.0245   XZ=              0.3463   YZ=              0.6082

 Normal termination of Gaussian 16 at Thu May  6 03:56:30 2021.
