 Gaussian 16, Revision A.03,
 Gaussian 16:  EM64L-G16RevA.03 25-Dec-2016

 -------------
 #p 6-31g* mp2
 -------------

 ------------------------------------------------------
 Input file generated by CHIRIPA (05-May-2021 14:57:21)
 ------------------------------------------------------
 Symbolic Z-matrix:
 Charge =  0 Multiplicity = 1

                         Standard orientation:
 ---------------------------------------------------------------------
 Center     Atomic      Atomic             Coordinates (Angstroms)
 Number     Number       Type             X           Y           Z
 ---------------------------------------------------------------------
      1          6           0       -1.583513    0.430262    2.409560
      2          6           0       -2.388391    1.316824    1.686580
      3          6           0       -2.911706    0.948329    0.443640
      4          6           0       -2.608588   -0.320195   -0.048554
      5          6           0       -1.809788   -1.225831    0.647888
      6          6           0       -1.297285   -0.836004    1.888824
      7          1           0       -1.181188    0.724803    3.374327
      8          1           0       -2.612339    2.300862    2.088528
      9          1           0       -3.537569    1.614971   -0.137138
     10          1           0       -1.604032   -2.200033    0.221256
     11          1           0       -0.672494   -1.526585    2.448091
     12          7           0       -3.156876   -0.721596   -1.363339
     13          8           0       -2.875065   -1.844855   -1.775053
     14          8           0       -3.858052    0.094646   -1.957256
     15          6           0        3.557827   -1.997118    0.298165
     16          6           0        2.600618   -1.473329    1.173332
     17          6           0        2.017962   -0.226995    0.924914
     18          6           0        2.417719    0.471673   -0.213218
     19          6           0        3.368782   -0.023458   -1.104069
     20          6           0        3.938184   -1.271789   -0.835743
     21          1           0        4.005301   -2.966076    0.498874
     22          1           0        2.303305   -2.034410    2.054716
     23          1           0        1.274604    0.202092    1.585763
     24          1           0        3.644890    0.559240   -1.974498
     25          1           0        4.681322   -1.676097   -1.517157
     26          7           0        1.807903    1.792168   -0.486745
     27          8           0        2.177202    2.387953   -1.496347
     28          8           0        0.972177    2.206384    0.313646
 ---------------------------------------------------------------------

 SCF Done:  E(RHF) =  -868.336033625     A.U. after   16 cycles
 E2 =    -0.2603364598D+01 EUMP2 =    -0.87093939822339D+03

 The electronic state is 1-A.
 Alpha  occ. eigenvalues --  -20.61015 -20.60997 -20.60587 -20.60560 -15.86060
 Alpha  occ. eigenvalues --  -15.85630 -11.31417 -11.31007 -11.28010 -11.28006
 Alpha  occ. eigenvalues --  -11.27812 -11.27665 -11.27484 -11.27370 -11.27122
 Alpha  occ. eigenvalues --  -11.26992 -11.26776 -11.26503  -1.60079  -1.59649
 Alpha  occ. eigenvalues --   -1.39633  -1.39203  -1.19632  -1.19190  -1.09022
 Alpha  occ. eigenvalues --   -1.08613  -1.05074  -1.04590  -0.95856  -0.95430
 Alpha  occ. eigenvalues --   -0.86460  -0.86027  -0.82707  -0.82261  -0.77763
 Alpha  occ. eigenvalues --   -0.77287  -0.72296  -0.71856  -0.71400  -0.70967
 Alpha  occ. eigenvalues --   -0.70761  -0.70328  -0.65306  -0.65106  -0.64860
 Alpha  occ. eigenvalues --   -0.64669  -0.62465  -0.61915  -0.55570  -0.55149
 Alpha  occ. eigenvalues --   -0.53494  -0.53300  -0.52723  -0.52607  -0.49049
 Alpha  occ. eigenvalues --   -0.49031  -0.48615  -0.48602  -0.45031  -0.44605
 Alpha  occ. eigenvalues --   -0.37636  -0.37233  -0.36841  -0.35822
 Alpha virt. eigenvalues --    0.04717   0.05299   0.10907   0.11435   0.16188
 Alpha virt. eigenvalues --    0.16734   0.19806   0.22195   0.25519   0.27719
 Alpha virt. eigenvalues --    0.28109   0.29397   0.29978   0.31872   0.33058

 Mulliken charges:
               1
     1  C   -0.169571
     2  C   -0.204129
     3  C   -0.165724
     4  C    0.158431
     5  C   -0.168980
     6  C   -0.229138
     7  H    0.224114
     8  H    0.227591
     9  H    0.277982
    10  H    0.273289
    11  H    0.214044
    12  N    0.488139
    13  O   -0.463049
    14  O   -0.457916
    15  C   -0.168902
    16  C   -0.225190
    17  C   -0.165590
    18  C    0.154499
    19  C   -0.168240
    20  C   -0.218977
    21  H    0.226295
    22  H    0.216019
    23  H    0.276114
    24  H    0.277510
    25  H    0.225263
    26  N    0.488351
    27  O   -0.458065
    28  O   -0.464171
 Sum of Mulliken charges =  -0.00000

 Dipole moment (field-independent basis, Debye):
    X=              3.9411    Y=             -2.9260    Z=              5.3968  Tot=              7.2951
 Quadrupole moment (field-independent basis, Debye-Ang):
   XX=           -102.4395   YY=           -106.9453   ZZ=           -103.4271
   XY=            -17.3777   XZ=            -13.2339   YZ=             -0.5167

 Normal termination of Gaussian 16 at Wed May  5 16:13:55 2021.
