 Gaussian 16, Revision A.03,
 Gaussian 16:  EM64L-G16RevA.03 25-Dec-2016

 -------------
 #p 6-31g* mp2
 -------------

 ------------------------------------------------------
 Input file generated by CHIRIPA (05-May-2021 14:53:13)
 ------------------------------------------------------
 Symbolic Z-matrix:
 Charge =  0 Multiplicity = 1

                         Standard orientation:
 ---------------------------------------------------------------------
 Center     Atomic      Atomic             Coordinates (Angstroms)
 Number     Number       Type             X           Y           Z
 ---------------------------------------------------------------------
      1          6           0        3.209783   -0.333775   -0.000855
      2          6           0        4.289168   -1.168938   -0.690359
      3          6           0        4.594362   -2.470051    0.052443
      4          1           0        3.531033   -0.105523    1.024642
      5          1           0        2.292106   -0.932027    0.084923
      6          1           0        5.204111   -0.568811   -0.776053
      7          1           0        3.965397   -1.395066   -1.714397
      8          1           0        3.696120   -3.091666    0.125634
      9          1           0        4.941873   -2.260717    1.069309
     10          1           0        5.368654   -3.051469   -0.457740
     11          6           0        2.893629    0.970015   -0.731545
     12          6           0        1.814244    1.805178   -0.042041
     13          6           0        1.509050    3.106291   -0.784843
     14          1           0        3.811306    1.568267   -0.817322
     15          1           0        2.572379    0.741763   -1.757042
     16          1           0        2.138016    2.031306    0.981997
     17          1           0        0.899301    1.205051    0.043654
     18          1           0        1.161540    2.896957   -1.801709
     19          1           0        2.407292    3.727907   -0.858034
     20          1           0        0.734759    3.687709   -0.274660
     21          6           0       -0.971942    0.464229    2.251692
     22          6           0       -1.200375   -0.894409    2.009945
     23          6           0       -1.981237   -1.300842    0.923845
     24          6           0       -2.520672   -0.317438    0.096067
     25          6           0       -2.311210    1.043946    0.310655
     26          6           0       -1.527110    1.427373    1.402772
     27          1           0       -0.364092    0.771021    3.097738
     28          1           0       -0.770491   -1.644600    2.667560
     29          1           0       -2.174080   -2.345826    0.713512
     30          1           0       -2.753083    1.768578   -0.362452
     31          1           0       -1.351383    2.483224    1.588086
     32          7           0       -3.349050   -0.735533   -1.056925
     33          8           0       -3.813027    0.150430   -1.771369
     34          8           0       -3.518669   -1.941282   -1.224361
 ---------------------------------------------------------------------

 SCF Done:  E(RHF) =  -669.534480966     A.U. after   15 cycles
 E2 =    -0.2093564517D+01 EUMP2 =    -0.67162804548276D+03

 The electronic state is 1-A.
 Alpha  occ. eigenvalues --  -20.60830 -20.60825 -15.85884 -11.31273 -11.27844
 Alpha  occ. eigenvalues --  -11.27815 -11.27543 -11.26853 -11.26811 -11.21867
 Alpha  occ. eigenvalues --  -11.21857 -11.21723 -11.21642 -11.21533 -11.21363
 Alpha  occ. eigenvalues --   -1.59906  -1.39458  -1.19452  -1.08857  -1.08722
 Alpha  occ. eigenvalues --   -1.04856  -1.03859  -0.96327  -0.95660  -0.87340
 Alpha  occ. eigenvalues --   -0.86239  -0.82490  -0.79932  -0.78572  -0.77538
 Alpha  occ. eigenvalues --   -0.72100  -0.71231  -0.70529  -0.65380  -0.65088
 Alpha  occ. eigenvalues --   -0.64842  -0.62195  -0.61272  -0.59724  -0.57958
 Alpha  occ. eigenvalues --   -0.55614  -0.55325  -0.53302  -0.53026  -0.52903
 Alpha  occ. eigenvalues --   -0.52723  -0.50246  -0.48861  -0.48855  -0.48239
 Alpha  occ. eigenvalues --   -0.46932  -0.46111  -0.45991  -0.44859  -0.44119
 Alpha  occ. eigenvalues --   -0.37343  -0.36398
 Alpha virt. eigenvalues --    0.04976   0.11138   0.16420   0.20581   0.22728
 Alpha virt. eigenvalues --    0.23908   0.26110   0.26232   0.27034   0.28402
 Alpha virt. eigenvalues --    0.28466   0.29990   0.31132   0.31675   0.32067

 Mulliken charges:
               1
     1  C   -0.298670
     2  C   -0.299894
     3  C   -0.475748
     4  H    0.145702
     5  H    0.149620
     6  H    0.152460
     7  H    0.154449
     8  H    0.154400
     9  H    0.153522
    10  H    0.161981
    11  C   -0.297729
    12  C   -0.307814
    13  C   -0.475279
    14  H    0.149143
    15  H    0.152576
    16  H    0.142882
    17  H    0.165829
    18  H    0.159594
    19  H    0.156872
    20  H    0.150663
    21  C   -0.168150
    22  C   -0.218334
    23  C   -0.171890
    24  C    0.158669
    25  C   -0.171409
    26  C   -0.219156
    27  H    0.226650
    28  H    0.224275
    29  H    0.275910
    30  H    0.276220
    31  H    0.224990
    32  N    0.488063
    33  O   -0.460080
    34  O   -0.460317
 Sum of Mulliken charges =  -0.00000

 Dipole moment (field-independent basis, Debye):
    X=              2.8741    Y=              1.4144    Z=              4.0292  Tot=              5.1474
 Quadrupole moment (field-independent basis, Debye-Ang):
   XX=           -109.9274   YY=            -92.1374   ZZ=            -94.0495
   XY=             -4.9070   XZ=             -9.8076   YZ=             -1.8889

 Normal termination of Gaussian 16 at Thu May  6 15:24:34 2021.
