 Gaussian 16, Revision A.03,
 Gaussian 16:  EM64L-G16RevA.03 25-Dec-2016

 -------------
 #p 6-31g* mp2
 -------------

 ------------------------------------------------------
 Input file generated by CHIRIPA (05-May-2021 14:51:14)
 ------------------------------------------------------
 Symbolic Z-matrix:
 Charge =  0 Multiplicity = 1

                         Standard orientation:
 ---------------------------------------------------------------------
 Center     Atomic      Atomic             Coordinates (Angstroms)
 Number     Number       Type             X           Y           Z
 ---------------------------------------------------------------------
      1          6           0       -2.271890    0.182953    0.069391
      2          6           0       -3.570795   -0.210661    0.773592
      3          6           0       -3.716658   -1.723252    0.942663
      4          1           0       -2.234354   -0.302807   -0.915278
      5          1           0       -1.419437   -0.206726    0.642862
      6          1           0       -4.420502    0.180830    0.199703
      7          1           0       -3.605332    0.276246    1.756621
      8          1           0       -2.888241   -2.126446    1.534068
      9          1           0       -3.708042   -2.222404   -0.031696
     10          1           0       -4.652097   -1.982342    1.448317
     11          6           0       -2.111631    1.691904   -0.106994
     12          6           0       -0.812726    2.085518   -0.811195
     13          6           0       -0.666863    3.598109   -0.980265
     14          1           0       -2.964084    2.081583   -0.680465
     15          1           0       -2.149167    2.177664    0.877675
     16          1           0       -0.778189    1.598611   -1.794224
     17          1           0        0.036981    1.694027   -0.237306
     18          1           0       -0.675479    4.097261   -0.005907
     19          1           0       -1.495280    4.001303   -1.571671
     20          1           0        0.268576    3.857199   -1.485920
     21          6           0        2.677676   -0.361461   -0.106016
     22          6           0        2.987034    0.453874    1.149973
     23          6           0        3.960553    1.602533    0.884201
     24          1           0        3.615237   -0.761018   -0.516234
     25          1           0        2.259549    0.304665   -0.873377
     26          1           0        3.403167   -0.213847    1.915219
     27          1           0        2.048606    0.851378    1.557356
     28          1           0        3.549276    2.291567    0.139429
     29          1           0        4.911532    1.220290    0.499324
     30          1           0        4.167756    2.172165    1.795489
     31          6           0        1.705844   -1.513396    0.143619
     32          6           0        1.396487   -2.328731   -1.112371
     33          6           0        0.422968   -3.477390   -0.846598
     34          1           0        2.123972   -2.179521    0.910980
     35          1           0        0.768284   -1.113838    0.553836
     36          1           0        2.334915   -2.726234   -1.519754
     37          1           0        0.980355   -1.661010   -1.877617
     38          1           0       -0.528012   -3.095147   -0.461722
     39          1           0        0.834245   -4.166424   -0.101826
     40          1           0        0.215764   -4.047022   -1.757887
 ---------------------------------------------------------------------

 SCF Done:  E(RHF) =  -470.733071667     A.U. after   11 cycles
 E2 =    -0.1585070152D+01 EUMP2 =    -0.47231814181820D+03

 The electronic state is 1-A.
 Alpha  occ. eigenvalues --  -11.21698 -11.21675 -11.21618 -11.21537 -11.21498
 Alpha  occ. eigenvalues --  -11.21439 -11.21349 -11.21285 -11.21150 -11.21133
 Alpha  occ. eigenvalues --  -11.21077 -11.20989  -1.08546  -1.08378  -1.03620
 Alpha  occ. eigenvalues --   -1.03492  -0.96063  -0.95941  -0.87084  -0.86952
 Alpha  occ. eigenvalues --   -0.79689  -0.79559  -0.78407  -0.78162  -0.65361
 Alpha  occ. eigenvalues --   -0.64847  -0.61099  -0.60822  -0.59428  -0.59307
 Alpha  occ. eigenvalues --   -0.57705  -0.57529  -0.55387  -0.55197  -0.52751
 Alpha  occ. eigenvalues --   -0.52641  -0.52518  -0.52344  -0.50084  -0.49805
 Alpha  occ. eigenvalues --   -0.48099  -0.47804  -0.46745  -0.46630  -0.46326
 Alpha  occ. eigenvalues --   -0.45870  -0.45630  -0.45112  -0.43868  -0.43746
 Alpha virt. eigenvalues --    0.19462   0.21679   0.23746   0.24538   0.25236
 Alpha virt. eigenvalues --    0.25859   0.26926   0.27826   0.28758   0.30011
 Alpha virt. eigenvalues --    0.31067   0.31321   0.31762   0.32013   0.32418

 Mulliken charges:
               1
     1  C   -0.306741
     2  C   -0.299036
     3  C   -0.477410
     4  H    0.150296
     5  H    0.156319
     6  H    0.152318
     7  H    0.152147
     8  H    0.156091
     9  H    0.156040
    10  H    0.160839
    11  C   -0.297808
    12  C   -0.307098
    13  C   -0.475570
    14  H    0.150126
    15  H    0.149754
    16  H    0.151850
    17  H    0.158759
    18  H    0.155556
    19  H    0.155673
    20  H    0.160186
    21  C   -0.300633
    22  C   -0.301311
    23  C   -0.475766
    24  H    0.149903
    25  H    0.152365
    26  H    0.152210
    27  H    0.151401
    28  H    0.155342
    29  H    0.155413
    30  H    0.160157
    31  C   -0.305872
    32  C   -0.298915
    33  C   -0.479055
    34  H    0.149031
    35  H    0.156675
    36  H    0.151536
    37  H    0.152197
    38  H    0.158725
    39  H    0.154658
    40  H    0.159648
 Sum of Mulliken charges =  -0.00000

 Dipole moment (field-independent basis, Debye):
    X=             -0.0504    Y=              0.0263    Z=              0.0032  Tot=              0.0569
 Quadrupole moment (field-independent basis, Debye-Ang):
   XX=            -84.4031   YY=            -86.3414   ZZ=            -83.9564
   XY=             -1.2954   XZ=              0.6372   YZ=              0.1264

 Normal termination of Gaussian 16 at Wed May  5 15:23:02 2021.
