 Gaussian 16, Revision A.03,
 Gaussian 16:  EM64L-G16RevA.03 25-Dec-2016

 -------------
 #p 6-31g* mp2
 -------------

 ------------------------------------------------------
 Input file generated by CHIRIPA (05-May-2021 14:51:08)
 ------------------------------------------------------
 Symbolic Z-matrix:
 Charge =  0 Multiplicity = 1

                         Standard orientation:
 ---------------------------------------------------------------------
 Center     Atomic      Atomic             Coordinates (Angstroms)
 Number     Number       Type             X           Y           Z
 ---------------------------------------------------------------------
      1          6           0       -5.017101   -0.487152    0.255680
      2          6           0       -6.075672    0.012770   -0.727930
      3          6           0       -7.486616   -0.450282   -0.363766
      4          1           0       -5.046890   -1.584822    0.289988
      5          1           0       -5.270054   -0.135885    1.265641
      6          1           0       -5.820047   -0.338176   -1.735952
      7          1           0       -6.043229    1.109370   -0.760043
      8          1           0       -7.766354   -0.087842    0.630712
      9          1           0       -7.541904   -1.543614   -0.350742
     10          1           0       -8.227519   -0.081630   -1.080018
     11          6           0       -3.601467   -0.032470   -0.094996
     12          6           0       -2.542895   -0.532392    0.888615
     13          6           0       -1.131952   -0.069340    0.524450
     14          1           0       -3.348513   -0.383737   -1.104957
     15          1           0       -3.571677    1.065200   -0.129303
     16          1           0       -2.575338   -1.628992    0.920728
     17          1           0       -2.798520   -0.181446    1.896637
     18          1           0       -1.076664    1.023992    0.511427
     19          1           0       -0.852214   -0.431780   -0.470027
     20          1           0       -0.391049   -0.437992    1.240703
     21          6           0        4.619002   -0.433811   -0.000375
     22          6           0        6.108391   -0.476092   -0.343773
     23          6           0        6.713709   -1.870441   -0.178923
     24          1           0        4.477802   -0.776469    1.033836
     25          1           0        4.081606   -1.146018   -0.641748
     26          1           0        6.642626    0.236988    0.297105
     27          1           0        6.246081   -0.133111   -1.377224
     28          1           0        6.206851   -2.589903   -0.830131
     29          1           0        6.605650   -2.217700    0.853711
     30          1           0        7.779055   -1.877818   -0.429608
     31          6           0        3.999564    0.953433   -0.160310
     32          6           0        2.510177    0.995714    0.183088
     33          6           0        1.904859    2.390063    0.018239
     34          1           0        4.536961    1.665641    0.481064
     35          1           0        4.140766    1.296091   -1.194521
     36          1           0        2.372487    0.652734    1.216540
     37          1           0        1.975942    0.282634   -0.457790
     38          1           0        2.012918    2.737322   -1.014397
     39          1           0        2.411717    3.109525    0.669446
     40          1           0        0.839512    2.397440    0.268923
 ---------------------------------------------------------------------

 SCF Done:  E(RHF) =  -470.732738155     A.U. after   11 cycles
 E2 =    -0.1583027593D+01 EUMP2 =    -0.47231576574721D+03

 The electronic state is 1-A.
 Alpha  occ. eigenvalues --  -11.21602 -11.21588 -11.21567 -11.21479 -11.21406
 Alpha  occ. eigenvalues --  -11.21348 -11.21346 -11.21281 -11.21072 -11.21047
 Alpha  occ. eigenvalues --  -11.21047 -11.20940  -1.08433  -1.08363  -1.03554
 Alpha  occ. eigenvalues --   -1.03435  -0.96031  -0.95864  -0.87021  -0.86912
 Alpha  occ. eigenvalues --   -0.79635  -0.79491  -0.78257  -0.78159  -0.65065
 Alpha  occ. eigenvalues --   -0.64996  -0.60957  -0.60850  -0.59428  -0.59230
 Alpha  occ. eigenvalues --   -0.57669  -0.57470  -0.55282  -0.55198  -0.52784
 Alpha  occ. eigenvalues --   -0.52611  -0.52440  -0.52170  -0.49934  -0.49837
 Alpha  occ. eigenvalues --   -0.47967  -0.47771  -0.46650  -0.46515  -0.45795
 Alpha  occ. eigenvalues --   -0.45736  -0.45697  -0.45612  -0.43782  -0.43677
 Alpha virt. eigenvalues --    0.21970   0.23008   0.23449   0.24856   0.26211
 Alpha virt. eigenvalues --    0.26468   0.26681   0.27395   0.27790   0.29144
 Alpha virt. eigenvalues --    0.29842   0.30324   0.31225   0.31994   0.32490

 Mulliken charges:
               1
     1  C   -0.298226
     2  C   -0.299629
     3  C   -0.475703
     4  H    0.149650
     5  H    0.149524
     6  H    0.151895
     7  H    0.151958
     8  H    0.155188
     9  H    0.155169
    10  H    0.160257
    11  C   -0.298428
    12  C   -0.300952
    13  C   -0.477380
    14  H    0.149428
    15  H    0.149570
    16  H    0.151815
    17  H    0.151750
    18  H    0.157175
    19  H    0.154911
    20  H    0.162655
    21  C   -0.298114
    22  C   -0.299552
    23  C   -0.475654
    24  H    0.149340
    25  H    0.149320
    26  H    0.151865
    27  H    0.151860
    28  H    0.155074
    29  H    0.155081
    30  H    0.160131
    31  C   -0.298632
    32  C   -0.299216
    33  C   -0.480196
    34  H    0.149112
    35  H    0.149298
    36  H    0.151182
    37  H    0.154897
    38  H    0.154388
    39  H    0.154164
    40  H    0.165025
 Sum of Mulliken charges =  -0.00000

 Dipole moment (field-independent basis, Debye):
    X=             -0.0277    Y=             -0.0118    Z=              0.0021  Tot=              0.0302
 Quadrupole moment (field-independent basis, Debye-Ang):
   XX=            -86.4790   YY=            -85.0639   ZZ=            -83.5286
   XY=              0.1564   XZ=              0.2564   YZ=              0.8121

 Normal termination of Gaussian 16 at Thu May  6 13:12:43 2021.
