 Gaussian 16, Revision A.03,
 Gaussian 16:  EM64L-G16RevA.03 25-Dec-2016

 -------------
 #p 6-31g* mp2
 -------------

 ------------------------------------------------------
 Input file generated by CHIRIPA (05-May-2021 14:53:14)
 ------------------------------------------------------
 Symbolic Z-matrix:
 Charge =  0 Multiplicity = 1

                         Standard orientation:
 ---------------------------------------------------------------------
 Center     Atomic      Atomic             Coordinates (Angstroms)
 Number     Number       Type             X           Y           Z
 ---------------------------------------------------------------------
      1          6           0        3.458154    0.907669    0.193834
      2          6           0        2.057527    1.180994   -0.355276
      3          6           0        1.294360    2.222496    0.463653
      4          1           0        3.376955    0.569213    1.235851
      5          1           0        4.026446    1.847900    0.213969
      6          1           0        1.492506    0.240275   -0.375664
      7          1           0        2.142058    1.518655   -1.396167
      8          1           0        1.833784    3.175132    0.474054
      9          1           0        1.180541    1.889488    1.500355
     10          1           0        0.295723    2.402554    0.053576
     11          6           0        4.233543   -0.131353   -0.614209
     12          6           0        5.634170   -0.404678   -0.065100
     13          6           0        6.397337   -1.446180   -0.884028
     14          1           0        3.665251   -1.071584   -0.634344
     15          1           0        4.314742    0.207103   -1.656226
     16          1           0        5.549639   -0.742339    0.975792
     17          1           0        6.199191    0.536041   -0.044711
     18          1           0        6.511156   -1.113172   -1.920731
     19          1           0        5.857913   -2.398815   -0.894429
     20          1           0        7.395974   -1.626238   -0.473951
     21          6           0       -1.322492   -0.820132    1.972349
     22          6           0       -1.917669   -1.860819    1.251755
     23          6           0       -2.850956   -1.586154    0.247723
     24          6           0       -3.167186   -0.253279   -0.010595
     25          6           0       -2.591403    0.805493    0.689952
     26          6           0       -1.660662    0.507362    1.689646
     27          1           0       -0.598480   -1.042612    2.750621
     28          1           0       -1.656955   -2.892718    1.469147
     29          1           0       -3.326905   -2.372488   -0.325489
     30          1           0       -2.871466    1.824140    0.450494
     31          1           0       -1.200031    1.317600    2.247660
     32          7           0       -4.153868    0.049918   -1.071223
     33          8           0       -4.415437    1.232627   -1.279592
     34          8           0       -4.646976   -0.900888   -1.674092
 ---------------------------------------------------------------------

 SCF Done:  E(RHF) =  -669.535030386     A.U. after   15 cycles
 E2 =    -0.2092206382D+01 EUMP2 =    -0.67162723676826D+03

 The electronic state is 1-A.
 Alpha  occ. eigenvalues --  -20.60779 -20.60774 -15.85832 -11.31212 -11.27756
 Alpha  occ. eigenvalues --  -11.27749 -11.27511 -11.26806 -11.26759 -11.22062
 Alpha  occ. eigenvalues --  -11.21970 -11.21865 -11.21765 -11.21725 -11.21383
 Alpha  occ. eigenvalues --   -1.59854  -1.39407  -1.19378  -1.08874  -1.08769
 Alpha  occ. eigenvalues --   -1.04785  -1.03972  -0.96448  -0.95606  -0.87480
 Alpha  occ. eigenvalues --   -0.86171  -0.82436  -0.80040  -0.78671  -0.77479
 Alpha  occ. eigenvalues --   -0.72050  -0.71177  -0.70485  -0.65522  -0.65030
 Alpha  occ. eigenvalues --   -0.64787  -0.62168  -0.61350  -0.59810  -0.58044
 Alpha  occ. eigenvalues --   -0.55785  -0.55272  -0.53311  -0.53029  -0.52834
 Alpha  occ. eigenvalues --   -0.52774  -0.50372  -0.48809  -0.48804  -0.48354
 Alpha  occ. eigenvalues --   -0.47059  -0.46219  -0.46135  -0.44810  -0.44236
 Alpha  occ. eigenvalues --   -0.37352  -0.36333
 Alpha virt. eigenvalues --    0.05024   0.11220   0.16483   0.20611   0.22588
 Alpha virt. eigenvalues --    0.24020   0.25840   0.26402   0.26867   0.27821
 Alpha virt. eigenvalues --    0.28750   0.30114   0.31094   0.31233   0.31896

 Mulliken charges:
               1
     1  C   -0.298161
     2  C   -0.300913
     3  C   -0.474653
     4  H    0.145460
     5  H    0.150915
     6  H    0.154157
     7  H    0.155908
     8  H    0.157177
     9  H    0.143944
    10  H    0.161084
    11  C   -0.298424
    12  C   -0.299718
    13  C   -0.475837
    14  H    0.148704
    15  H    0.151912
    16  H    0.150407
    17  H    0.152867
    18  H    0.156536
    19  H    0.154827
    20  H    0.160965
    21  C   -0.173583
    22  C   -0.218346
    23  C   -0.171539
    24  C    0.158815
    25  C   -0.173771
    26  C   -0.212522
    27  H    0.225168
    28  H    0.223402
    29  H    0.275569
    30  H    0.275566
    31  H    0.226664
    32  N    0.488056
    33  O   -0.460334
    34  O   -0.460300
 Sum of Mulliken charges =  -0.00000

 Dipole moment (field-independent basis, Debye):
    X=              3.5296    Y=             -1.0704    Z=              3.6669  Tot=              5.2010
 Quadrupole moment (field-independent basis, Debye-Ang):
   XX=           -117.6802   YY=            -89.4581   ZZ=            -95.3044
   XY=              3.8848   XZ=            -11.9678   YZ=             -0.8473

 Normal termination of Gaussian 16 at Thu May  6 12:05:40 2021.
