 Gaussian 16, Revision A.03,
 Gaussian 16:  EM64L-G16RevA.03 25-Dec-2016

 -------------
 #p 6-31g* mp2
 -------------

 ------------------------------------------------------
 Input file generated by CHIRIPA (05-May-2021 14:55:24)
 ------------------------------------------------------
 Symbolic Z-matrix:
 Charge =  0 Multiplicity = 1

                         Standard orientation:
 ---------------------------------------------------------------------
 Center     Atomic      Atomic             Coordinates (Angstroms)
 Number     Number       Type             X           Y           Z
 ---------------------------------------------------------------------
      1          6           0        1.347999    0.413466    2.236526
      2          6           0        0.724318    0.280117    0.991632
      3          6           0        1.481100    0.044612   -0.160048
      4          6           0        2.865627   -0.052355   -0.029772
      5          6           0        3.516296    0.075929    1.196385
      6          6           0        2.739545    0.311126    2.334756
      7          1           0        0.752357    0.596292    3.126009
      8          1           0       -0.356199    0.359133    0.912348
      9          1           0        1.024101   -0.062659   -1.136298
     10          1           0        4.595264   -0.007708    1.243838
     11          1           0        3.226612    0.414264    3.300247
     12          7           0        3.677368   -0.301510   -1.241959
     13          8           0        4.895572   -0.382828   -1.100523
     14          8           0        3.080037   -0.410764   -2.310555
     15          6           0       -3.233416    0.614982   -0.609336
     16          6           0       -3.612699    1.958888    0.013598
     17          6           0       -3.078670    3.150728   -0.781467
     18          1           0       -2.139327    0.547891   -0.682902
     19          1           0       -3.618953    0.573455   -1.637457
     20          1           0       -3.227754    1.997312    1.040709
     21          1           0       -4.706006    2.022708    0.085865
     22          1           0       -3.472815    3.140216   -1.802809
     23          1           0       -1.986163    3.114675   -0.842540
     24          1           0       -3.361395    4.101292   -0.318481
     25          6           0       -3.760099   -0.586078    0.174109
     26          6           0       -3.380817   -1.929984   -0.448825
     27          6           0       -3.914846   -3.121823    0.346239
     28          1           0       -3.374563   -0.544551    1.202229
     29          1           0       -4.854188   -0.518987    0.247675
     30          1           0       -2.287510   -1.993804   -0.521093
     31          1           0       -3.765762   -1.968408   -1.475936
     32          1           0       -5.007353   -3.085772    0.407313
     33          1           0       -3.520701   -3.111311    1.367582
     34          1           0       -3.632121   -4.072387   -0.116746
 ---------------------------------------------------------------------

 SCF Done:  E(RHF) =  -669.535424307     A.U. after   15 cycles
 E2 =    -0.2091727225D+01 EUMP2 =    -0.67162715153190D+03

 The electronic state is 1-A.
 Alpha  occ. eigenvalues --  -20.60760 -20.60755 -15.85814 -11.31190 -11.27762
 Alpha  occ. eigenvalues --  -11.27758 -11.27505 -11.26778 -11.26751 -11.22429
 Alpha  occ. eigenvalues --  -11.22330 -11.22273 -11.22196 -11.21707 -11.21600
 Alpha  occ. eigenvalues --   -1.59836  -1.39389  -1.19364  -1.09257  -1.08756
 Alpha  occ. eigenvalues --   -1.04770  -1.04234  -0.96682  -0.95590  -0.87689
 Alpha  occ. eigenvalues --   -0.86168  -0.82427  -0.80299  -0.79073  -0.77469
 Alpha  occ. eigenvalues --   -0.72032  -0.71159  -0.70474  -0.66024  -0.65015
 Alpha  occ. eigenvalues --   -0.64705  -0.62119  -0.61622  -0.60041  -0.58285
 Alpha  occ. eigenvalues --   -0.55991  -0.55263  -0.53327  -0.53105  -0.53095
 Alpha  occ. eigenvalues --   -0.52843  -0.50623  -0.48793  -0.48786  -0.48601
 Alpha  occ. eigenvalues --   -0.47353  -0.46584  -0.46549  -0.44792  -0.44526
 Alpha  occ. eigenvalues --   -0.37345  -0.36372
 Alpha virt. eigenvalues --    0.05061   0.11270   0.16521   0.18171   0.22955
 Alpha virt. eigenvalues --    0.23680   0.24723   0.25818   0.27133   0.28488
 Alpha virt. eigenvalues --    0.29743   0.30694   0.31200   0.31342   0.31815

 Mulliken charges:
               1
     1  C   -0.171510
     2  C   -0.225857
     3  C   -0.173467
     4  C    0.158835
     5  C   -0.170984
     6  C   -0.218399
     7  H    0.225849
     8  H    0.232834
     9  H    0.275760
    10  H    0.275684
    11  H    0.223443
    12  N    0.488115
    13  O   -0.460518
    14  O   -0.460227
    15  C   -0.302169
    16  C   -0.300389
    17  C   -0.476175
    18  H    0.140122
    19  H    0.156931
    20  H    0.146840
    21  H    0.156202
    22  H    0.158847
    23  H    0.154629
    24  H    0.162746
    25  C   -0.299519
    26  C   -0.300052
    27  C   -0.475934
    28  H    0.144157
    29  H    0.154205
    30  H    0.149416
    31  H    0.155923
    32  H    0.156691
    33  H    0.154097
    34  H    0.163875
 Sum of Mulliken charges =  -0.00000

 Dipole moment (field-independent basis, Debye):
    X=             -3.0518    Y=              0.8700    Z=              4.1991  Tot=              5.2634
 Quadrupole moment (field-independent basis, Debye-Ang):
   XX=           -106.2854   YY=            -96.2299   ZZ=            -93.7429
   XY=              2.4358   XZ=             16.0588   YZ=              0.2059

 Normal termination of Gaussian 16 at Thu May  6 17:40:34 2021.
