 Gaussian 16, Revision A.03,
 Gaussian 16:  EM64L-G16RevA.03 25-Dec-2016

 -------------
 #p 6-31g* mp2
 -------------

 ------------------------------------------------------
 Input file generated by CHIRIPA (05-May-2021 14:55:23)
 ------------------------------------------------------
 Symbolic Z-matrix:
 Charge =  0 Multiplicity = 1

                         Standard orientation:
 ---------------------------------------------------------------------
 Center     Atomic      Atomic             Coordinates (Angstroms)
 Number     Number       Type             X           Y           Z
 ---------------------------------------------------------------------
      1          6           0       -2.375256    2.075849   -0.600341
      2          6           0       -3.726726    1.909772   -0.920451
      3          6           0       -4.379708    0.705510   -0.641316
      4          6           0       -3.647482   -0.316305   -0.038797
      5          6           0       -2.300064   -0.181379    0.292184
      6          6           0       -1.667487    1.031584    0.003890
      7          1           0       -1.875930    3.014728   -0.820737
      8          1           0       -4.278891    2.719040   -1.389751
      9          1           0       -5.425162    0.549991   -0.878505
     10          1           0       -1.776007   -1.006236    0.759509
     11          1           0       -0.617833    1.157737    0.253606
     12          7           0       -4.327964   -1.595809    0.261558
     13          8           0       -3.660610   -2.480716    0.792797
     14          8           0       -5.515796   -1.689549   -0.039949
     15          6           0        3.999109    0.390788    0.604125
     16          6           0        3.400061    1.739205    0.203004
     17          6           0        2.349109    2.237836    1.195307
     18          1           0        3.192831   -0.350502    0.689861
     19          1           0        4.449272    0.479869    1.602531
     20          1           0        2.952378    1.647973   -0.794931
     21          1           0        4.207880    2.477326    0.118026
     22          1           0        2.786243    2.357068    2.191950
     23          1           0        1.523607    1.523004    1.273807
     24          1           0        1.934023    3.203168    0.889205
     25          6           0        5.051337   -0.120895   -0.378078
     26          6           0        5.650386   -1.469312    0.023042
     27          6           0        6.701337   -1.967943   -0.969259
     28          1           0        4.601175   -0.209975   -1.376483
     29          1           0        5.857615    0.620396   -0.463814
     30          1           0        4.842567   -2.207433    0.108021
     31          1           0        6.098069   -1.378080    1.020978
     32          1           0        7.526838   -1.253111   -1.047759
     33          1           0        6.264203   -2.087175   -1.965903
     34          1           0        7.116423   -2.933274   -0.663158
 ---------------------------------------------------------------------

 SCF Done:  E(RHF) =  -669.535502330     A.U. after   15 cycles
 E2 =    -0.2090790677D+01 EUMP2 =    -0.67162629300712D+03

 The electronic state is 1-A.
 Alpha  occ. eigenvalues --  -20.60739 -20.60734 -15.85792 -11.31151 -11.27719
 Alpha  occ. eigenvalues --  -11.27712 -11.27454 -11.26735 -11.26694 -11.22445
 Alpha  occ. eigenvalues --  -11.22186 -11.22039 -11.21968 -11.21858 -11.21356
 Alpha  occ. eigenvalues --   -1.59814  -1.39368  -1.19321  -1.09039  -1.08716
 Alpha  occ. eigenvalues --   -1.04725  -1.04167  -0.96631  -0.95553  -0.87652
 Alpha  occ. eigenvalues --   -0.86121  -0.82388  -0.80237  -0.78806  -0.77437
 Alpha  occ. eigenvalues --   -0.72010  -0.71137  -0.70430  -0.65692  -0.64972
 Alpha  occ. eigenvalues --   -0.64740  -0.62135  -0.61516  -0.60021  -0.58214
 Alpha  occ. eigenvalues --   -0.55952  -0.55212  -0.53342  -0.53093  -0.53052
 Alpha  occ. eigenvalues --   -0.52767  -0.50556  -0.48770  -0.48766  -0.48539
 Alpha  occ. eigenvalues --   -0.47262  -0.46357  -0.46255  -0.44775  -0.44402
 Alpha  occ. eigenvalues --   -0.37301  -0.36327
 Alpha virt. eigenvalues --    0.05099   0.11321   0.16591   0.19598   0.22625
 Alpha virt. eigenvalues --    0.23720   0.25553   0.26504   0.27056   0.28071
 Alpha virt. eigenvalues --    0.29011   0.29779   0.30993   0.31543   0.32223

 Mulliken charges:
               1
     1  C   -0.173240
     2  C   -0.218461
     3  C   -0.171267
     4  C    0.158842
     5  C   -0.173500
     6  C   -0.225825
     7  H    0.226093
     8  H    0.223218
     9  H    0.275437
    10  H    0.275345
    11  H    0.235132
    12  N    0.488106
    13  O   -0.460569
    14  O   -0.460601
    15  C   -0.298376
    16  C   -0.300727
    17  C   -0.480616
    18  H    0.148290
    19  H    0.151880
    20  H    0.150722
    21  H    0.155786
    22  H    0.162454
    23  H    0.148698
    24  H    0.158631
    25  C   -0.298822
    26  C   -0.300298
    27  C   -0.476100
    28  H    0.149976
    29  H    0.150648
    30  H    0.153139
    31  H    0.152800
    32  H    0.155429
    33  H    0.155755
    34  H    0.162022
 Sum of Mulliken charges =  -0.00000

 Dipole moment (field-independent basis, Debye):
    X=              2.6193    Y=              4.5196    Z=             -1.0481  Tot=              5.3279
 Quadrupole moment (field-independent basis, Debye-Ang):
   XX=           -108.0114   YY=            -97.4476   ZZ=            -94.7598
   XY=            -18.3666   XZ=              6.6851   YZ=             -0.6760

 Normal termination of Gaussian 16 at Thu May  6 19:14:32 2021.
