 Gaussian 16, Revision A.03,
 Gaussian 16:  EM64L-G16RevA.03 25-Dec-2016

 -------------
 #p 6-31g* mp2
 -------------

 ------------------------------------------------------
 Input file generated by CHIRIPA (05-May-2021 14:57:23)
 ------------------------------------------------------
 Symbolic Z-matrix:
 Charge =  0 Multiplicity = 1

                         Standard orientation:
 ---------------------------------------------------------------------
 Center     Atomic      Atomic             Coordinates (Angstroms)
 Number     Number       Type             X           Y           Z
 ---------------------------------------------------------------------
      1          6           0        2.265849    2.716267    0.443983
      2          6           0        2.823753    2.269042   -0.758204
      3          6           0        3.046651    0.905805   -0.973730
      4          6           0        2.698223    0.013434    0.038970
      5          6           0        2.140719    0.428035    1.247517
      6          6           0        1.926710    1.795959    1.441248
      7          1           0        2.096149    3.777083    0.602943
      8          1           0        3.088107    2.981494   -1.534460
      9          1           0        3.477105    0.532241   -1.894913
     10          1           0        1.887464   -0.306104    2.002713
     11          1           0        1.493281    2.140415    2.375879
     12          7           0        2.929490   -1.432244   -0.177661
     13          8           0        2.613857   -2.198221    0.730245
     14          8           0        3.422010   -1.772017   -1.251260
     15          6           0       -3.920296    1.922260   -0.302160
     16          6           0       -4.619157    0.722339   -0.133918
     17          6           0       -3.931295   -0.488133   -0.006829
     18          6           0       -2.538277   -0.461869   -0.052681
     19          6           0       -1.813544    0.717254   -0.219170
     20          6           0       -2.522185    1.915899   -0.344174
     21          1           0       -4.462715    2.857990   -0.400075
     22          1           0       -5.704952    0.724264   -0.100919
     23          1           0       -4.447234   -1.431531    0.124419
     24          1           0       -0.731212    0.683563   -0.248174
     25          1           0       -1.976811    2.846257   -0.474728
     26          7           0       -1.799070   -1.737082    0.080759
     27          8           0       -0.571783   -1.687120    0.037080
     28          8           0       -2.460962   -2.762408    0.226501
 ---------------------------------------------------------------------

 SCF Done:  E(RHF) =  -868.336699734     A.U. after   16 cycles
 E2 =    -0.2602911707D+01 EUMP2 =    -0.87093961144088D+03

 The electronic state is 1-A.
 Alpha  occ. eigenvalues --  -20.60635 -20.60627 -20.60001 -20.59883 -15.85693
 Alpha  occ. eigenvalues --  -15.85008 -11.31204 -11.30904 -11.27798 -11.27769
 Alpha  occ. eigenvalues --  -11.27602 -11.27562 -11.27494 -11.27466 -11.26884
 Alpha  occ. eigenvalues --  -11.26845 -11.26717 -11.26705  -1.59700  -1.58980
 Alpha  occ. eigenvalues --   -1.39256  -1.38526  -1.19407  -1.19164  -1.08776
 Alpha  occ. eigenvalues --   -1.08455  -1.04834  -1.04634  -0.95580  -0.95193
 Alpha  occ. eigenvalues --   -0.86226  -0.85989  -0.82421  -0.82026  -0.77453
 Alpha  occ. eigenvalues --   -0.76947  -0.71975  -0.71247  -0.71035  -0.70524
 Alpha  occ. eigenvalues --   -0.70254  -0.70186  -0.65058  -0.64849  -0.64786
 Alpha  occ. eigenvalues --   -0.64625  -0.62186  -0.61941  -0.55348  -0.55145
 Alpha  occ. eigenvalues --   -0.53212  -0.53151  -0.52708  -0.52671  -0.48665
 Alpha  occ. eigenvalues --   -0.48642  -0.48041  -0.47949  -0.44638  -0.43782
 Alpha  occ. eigenvalues --   -0.37412  -0.37193  -0.36510  -0.36201
 Alpha virt. eigenvalues --    0.05023   0.05677   0.11195   0.11371   0.16540
 Alpha virt. eigenvalues --    0.16974   0.21186   0.21557   0.27026   0.27422
 Alpha virt. eigenvalues --    0.28069   0.28454   0.30722   0.31036   0.32190

 Mulliken charges:
               1
     1  C   -0.178219
     2  C   -0.220929
     3  C   -0.172946
     4  C    0.165207
     5  C   -0.168495
     6  C   -0.225784
     7  H    0.221745
     8  H    0.221639
     9  H    0.276659
    10  H    0.282006
    11  H    0.222391
    12  N    0.492238
    13  O   -0.446998
    14  O   -0.464858
    15  C   -0.170989
    16  C   -0.218956
    17  C   -0.170244
    18  C    0.157344
    19  C   -0.175764
    20  C   -0.220975
    21  H    0.224314
    22  H    0.223491
    23  H    0.276570
    24  H    0.281281
    25  H    0.219228
    26  N    0.489627
    27  O   -0.460978
    28  O   -0.457602
 Sum of Mulliken charges =  -0.00000

 Dipole moment (field-independent basis, Debye):
    X=             -3.3589    Y=              9.0913    Z=              0.3728  Tot=              9.6991
 Quadrupole moment (field-independent basis, Debye-Ang):
   XX=            -92.4745   YY=           -108.8723   ZZ=           -101.5617
   XY=              5.8977   XZ=              1.2100   YZ=             -1.2987

 Normal termination of Gaussian 16 at Thu May  6 17:56:53 2021.
