 Gaussian 16, Revision A.03,
 Gaussian 16:  EM64L-G16RevA.03 25-Dec-2016

 -------------
 #p 6-31g* mp2
 -------------

 ------------------------------------------------------
 Input file generated by CHIRIPA (05-May-2021 14:51:13)
 ------------------------------------------------------
 Symbolic Z-matrix:
 Charge =  0 Multiplicity = 1

                         Standard orientation:
 ---------------------------------------------------------------------
 Center     Atomic      Atomic             Coordinates (Angstroms)
 Number     Number       Type             X           Y           Z
 ---------------------------------------------------------------------
      1          6           0       -3.796015   -0.616101   -0.019468
      2          6           0       -4.334151    0.747690    0.414659
      3          6           0       -5.858157    0.770554    0.535810
      4          1           0       -4.246047   -0.890868   -0.983273
      5          1           0       -4.118676   -1.377171    0.704450
      6          1           0       -4.009410    1.506181   -0.309116
      7          1           0       -3.882640    1.019330    1.377450
      8          1           0       -6.197123    0.035036    1.272504
      9          1           0       -6.324613    0.524655   -0.423645
     10          1           0       -6.221408    1.754886    0.847256
     11          6           0       -2.274021   -0.654790   -0.145036
     12          6           0       -1.735885   -2.018581   -0.579163
     13          6           0       -0.211879   -2.041445   -0.700314
     14          1           0       -1.951360    0.106280   -0.868954
     15          1           0       -1.823990   -0.380023    0.818769
     16          1           0       -2.187396   -2.290221   -1.541954
     17          1           0       -2.060626   -2.777072    0.144612
     18          1           0        0.254576   -1.795546    0.259141
     19          1           0        0.127086   -1.305927   -1.437008
     20          1           0        0.151372   -3.025777   -1.011759
     21          6           0        3.206795   -0.067618   -0.161932
     22          6           0        3.938856   -0.910425    0.882936
     23          6           0        4.275685   -2.314347    0.379605
     24          1           0        2.283417   -0.583688   -0.458561
     25          1           0        3.828269    0.004988   -1.065200
     26          1           0        3.316787   -0.980266    1.784473
     27          1           0        4.860503   -0.392198    1.177253
     28          1           0        4.916278   -2.262451   -0.506706
     29          1           0        3.363791   -2.853860    0.103964
     30          1           0        4.798669   -2.899577    1.142398
     31          6           0        2.863241    1.338509    0.326436
     32          6           0        2.131181    2.181316   -0.718433
     33          6           0        1.794351    3.585238   -0.215101
     34          1           0        2.241767    1.265903    1.229704
     35          1           0        3.786620    1.854579    0.623064
     36          1           0        1.209532    1.663089   -1.012749
     37          1           0        2.753249    2.251156   -1.619970
     38          1           0        2.706245    4.124750    0.060540
     39          1           0        1.153758    3.533342    0.671211
     40          1           0        1.271368    4.170467   -0.977895
 ---------------------------------------------------------------------

 SCF Done:  E(RHF) =  -470.732828215     A.U. after   11 cycles
 E2 =    -0.1583600235D+01 EUMP2 =    -0.47231642844974D+03

 The electronic state is 1-A.
 Alpha  occ. eigenvalues --  -11.21702 -11.21649 -11.21545 -11.21503 -11.21490
 Alpha  occ. eigenvalues --  -11.21422 -11.21289 -11.21214 -11.21145 -11.21106
 Alpha  occ. eigenvalues --  -11.21027 -11.20979  -1.08514  -1.08323  -1.03619
 Alpha  occ. eigenvalues --   -1.03445  -0.96082  -0.95884  -0.87111  -0.86899
 Alpha  occ. eigenvalues --   -0.79718  -0.79499  -0.78353  -0.78095  -0.65140
 Alpha  occ. eigenvalues --   -0.64974  -0.61032  -0.60832  -0.59440  -0.59256
 Alpha  occ. eigenvalues --   -0.57734  -0.57469  -0.55359  -0.55185  -0.52774
 Alpha  occ. eigenvalues --   -0.52623  -0.52562  -0.52252  -0.50014  -0.49831
 Alpha  occ. eigenvalues --   -0.48089  -0.47814  -0.46726  -0.46525  -0.46048
 Alpha  occ. eigenvalues --   -0.45785  -0.45650  -0.45267  -0.43863  -0.43685
 Alpha virt. eigenvalues --    0.20847   0.22860   0.23639   0.24423   0.25524
 Alpha virt. eigenvalues --    0.26469   0.27346   0.27414   0.27900   0.29919
 Alpha virt. eigenvalues --    0.30136   0.31194   0.31737   0.32178   0.32295

 Mulliken charges:
               1
     1  C   -0.298342
     2  C   -0.299735
     3  C   -0.475772
     4  H    0.149922
     5  H    0.149769
     6  H    0.152176
     7  H    0.151952
     8  H    0.155242
     9  H    0.155282
    10  H    0.160485
    11  C   -0.298859
    12  C   -0.300138
    13  C   -0.480382
    14  H    0.149788
    15  H    0.149417
    16  H    0.152523
    17  H    0.152404
    18  H    0.156645
    19  H    0.157928
    20  H    0.161433
    21  C   -0.310158
    22  C   -0.298814
    23  C   -0.476913
    24  H    0.164944
    25  H    0.148118
    26  H    0.150471
    27  H    0.151417
    28  H    0.154891
    29  H    0.156652
    30  H    0.159563
    31  C   -0.297278
    32  C   -0.300865
    33  C   -0.475540
    34  H    0.148494
    35  H    0.149142
    36  H    0.152401
    37  H    0.151615
    38  H    0.155107
    39  H    0.155248
    40  H    0.159765
 Sum of Mulliken charges =  -0.00000

 Dipole moment (field-independent basis, Debye):
    X=             -0.0825    Y=             -0.0416    Z=             -0.0265  Tot=              0.0961
 Quadrupole moment (field-independent basis, Debye-Ang):
   XX=            -85.4773   YY=            -85.7453   ZZ=            -83.7683
   XY=              0.7979   XZ=             -0.0811   YZ=             -0.6032

 Normal termination of Gaussian 16 at Thu May  6 00:47:05 2021.
