 Gaussian 16, Revision A.03,
 Gaussian 16:  EM64L-G16RevA.03 25-Dec-2016

 -------------
 #p 6-31g* mp2
 -------------

 ------------------------------------------------------
 Input file generated by CHIRIPA (05-May-2021 14:53:15)
 ------------------------------------------------------
 Symbolic Z-matrix:
 Charge =  0 Multiplicity = 1

                         Standard orientation:
 ---------------------------------------------------------------------
 Center     Atomic      Atomic             Coordinates (Angstroms)
 Number     Number       Type             X           Y           Z
 ---------------------------------------------------------------------
      1          6           0        1.831889    1.631623   -0.396641
      2          6           0        1.192365    2.458126    0.719551
      3          6           0        0.518061    3.729031    0.201951
      4          1           0        2.569560    2.250356   -0.925750
      5          1           0        1.061506    1.365049   -1.133420
      6          1           0        1.963453    2.721890    1.454717
      7          1           0        0.456268    1.837294    1.246187
      8          1           0       -0.270909    3.481642   -0.515633
      9          1           0        1.244840    4.371263   -0.305918
     10          1           0        0.067495    4.304697    1.016481
     11          6           0        2.509998    0.357979    0.105084
     12          6           0        3.149522   -0.468525   -1.011108
     13          6           0        3.823826   -1.739429   -0.493507
     14          1           0        3.280381    0.624552    0.841864
     15          1           0        1.772327   -0.260754    0.634193
     16          1           0        3.885618    0.152307   -1.537743
     17          1           0        2.378434   -0.732288   -1.746273
     18          1           0        3.097047   -2.381662    0.014362
     19          1           0        4.612795   -1.492041    0.224076
     20          1           0        4.274391   -2.315096   -1.308037
     21          6           0       -0.268557   -2.676312    0.963310
     22          6           0       -0.448599   -1.531395    1.746426
     23          6           0       -1.237412   -0.472994    1.285869
     24          6           0       -1.834054   -0.593588    0.031770
     25          6           0       -1.673691   -1.721296   -0.771877
     26          6           0       -0.880598   -2.767447   -0.291130
     27          1           0        0.345874   -3.493746    1.328924
     28          1           0        0.025504   -1.457862    2.721035
     29          1           0       -1.393575    0.424835    1.871475
     30          1           0       -2.159116   -1.765561   -1.739255
     31          1           0       -0.742535   -3.655403   -0.901473
     32          7           0       -2.671400    0.520410   -0.466487
     33          8           0       -3.186224    0.389654   -1.574863
     34          8           0       -2.797032    1.503225    0.260788
 ---------------------------------------------------------------------

 SCF Done:  E(RHF) =  -669.534170306     A.U. after   15 cycles
 E2 =    -0.2096610304D+01 EUMP2 =    -0.67163078061041D+03

 The electronic state is 1-A.
 Alpha  occ. eigenvalues --  -20.60982 -20.60966 -15.86014 -11.31403 -11.27957
 Alpha  occ. eigenvalues --  -11.27936 -11.27692 -11.26977 -11.26943 -11.21743
 Alpha  occ. eigenvalues --  -11.21453 -11.21412 -11.21306 -11.21239 -11.20500
 Alpha  occ. eigenvalues --   -1.60041  -1.39593  -1.19583  -1.08967  -1.08388
 Alpha  occ. eigenvalues --   -1.04984  -1.03477  -0.95902  -0.95794  -0.86929
 Alpha  occ. eigenvalues --   -0.86367  -0.82622  -0.79568  -0.78239  -0.77648
 Alpha  occ. eigenvalues --   -0.72229  -0.71369  -0.70677  -0.65222  -0.65102
 Alpha  occ. eigenvalues --   -0.64945  -0.62345  -0.60857  -0.59312  -0.57524
 Alpha  occ. eigenvalues --   -0.55464  -0.55239  -0.53315  -0.53063  -0.52586
 Alpha  occ. eigenvalues --   -0.52328  -0.49851  -0.48995  -0.48987  -0.47877
 Alpha  occ. eigenvalues --   -0.46605  -0.45743  -0.45671  -0.44951  -0.43707
 Alpha  occ. eigenvalues --   -0.37503  -0.36433
 Alpha virt. eigenvalues --    0.04788   0.10955   0.16204   0.20686   0.23023
 Alpha virt. eigenvalues --    0.23870   0.26252   0.26843   0.27350   0.27987
 Alpha virt. eigenvalues --    0.28687   0.30848   0.31457   0.31631   0.32143

 Mulliken charges:
               1
     1  C   -0.297595
     2  C   -0.301804
     3  C   -0.475213
     4  H    0.150218
     5  H    0.149448
     6  H    0.148541
     7  H    0.145743
     8  H    0.167214
     9  H    0.151602
    10  H    0.160877
    11  C   -0.307282
    12  C   -0.297857
    13  C   -0.475139
    14  H    0.145886
    15  H    0.157183
    16  H    0.152918
    17  H    0.151761
    18  H    0.146485
    19  H    0.155393
    20  H    0.160037
    21  C   -0.169038
    22  C   -0.222860
    23  C   -0.168777
    24  C    0.160278
    25  C   -0.171639
    26  C   -0.217907
    27  H    0.227462
    28  H    0.226155
    29  H    0.277632
    30  H    0.276464
    31  H    0.224936
    32  N    0.487660
    33  O   -0.459190
    34  O   -0.459592
 Sum of Mulliken charges =  -0.00000

 Dipole moment (field-independent basis, Debye):
    X=              2.7032    Y=             -3.9320    Z=              1.7252  Tot=              5.0739
 Quadrupole moment (field-independent basis, Debye-Ang):
   XX=           -106.1569   YY=            -89.7354   ZZ=            -91.3072
   XY=              6.8855   XZ=             -2.3550   YZ=              1.3533

 Normal termination of Gaussian 16 at Thu May  6 17:10:17 2021.
