 Gaussian 16, Revision A.03,
 Gaussian 16:  EM64L-G16RevA.03 25-Dec-2016

 -------------
 #p 6-31g* mp2
 -------------

 ------------------------------------------------------
 Input file generated by CHIRIPA (05-May-2021 14:53:12)
 ------------------------------------------------------
 Symbolic Z-matrix:
 Charge =  0 Multiplicity = 1

                         Standard orientation:
 ---------------------------------------------------------------------
 Center     Atomic      Atomic             Coordinates (Angstroms)
 Number     Number       Type             X           Y           Z
 ---------------------------------------------------------------------
      1          6           0        4.209891   -0.135312    0.111912
      2          6           0        3.376386    1.088188   -0.270581
      3          6           0        1.883977    0.894801   -0.000191
      4          1           0        3.844901   -1.008629   -0.445802
      5          1           0        4.055017   -0.357458    1.176835
      6          1           0        3.533859    1.308793   -1.334137
      7          1           0        3.743527    1.958733    0.287965
      8          1           0        1.707360    0.697191    1.062051
      9          1           0        1.496501    0.043558   -0.569268
     10          1           0        1.306933    1.781428   -0.280856
     11          6           0        5.703914    0.042712   -0.152531
     12          6           0        6.537420   -1.180788    0.229963
     13          6           0        8.029829   -0.987401   -0.040427
     14          1           0        5.858788    0.264858   -1.217453
     15          1           0        6.068905    0.916029    0.405183
     16          1           0        6.170279   -2.051334   -0.328584
     17          1           0        6.379946   -1.401393    1.293519
     18          1           0        8.417305   -0.136158    0.528650
     19          1           0        8.206446   -0.789792   -1.102669
     20          1           0        8.606873   -1.874028    0.240238
     21          6           0       -1.865204    1.558331    0.155129
     22          6           0       -2.480233    1.102029    1.325619
     23          6           0       -3.593066    0.258287    1.260438
     24          6           0       -4.066646   -0.110985    0.002404
     25          6           0       -3.475705    0.326952   -1.181780
     26          6           0       -2.364023    1.170021   -1.092636
     27          1           0       -1.001175    2.213508    0.215070
     28          1           0       -2.095008    1.401967    2.296023
     29          1           0       -4.088461   -0.109691    2.150715
     30          1           0       -3.882527    0.010794   -2.134649
     31          1           0       -1.888402    1.522847   -2.003318
     32          7           0       -5.244143   -1.003861   -0.079286
     33          8           0       -5.642109   -1.314698   -1.199839
     34          8           0       -5.746804   -1.375952    0.978787
 ---------------------------------------------------------------------

 SCF Done:  E(RHF) =  -669.535294103     A.U. after   15 cycles
 E2 =    -0.2091022792D+01 EUMP2 =    -0.67162631689481D+03

 The electronic state is 1-A.
 Alpha  occ. eigenvalues --  -20.60711 -20.60706 -15.85765 -11.31111 -11.27689
 Alpha  occ. eigenvalues --  -11.27685 -11.27386 -11.26689 -11.26678 -11.22377
 Alpha  occ. eigenvalues --  -11.22120 -11.21995 -11.21981 -11.21851 -11.21399
 Alpha  occ. eigenvalues --   -1.59787  -1.39341  -1.19286  -1.09008  -1.08678
 Alpha  occ. eigenvalues --   -1.04689  -1.04147  -0.96620  -0.95514  -0.87642
 Alpha  occ. eigenvalues --   -0.86084  -0.82355  -0.80216  -0.78783  -0.77405
 Alpha  occ. eigenvalues --   -0.71983  -0.71111  -0.70406  -0.65631  -0.64936
 Alpha  occ. eigenvalues --   -0.64697  -0.62041  -0.61534  -0.60053  -0.58213
 Alpha  occ. eigenvalues --   -0.55889  -0.55247  -0.53332  -0.53036  -0.52925
 Alpha  occ. eigenvalues --   -0.52781  -0.50540  -0.48741  -0.48739  -0.48525
 Alpha  occ. eigenvalues --   -0.47226  -0.46335  -0.46236  -0.44751  -0.44396
 Alpha  occ. eigenvalues --   -0.37232  -0.36298
 Alpha virt. eigenvalues --    0.05119   0.11346   0.16577   0.20421   0.22458
 Alpha virt. eigenvalues --    0.23873   0.26093   0.26237   0.26935   0.27381
 Alpha virt. eigenvalues --    0.28452   0.30329   0.30816   0.31469   0.32482

 Mulliken charges:
               1
     1  C   -0.299246
     2  C   -0.299900
     3  C   -0.476742
     4  H    0.151460
     5  H    0.150312
     6  H    0.153113
     7  H    0.152551
     8  H    0.155871
     9  H    0.161034
    10  H    0.148328
    11  C   -0.298694
    12  C   -0.300095
    13  C   -0.476002
    14  H    0.150152
    15  H    0.149960
    16  H    0.152929
    17  H    0.152459
    18  H    0.155389
    19  H    0.155613
    20  H    0.161601
    21  C   -0.167878
    22  C   -0.220419
    23  C   -0.170900
    24  C    0.158230
    25  C   -0.171078
    26  C   -0.220390
    27  H    0.229073
    28  H    0.223183
    29  H    0.275245
    30  H    0.275238
    31  H    0.222952
    32  N    0.488093
    33  O   -0.460749
    34  O   -0.460694
 Sum of Mulliken charges =  -0.00000

 Dipole moment (field-independent basis, Debye):
    X=              4.3445    Y=              3.0880    Z=              0.2908  Tot=              5.3380
 Quadrupole moment (field-independent basis, Debye-Ang):
   XX=           -130.0146   YY=            -96.2370   ZZ=            -88.8800
   XY=            -13.4146   XZ=             -1.1921   YZ=              0.2029

 Normal termination of Gaussian 16 at Wed May  5 21:43:47 2021.
