 Gaussian 16, Revision A.03,
 Gaussian 16:  EM64L-G16RevA.03 25-Dec-2016

 -------------
 #p 6-31g* mp2
 -------------

 ------------------------------------------------------
 Input file generated by CHIRIPA (05-May-2021 14:55:23)
 ------------------------------------------------------
 Symbolic Z-matrix:
 Charge =  0 Multiplicity = 1

                         Standard orientation:
 ---------------------------------------------------------------------
 Center     Atomic      Atomic             Coordinates (Angstroms)
 Number     Number       Type             X           Y           Z
 ---------------------------------------------------------------------
      1          6           0        0.439389   -0.787625    1.378611
      2          6           0        0.494779   -0.985575   -0.004960
      3          6           0        1.685846   -0.773045   -0.705487
      4          6           0        2.807479   -0.360976    0.012446
      5          6           0        2.784007   -0.155215    1.390996
      6          6           0        1.582165   -0.373807    2.070953
      7          1           0       -0.490046   -0.955078    1.914808
      8          1           0       -0.391150   -1.306931   -0.545244
      9          1           0        1.756711   -0.918757   -1.776544
     10          1           0        3.683657    0.165351    1.902158
     11          1           0        1.542082   -0.219287    3.145458
     12          7           0        4.074112   -0.132771   -0.718282
     13          8           0        5.048331    0.230075   -0.062633
     14          8           0        4.068695   -0.321072   -1.932840
     15          6           0       -3.826904    0.063116   -0.534800
     16          6           0       -4.162986   -1.218796    0.227917
     17          6           0       -5.165597   -2.102770   -0.514479
     18          1           0       -4.751818    0.627620   -0.715945
     19          1           0       -3.423483   -0.201038   -1.522155
     20          1           0       -4.564361   -0.952322    1.214074
     21          1           0       -3.237140   -1.780220    0.407435
     22          1           0       -4.769727   -2.397321   -1.491785
     23          1           0       -6.104489   -1.564719   -0.680563
     24          1           0       -5.391615   -3.013684    0.048559
     25          6           0       -2.825826    0.957266    0.194630
     26          6           0       -2.489744    2.239177   -0.568087
     27          6           0       -1.487131    3.123152    0.174310
     28          1           0       -3.229246    1.221419    1.181986
     29          1           0       -1.900912    0.392760    0.375775
     30          1           0       -3.415590    2.800601   -0.747604
     31          1           0       -2.088369    1.972703   -1.554244
     32          1           0       -0.548240    2.585100    0.340393
     33          1           0       -1.883002    3.417702    1.151615
     34          1           0       -1.261114    4.034065   -0.388729
 ---------------------------------------------------------------------

 SCF Done:  E(RHF) =  -669.534238951     A.U. after   15 cycles
 E2 =    -0.2094004855D+01 EUMP2 =    -0.67162824380561D+03

 The electronic state is 1-A.
 Alpha  occ. eigenvalues --  -20.60807 -20.60802 -15.85862 -11.31252 -11.27830
 Alpha  occ. eigenvalues --  -11.27825 -11.27556 -11.26842 -11.26829 -11.22624
 Alpha  occ. eigenvalues --  -11.22255 -11.22193 -11.22123 -11.21863 -11.21471
 Alpha  occ. eigenvalues --   -1.59882  -1.39435  -1.19439  -1.09270  -1.08819
 Alpha  occ. eigenvalues --   -1.04846  -1.04254  -0.96688  -0.95657  -0.87701
 Alpha  occ. eigenvalues --   -0.86252  -0.82484  -0.80344  -0.79101  -0.77524
 Alpha  occ. eigenvalues --   -0.72082  -0.71206  -0.70551  -0.66047  -0.65077
 Alpha  occ. eigenvalues --   -0.64750  -0.62182  -0.61661  -0.60062  -0.58301
 Alpha  occ. eigenvalues --   -0.55970  -0.55339  -0.53357  -0.53242  -0.53062
 Alpha  occ. eigenvalues --   -0.52925  -0.50635  -0.48842  -0.48834  -0.48642
 Alpha  occ. eigenvalues --   -0.47400  -0.46589  -0.46530  -0.44836  -0.44524
 Alpha  occ. eigenvalues --   -0.37333  -0.36426
 Alpha virt. eigenvalues --    0.04989   0.11068   0.16439   0.18894   0.22796
 Alpha virt. eigenvalues --    0.23658   0.25300   0.25807   0.27022   0.28055
 Alpha virt. eigenvalues --    0.30153   0.30562   0.31042   0.31336   0.31520

 Mulliken charges:
               1
     1  C   -0.170352
     2  C   -0.220252
     3  C   -0.172383
     4  C    0.158259
     5  C   -0.170748
     6  C   -0.219966
     7  H    0.229147
     8  H    0.226588
     9  H    0.275979
    10  H    0.276058
    11  H    0.224237
    12  N    0.488124
    13  O   -0.460147
    14  O   -0.460251
    15  C   -0.299102
    16  C   -0.300507
    17  C   -0.475715
    18  H    0.154453
    19  H    0.148001
    20  H    0.154125
    21  H    0.141123
    22  H    0.156016
    23  H    0.158772
    24  H    0.162143
    25  C   -0.307617
    26  C   -0.298293
    27  C   -0.478913
    28  H    0.149125
    29  H    0.149468
    30  H    0.153958
    31  H    0.152168
    32  H    0.159438
    33  H    0.153678
    34  H    0.163385
 Sum of Mulliken charges =  -0.00000

 Dipole moment (field-independent basis, Debye):
    X=             -4.5125    Y=             -0.7498    Z=              2.5657  Tot=              5.2448
 Quadrupole moment (field-independent basis, Debye-Ang):
   XX=           -118.6776   YY=            -94.8141   ZZ=            -91.0523
   XY=             -0.8900   XZ=              8.9555   YZ=              0.1829

 Normal termination of Gaussian 16 at Thu May  6 07:51:55 2021.
