 Gaussian 16, Revision A.03,
 Gaussian 16:  EM64L-G16RevA.03 25-Dec-2016

 -------------
 #p 6-31g* mp2
 -------------

 ------------------------------------------------------
 Input file generated by CHIRIPA (05-May-2021 14:57:26)
 ------------------------------------------------------
 Symbolic Z-matrix:
 Charge =  0 Multiplicity = 1

                         Standard orientation:
 ---------------------------------------------------------------------
 Center     Atomic      Atomic             Coordinates (Angstroms)
 Number     Number       Type             X           Y           Z
 ---------------------------------------------------------------------
      1          6           0       -1.562796    2.779406    0.482324
      2          6           0       -1.397653    1.830351    1.496496
      3          6           0       -1.901126    0.534880    1.345441
      4          6           0       -2.567523    0.221258    0.161867
      5          6           0       -2.748078    1.144644   -0.866747
      6          6           0       -2.236294    2.434132   -0.693987
      7          1           0       -1.168458    3.783435    0.608098
      8          1           0       -0.875033    2.095685    2.411106
      9          1           0       -1.787412   -0.219418    2.114546
     10          1           0       -3.273559    0.850536   -1.767185
     11          1           0       -2.366028    3.169129   -1.483286
     12          7           0       -3.104926   -1.147032   -0.009537
     13          8           0       -3.688216   -1.398335   -1.061800
     14          8           0       -2.932677   -1.942286    0.911624
     15          6           0        4.214347    1.382002   -0.090470
     16          6           0        4.467191    0.143654    0.508770
     17          6           0        3.512911   -0.876883    0.459768
     18          6           0        2.311181   -0.623567   -0.199750
     19          6           0        2.029738    0.599554   -0.806426
     20          6           0        2.998570    1.605605   -0.745000
     21          1           0        4.961306    2.169152   -0.047578
     22          1           0        5.410492   -0.032823    1.017771
     23          1           0        3.682600   -1.844989    0.915174
     24          1           0        1.080074    0.745717   -1.306618
     25          1           0        2.799477    2.566334   -1.211269
     26          7           0        1.293223   -1.696297   -0.258203
     27          8           0        0.242379   -1.448001   -0.845322
     28          8           0        1.565471   -2.765085    0.284209
 ---------------------------------------------------------------------

 SCF Done:  E(RHF) =  -868.337046211     A.U. after   16 cycles
 E2 =    -0.2602681816D+01 EUMP2 =    -0.87093972802718D+03

 The electronic state is 1-A.
 Alpha  occ. eigenvalues --  -20.60835 -20.60809 -20.59738 -20.59706 -15.85875
 Alpha  occ. eigenvalues --  -15.84800 -11.31351 -11.30576 -11.27942 -11.27936
 Alpha  occ. eigenvalues --  -11.27735 -11.27231 -11.27186 -11.27144 -11.27008
 Alpha  occ. eigenvalues --  -11.26974 -11.26435 -11.26390  -1.59882  -1.58758
 Alpha  occ. eigenvalues --   -1.39439  -1.38319  -1.19549  -1.18822  -1.08925
 Alpha  occ. eigenvalues --   -1.08147  -1.04968  -1.04317  -0.95736  -0.94913
 Alpha  occ. eigenvalues --   -0.86360  -0.85688  -0.82575  -0.81765  -0.77597
 Alpha  occ. eigenvalues --   -0.76707  -0.72147  -0.71242  -0.71050  -0.70656
 Alpha  occ. eigenvalues --   -0.69977  -0.69949  -0.65201  -0.64975  -0.64491
 Alpha  occ. eigenvalues --   -0.64348  -0.62310  -0.61656  -0.55474  -0.54853
 Alpha  occ. eigenvalues --   -0.53308  -0.53098  -0.52568  -0.52425  -0.48840
 Alpha  occ. eigenvalues --   -0.48824  -0.47824  -0.47757  -0.44841  -0.43635
 Alpha  occ. eigenvalues --   -0.37567  -0.36868  -0.36506  -0.35925
 Alpha virt. eigenvalues --    0.04880   0.05939   0.11060   0.11708   0.16387
 Alpha virt. eigenvalues --    0.17267   0.21149   0.21724   0.27022   0.27611
 Alpha virt. eigenvalues --    0.28031   0.28651   0.30658   0.31221   0.32198

 Mulliken charges:
               1
     1  C   -0.176865
     2  C   -0.220090
     3  C   -0.172068
     4  C    0.177620
     5  C   -0.171449
     6  C   -0.224190
     7  H    0.219817
     8  H    0.220267
     9  H    0.276864
    10  H    0.275851
    11  H    0.219461
    12  N    0.494571
    13  O   -0.462667
    14  O   -0.456818
    15  C   -0.171375
    16  C   -0.219215
    17  C   -0.171132
    18  C    0.156656
    19  C   -0.169726
    20  C   -0.220646
    21  H    0.224917
    22  H    0.223830
    23  H    0.276932
    24  H    0.277202
    25  H    0.220375
    26  N    0.489294
    27  O   -0.462675
    28  O   -0.454740
 Sum of Mulliken charges =  -0.00000

 Dipole moment (field-independent basis, Debye):
    X=              5.4389    Y=              8.1342    Z=              0.8106  Tot=              9.8186
 Quadrupole moment (field-independent basis, Debye-Ang):
   XX=            -96.6494   YY=           -106.8339   ZZ=           -100.1759
   XY=             -7.6239   XZ=              2.2371   YZ=             -3.1788

 Normal termination of Gaussian 16 at Fri May  7 00:31:47 2021.
