 Gaussian 16, Revision A.03,
 Gaussian 16:  EM64L-G16RevA.03 25-Dec-2016

 -------------
 #p 6-31g* mp2
 -------------

 ------------------------------------------------------
 Input file generated by CHIRIPA (05-May-2021 14:53:14)
 ------------------------------------------------------
 Symbolic Z-matrix:
 Charge =  0 Multiplicity = 1

                         Standard orientation:
 ---------------------------------------------------------------------
 Center     Atomic      Atomic             Coordinates (Angstroms)
 Number     Number       Type             X           Y           Z
 ---------------------------------------------------------------------
      1          6           0       -4.380411    0.261749    0.076732
      2          6           0       -3.301686   -0.664452    0.639307
      3          6           0       -1.921402   -0.007991    0.680132
      4          1           0       -4.092616    0.576913   -0.935588
      5          1           0       -4.425251    1.174228    0.687277
      6          1           0       -3.259845   -1.575516    0.028710
      7          1           0       -3.592175   -0.977601    1.650331
      8          1           0       -1.940450    0.890436    1.305486
      9          1           0       -1.606231    0.289123   -0.325349
     10          1           0       -1.165438   -0.687646    1.085656
     11          6           0       -5.765789   -0.380302    0.029550
     12          6           0       -6.844513    0.545899   -0.533025
     13          6           0       -8.224798   -0.110562   -0.573851
     14          1           0       -5.720948   -1.292782   -0.580996
     15          1           0       -6.053583   -0.695467    1.041869
     16          1           0       -6.554024    0.859048   -1.544049
     17          1           0       -6.886355    1.456963    0.077571
     18          1           0       -8.539968   -0.407677    0.431630
     19          1           0       -8.205749   -1.008989   -1.199204
     20          1           0       -8.980761    0.569092   -0.979374
     21          6           0        6.439665   -0.275246   -0.402674
     22          6           0        5.913259    1.013814   -0.269467
     23          6           0        4.542767    1.203872   -0.069027
     24          6           0        3.723959    0.077396   -0.006601
     25          6           0        4.218348   -1.219601   -0.135698
     26          6           0        5.592023   -1.385881   -0.335483
     27          1           0        7.505532   -0.413652   -0.558127
     28          1           0        6.569170    1.878190   -0.321231
     29          1           0        4.108697    2.190634    0.037292
     30          1           0        3.539439   -2.061840   -0.079695
     31          1           0        5.998055   -2.388154   -0.438599
     32          7           0        2.271395    0.266017    0.205250
     33          8           0        1.571186   -0.742801    0.256530
     34          8           0        1.860589    1.419103    0.316005
 ---------------------------------------------------------------------

 SCF Done:  E(RHF) =  -669.535876643     A.U. after   15 cycles
 E2 =    -0.2091078351D+01 EUMP2 =    -0.67162695499330D+03

 The electronic state is 1-A.
 Alpha  occ. eigenvalues --  -20.60915 -20.60909 -15.85942 -11.31285 -11.27848
 Alpha  occ. eigenvalues --  -11.27844 -11.27588 -11.26858 -11.26849 -11.20893
 Alpha  occ. eigenvalues --  -11.20508 -11.20494 -11.20253 -11.20130 -11.18920
 Alpha  occ. eigenvalues --   -1.59966  -1.39524  -1.19452  -1.08853  -1.07395
 Alpha  occ. eigenvalues --   -1.04851  -1.02366  -0.95694  -0.94765  -0.86251
 Alpha  occ. eigenvalues --   -0.85767  -0.82525  -0.78472  -0.77575  -0.77149
 Alpha  occ. eigenvalues --   -0.72159  -0.71285  -0.70560  -0.65107  -0.64854
 Alpha  occ. eigenvalues --   -0.64044  -0.62198  -0.59782  -0.58241  -0.56366
 Alpha  occ. eigenvalues --   -0.55355  -0.54079  -0.53182  -0.52944  -0.51460
 Alpha  occ. eigenvalues --   -0.51194  -0.48925  -0.48905  -0.48639  -0.46752
 Alpha  occ. eigenvalues --   -0.45554  -0.44936  -0.44676  -0.44603  -0.42548
 Alpha  occ. eigenvalues --   -0.37433  -0.36453
 Alpha virt. eigenvalues --    0.04952   0.11202   0.16449   0.21338   0.23801
 Alpha virt. eigenvalues --    0.25531   0.27253   0.27615   0.28216   0.28447
 Alpha virt. eigenvalues --    0.29318   0.30904   0.32437   0.32522   0.32677

 Mulliken charges:
               1
     1  C   -0.296798
     2  C   -0.301786
     3  C   -0.471741
     4  H    0.148268
     5  H    0.147867
     6  H    0.147514
     7  H    0.145907
     8  H    0.149799
     9  H    0.156337
    10  H    0.177075
    11  C   -0.297063
    12  C   -0.298780
    13  C   -0.475074
    14  H    0.147612
    15  H    0.147730
    16  H    0.150974
    17  H    0.151040
    18  H    0.154162
    19  H    0.154073
    20  H    0.158089
    21  C   -0.170650
    22  C   -0.218577
    23  C   -0.170725
    24  C    0.158041
    25  C   -0.170889
    26  C   -0.218538
    27  H    0.225929
    28  H    0.223783
    29  H    0.275898
    30  H    0.275657
    31  H    0.223753
    32  N    0.489014
    33  O   -0.459418
    34  O   -0.458485
 Sum of Mulliken charges =  -0.00000

 Dipole moment (field-independent basis, Debye):
    X=              5.5656    Y=             -0.6504    Z=             -0.7417  Tot=              5.6523
 Quadrupole moment (field-independent basis, Debye-Ang):
   XX=            -60.0358   YY=            -90.0008   ZZ=            -94.8716
   XY=             -1.8580   XZ=             -3.1398   YZ=              0.4158

 Normal termination of Gaussian 16 at Thu May  6 15:25:52 2021.
