 Gaussian 16, Revision A.03,
 Gaussian 16:  EM64L-G16RevA.03 25-Dec-2016

 -------------
 #p 6-31g* mp2
 -------------

 ------------------------------------------------------
 Input file generated by CHIRIPA (05-May-2021 14:55:21)
 ------------------------------------------------------
 Symbolic Z-matrix:
 Charge =  0 Multiplicity = 1

                         Standard orientation:
 ---------------------------------------------------------------------
 Center     Atomic      Atomic             Coordinates (Angstroms)
 Number     Number       Type             X           Y           Z
 ---------------------------------------------------------------------
      1          6           0        0.817509   -1.732903    0.480091
      2          6           0        0.700408   -0.396642    0.876594
      3          6           0        1.752913    0.500091    0.670073
      4          6           0        2.913383    0.024472    0.061479
      5          6           0        3.060380   -1.300937   -0.344692
      6          6           0        1.995046   -2.179997   -0.128214
      7          1           0       -0.005085   -2.422642    0.644389
      8          1           0       -0.212905   -0.046632    1.349245
      9          1           0        1.689016    1.539822    0.967215
     10          1           0        3.983230   -1.620443   -0.813394
     11          1           0        2.088793   -3.217206   -0.437172
     12          7           0        4.034414    0.964448   -0.162426
     13          8           0        5.046308    0.520605   -0.700675
     14          8           0        3.879958    2.127245    0.204565
     15          6           0       -3.177062    0.861557   -0.088544
     16          6           0       -4.196688    1.996857   -0.185712
     17          6           0       -3.550086    3.380285   -0.109392
     18          1           0       -2.620907    0.956428    0.854131
     19          1           0       -2.441337    0.968587   -0.897648
     20          1           0       -4.931070    1.886925    0.622505
     21          1           0       -4.750612    1.899161   -1.128176
     22          1           0       -2.831223    3.515007   -0.924061
     23          1           0       -3.012706    3.502702    0.836567
     24          1           0       -4.297033    4.177047   -0.180817
     25          6           0       -3.808215   -0.527610   -0.163312
     26          6           0       -2.788589   -1.662910   -0.066144
     27          6           0       -3.435190   -3.046339   -0.142465
     28          1           0       -4.543939   -0.634642    0.645792
     29          1           0       -4.364370   -0.622481   -1.105987
     30          1           0       -2.234665   -1.565215    0.876320
     31          1           0       -2.054207   -1.552979   -0.874361
     32          1           0       -3.972571   -3.168755   -1.088423
     33          1           0       -4.154054   -3.181060    0.672205
     34          1           0       -2.688244   -3.843100   -0.071039
 ---------------------------------------------------------------------

 SCF Done:  E(RHF) =  -669.534333502     A.U. after   15 cycles
 E2 =    -0.2093212152D+01 EUMP2 =    -0.67162754565364D+03

 The electronic state is 1-A.
 Alpha  occ. eigenvalues --  -20.60685 -20.60680 -15.85738 -11.31073 -11.27650
 Alpha  occ. eigenvalues --  -11.27635 -11.27307 -11.26645 -11.26596 -11.22852
 Alpha  occ. eigenvalues --  -11.22373 -11.22315 -11.22255 -11.22201 -11.21603
 Alpha  occ. eigenvalues --   -1.59762  -1.39316  -1.19244  -1.09405  -1.08634
 Alpha  occ. eigenvalues --   -1.04647  -1.04454  -0.96875  -0.95482  -0.87887
 Alpha  occ. eigenvalues --   -0.86050  -0.82326  -0.80574  -0.79230  -0.77360
 Alpha  occ. eigenvalues --   -0.71956  -0.71086  -0.70350  -0.66047  -0.64892
 Alpha  occ. eigenvalues --   -0.64640  -0.62017  -0.61820  -0.60289  -0.58527
 Alpha  occ. eigenvalues --   -0.56135  -0.55089  -0.53580  -0.53307  -0.52976
 Alpha  occ. eigenvalues --   -0.52732  -0.50805  -0.48835  -0.48716  -0.48705
 Alpha  occ. eigenvalues --   -0.47587  -0.46706  -0.46613  -0.44728  -0.44706
 Alpha  occ. eigenvalues --   -0.37181  -0.36246
 Alpha virt. eigenvalues --    0.05148   0.11352   0.16583   0.19651   0.22353
 Alpha virt. eigenvalues --    0.22898   0.24502   0.25909   0.26305   0.28663
 Alpha virt. eigenvalues --    0.29291   0.30327   0.30876   0.31132   0.32336

 Mulliken charges:
               1
     1  C   -0.173441
     2  C   -0.221828
     3  C   -0.172554
     4  C    0.158087
     5  C   -0.171054
     6  C   -0.220283
     7  H    0.232477
     8  H    0.227999
     9  H    0.275251
    10  H    0.275022
    11  H    0.222744
    12  N    0.488084
    13  O   -0.460882
    14  O   -0.460765
    15  C   -0.301452
    16  C   -0.300277
    17  C   -0.476575
    18  H    0.142439
    19  H    0.154322
    20  H    0.153182
    21  H    0.154733
    22  H    0.157828
    23  H    0.154090
    24  H    0.163468
    25  C   -0.297957
    26  C   -0.307521
    27  C   -0.476827
    28  H    0.151969
    29  H    0.154317
    30  H    0.140816
    31  H    0.158414
    32  H    0.161100
    33  H    0.159290
    34  H    0.155783
 Sum of Mulliken charges =  -0.00000

 Dipole moment (field-independent basis, Debye):
    X=             -4.2337    Y=             -3.2563    Z=              0.6676  Tot=              5.3827
 Quadrupole moment (field-independent basis, Debye-Ang):
   XX=           -116.1703   YY=            -93.3986   ZZ=            -93.4730
   XY=            -12.4819   XZ=              1.0191   YZ=              1.5642

 Normal termination of Gaussian 16 at Thu May  6 19:10:20 2021.
