 Gaussian 16, Revision A.03,
 Gaussian 16:  EM64L-G16RevA.03 25-Dec-2016

 -------------
 #p 6-31g* mp2
 -------------

 ------------------------------------------------------
 Input file generated by CHIRIPA (05-May-2021 14:57:22)
 ------------------------------------------------------
 Symbolic Z-matrix:
 Charge =  0 Multiplicity = 1

                         Standard orientation:
 ---------------------------------------------------------------------
 Center     Atomic      Atomic             Coordinates (Angstroms)
 Number     Number       Type             X           Y           Z
 ---------------------------------------------------------------------
      1          6           0       -1.290425   -0.472740    0.058686
      2          6           0       -2.003967   -0.547506    1.259431
      3          6           0       -3.392746   -0.387191    1.271228
      4          6           0       -4.038817   -0.152379    0.058485
      5          6           0       -3.355885   -0.072479   -1.154161
      6          6           0       -1.967468   -0.235883   -1.142160
      7          1           0       -0.211728   -0.598476    0.058765
      8          1           0       -1.480801   -0.731344    2.193533
      9          1           0       -3.969843   -0.440300    2.186410
     10          1           0       -3.905162    0.111924   -2.069425
     11          1           0       -1.415910   -0.177318   -2.076184
     12          7           0       -5.508864    0.018975    0.058378
     13          8           0       -6.054616    0.224878   -1.023471
     14          8           0       -6.087499   -0.055866    1.140143
     15          6           0        4.994804   -2.038928    0.002168
     16          6           0        3.737885   -1.938324   -0.603269
     17          6           0        3.064781   -0.713611   -0.642718
     18          6           0        3.680691    0.395197   -0.064369
     19          6           0        4.932049    0.326969    0.546156
     20          6           0        5.586831   -0.907954    0.573940
     21          1           0        5.510570   -2.994281    0.028283
     22          1           0        3.275698   -2.814988   -1.048117
     23          1           0        2.090884   -0.607485   -1.104975
     24          1           0        5.367382    1.218422    0.981144
     25          1           0        6.562883   -0.983125    1.044806
     26          7           0        2.977804    1.697152   -0.099957
     27          8           0        3.541864    2.659195    0.416711
     28          8           0        1.876132    1.730926   -0.643845
 ---------------------------------------------------------------------

 SCF Done:  E(RHF) =  -868.337746880     A.U. after   16 cycles
 E2 =    -0.2599876934D+01 EUMP2 =    -0.87093762381385D+03

 The electronic state is 1-A.
 Alpha  occ. eigenvalues --  -20.61777 -20.61733 -20.60432 -20.60426 -15.86798
 Alpha  occ. eigenvalues --  -15.85484 -11.32184 -11.30785 -11.28827 -11.28654
 Alpha  occ. eigenvalues --  -11.28386 -11.27756 -11.27669 -11.27367 -11.27350
 Alpha  occ. eigenvalues --  -11.27095 -11.26367 -11.26341  -1.60821  -1.59508
 Alpha  occ. eigenvalues --   -1.40380  -1.39064  -1.20327  -1.18956  -1.09702
 Alpha  occ. eigenvalues --   -1.08360  -1.05732  -1.04356  -0.96548  -0.95209
 Alpha  occ. eigenvalues --   -0.87125  -0.85758  -0.83379  -0.82049  -0.78455
 Alpha  occ. eigenvalues --   -0.77102  -0.73014  -0.72146  -0.71706  -0.71431
 Alpha  occ. eigenvalues --   -0.70830  -0.70074  -0.65971  -0.65716  -0.64614
 Alpha  occ. eigenvalues --   -0.64370  -0.63092  -0.61714  -0.56193  -0.54897
 Alpha  occ. eigenvalues --   -0.54040  -0.53782  -0.52672  -0.52458  -0.49784
 Alpha  occ. eigenvalues --   -0.49754  -0.48462  -0.48458  -0.45771  -0.44484
 Alpha  occ. eigenvalues --   -0.38271  -0.37333  -0.36905  -0.35953
 Alpha virt. eigenvalues --    0.04047   0.05446   0.10213   0.11707   0.15607
 Alpha virt. eigenvalues --    0.16965   0.19308   0.21863   0.25459   0.26936
 Alpha virt. eigenvalues --    0.27786   0.28909   0.30645   0.31006   0.32173

 Mulliken charges:
               1
     1  C   -0.165425
     2  C   -0.219762
     3  C   -0.170758
     4  C    0.158052
     5  C   -0.171053
     6  C   -0.217090
     7  H    0.224149
     8  H    0.222013
     9  H    0.274348
    10  H    0.274814
    11  H    0.222374
    12  N    0.488154
    13  O   -0.461163
    14  O   -0.461522
    15  C   -0.170568
    16  C   -0.217991
    17  C   -0.177487
    18  C    0.159748
    19  C   -0.170437
    20  C   -0.217320
    21  H    0.229094
    22  H    0.225360
    23  H    0.268751
    24  H    0.278395
    25  H    0.227161
    26  N    0.488474
    27  O   -0.454326
    28  O   -0.465983
 Sum of Mulliken charges =  -0.00000

 Dipole moment (field-independent basis, Debye):
    X=              8.0636    Y=             -5.1303    Z=              0.1748  Tot=              9.5589
 Quadrupole moment (field-independent basis, Debye-Ang):
   XX=           -125.1278   YY=           -108.3489   ZZ=            -99.4275
   XY=            -12.8229   XZ=              3.0096   YZ=              0.8209

 Normal termination of Gaussian 16 at Fri May  7 06:25:28 2021.
