 Gaussian 16, Revision A.03,
 Gaussian 16:  EM64L-G16RevA.03 25-Dec-2016

 -------------
 #p 6-31g* mp2
 -------------

 ------------------------------------------------------
 Input file generated by CHIRIPA (05-May-2021 14:51:10)
 ------------------------------------------------------
 Symbolic Z-matrix:
 Charge =  0 Multiplicity = 1

                         Standard orientation:
 ---------------------------------------------------------------------
 Center     Atomic      Atomic             Coordinates (Angstroms)
 Number     Number       Type             X           Y           Z
 ---------------------------------------------------------------------
      1          6           0        3.489187   -1.054066    0.289052
      2          6           0        2.013083   -0.976134   -0.102135
      3          6           0        1.170076   -2.072554    0.549782
      4          1           0        3.885105   -2.039347    0.007241
      5          1           0        3.575857   -0.983371    1.382160
      6          1           0        1.929324   -1.045566   -1.194279
      7          1           0        1.620683    0.009145    0.180466
      8          1           0        1.223909   -2.002338    1.641007
      9          1           0        1.534303   -3.063042    0.258450
     10          1           0        0.118267   -1.998079    0.256505
     11          6           0        4.344863    0.035467   -0.354737
     12          6           0        5.820968   -0.042466    0.036450
     13          6           0        6.663975    1.053955   -0.615467
     14          1           0        4.258194   -0.035229   -1.447845
     15          1           0        3.948946    1.020747   -0.072926
     16          1           0        6.213368   -1.027745   -0.246151
     17          1           0        5.904727    0.026966    1.128594
     18          1           0        6.299748    2.044442   -0.324135
     19          1           0        6.610142    0.983739   -1.706692
     20          1           0        7.715784    0.979479   -0.322190
     21          6           0       -4.592265    0.462421   -0.321115
     22          6           0       -5.370207   -0.808233    0.022729
     23          6           0       -6.718939   -0.887562   -0.693109
     24          1           0       -5.200213    1.339153   -0.059036
     25          1           0       -4.434742    0.504805   -1.407754
     26          1           0       -5.525013   -0.848903    1.108545
     27          1           0       -4.760259   -1.682041   -0.240022
     28          1           0       -6.580240   -0.872143   -1.778985
     29          1           0       -7.349338   -0.034271   -0.422756
     30          1           0       -7.258250   -1.803708   -0.432955
     31          6           0       -3.241786    0.556178    0.386800
     32          6           0       -2.463844    1.826833    0.042956
     33          6           0       -1.115112    1.906162    0.758794
     34          1           0       -3.399308    0.513795    1.473440
     35          1           0       -2.633838   -0.320554    0.124721
     36          1           0       -3.073792    2.700641    0.305707
     37          1           0       -2.309038    1.867503   -1.042860
     38          1           0       -0.484713    1.052871    0.488441
     39          1           0       -1.253811    1.890743    1.844670
     40          1           0       -0.575801    2.822308    0.498640
 ---------------------------------------------------------------------

 SCF Done:  E(RHF) =  -470.733302920     A.U. after   11 cycles
 E2 =    -0.1582744802D+01 EUMP2 =    -0.47231604772193D+03

 The electronic state is 1-A.
 Alpha  occ. eigenvalues --  -11.21601 -11.21600 -11.21594 -11.21593 -11.21410
 Alpha  occ. eigenvalues --  -11.21398 -11.21350 -11.21339 -11.21098 -11.21069
 Alpha  occ. eigenvalues --  -11.21063 -11.21047  -1.08439  -1.08420  -1.03556
 Alpha  occ. eigenvalues --   -1.03506  -0.96004  -0.95959  -0.87010  -0.86986
 Alpha  occ. eigenvalues --   -0.79650  -0.79544  -0.78269  -0.78216  -0.65113
 Alpha  occ. eigenvalues --   -0.65016  -0.61065  -0.60819  -0.59392  -0.59309
 Alpha  occ. eigenvalues --   -0.57664  -0.57525  -0.55350  -0.55183  -0.52681
 Alpha  occ. eigenvalues --   -0.52674  -0.52414  -0.52399  -0.50019  -0.49850
 Alpha  occ. eigenvalues --   -0.47989  -0.47840  -0.46778  -0.46470  -0.45846
 Alpha  occ. eigenvalues --   -0.45750  -0.45727  -0.45572  -0.43791  -0.43779
 Alpha virt. eigenvalues --    0.20980   0.23015   0.23513   0.24942   0.26061
 Alpha virt. eigenvalues --    0.26181   0.27136   0.27177   0.28117   0.28962
 Alpha virt. eigenvalues --    0.30621   0.30773   0.31578   0.31757   0.31953

 Mulliken charges:
               1
     1  C   -0.297569
     2  C   -0.306515
     3  C   -0.477053
     4  H    0.149527
     5  H    0.149726
     6  H    0.151563
     7  H    0.158181
     8  H    0.155950
     9  H    0.155452
    10  H    0.160371
    11  C   -0.298499
    12  C   -0.299664
    13  C   -0.475718
    14  H    0.149400
    15  H    0.150140
    16  H    0.151878
    17  H    0.151998
    18  H    0.155252
    19  H    0.155126
    20  H    0.160228
    21  C   -0.298334
    22  C   -0.299662
    23  C   -0.475713
    24  H    0.149749
    25  H    0.149544
    26  H    0.151999
    27  H    0.151946
    28  H    0.155176
    29  H    0.155170
    30  H    0.160295
    31  C   -0.299449
    32  C   -0.299102
    33  C   -0.484092
    34  H    0.149725
    35  H    0.150207
    36  H    0.151923
    37  H    0.152007
    38  H    0.164011
    39  H    0.155021
    40  H    0.159808
 Sum of Mulliken charges =  -0.00000

 Dipole moment (field-independent basis, Debye):
    X=              0.0068    Y=              0.0006    Z=              0.0073  Tot=              0.0100
 Quadrupole moment (field-independent basis, Debye-Ang):
   XX=            -86.1174   YY=            -84.7853   ZZ=            -83.8708
   XY=             -1.0600   XZ=             -0.6324   YZ=              1.0747

 Normal termination of Gaussian 16 at Thu May  6 02:12:05 2021.
