 Gaussian 16, Revision A.03,
 Gaussian 16:  EM64L-G16RevA.03 25-Dec-2016

 -------------
 #p 6-31g* mp2
 -------------

 ------------------------------------------------------
 Input file generated by CHIRIPA (05-May-2021 14:57:24)
 ------------------------------------------------------
 Symbolic Z-matrix:
 Charge =  0 Multiplicity = 1

                         Standard orientation:
 ---------------------------------------------------------------------
 Center     Atomic      Atomic             Coordinates (Angstroms)
 Number     Number       Type             X           Y           Z
 ---------------------------------------------------------------------
      1          6           0       -1.581541    1.898643    0.816800
      2          6           0       -1.417314    0.512864    0.912537
      3          6           0       -2.433902   -0.352886    0.498322
      4          6           0       -3.606898    0.203872   -0.009013
      5          6           0       -3.800521    1.580148   -0.117021
      6          6           0       -2.770524    2.426931    0.303232
      7          1           0       -0.786623    2.563812    1.140918
      8          1           0       -0.495009    0.099775    1.310980
      9          1           0       -2.333233   -1.429602    0.561300
     10          1           0       -4.731241    1.962296   -0.518443
     11          1           0       -2.900839    3.502738    0.227714
     12          7           0       -4.690212   -0.702619   -0.450721
     13          8           0       -5.714065   -0.187091   -0.894108
     14          8           0       -4.494947   -1.911490   -0.345180
     15          6           0        1.476025   -1.769969    0.676012
     16          6           0        2.356363   -1.240697    1.625430
     17          6           0        3.441476   -0.454376    1.226961
     18          6           0        3.617099   -0.216313   -0.135306
     19          6           0        2.757391   -0.729528   -1.105256
     20          6           0        1.678990   -1.513149   -0.683903
     21          1           0        0.635689   -2.379753    0.994441
     22          1           0        2.201198   -1.438499    2.682238
     23          1           0        4.138356   -0.032180    1.940773
     24          1           0        2.937989   -0.514989   -2.151570
     25          1           0        0.996916   -1.922884   -1.423455
     26          7           0        4.762307    0.614701   -0.569260
     27          8           0        4.895147    0.809779   -1.775468
     28          8           0        5.505398    1.055234    0.305030
 ---------------------------------------------------------------------

 SCF Done:  E(RHF) =  -868.336982834     A.U. after   16 cycles
 E2 =    -0.2601497713D+01 EUMP2 =    -0.87093848054738D+03

 The electronic state is 1-A.
 Alpha  occ. eigenvalues --  -20.61466 -20.61456 -20.61243 -20.61223 -15.86520
 Alpha  occ. eigenvalues --  -15.86287 -11.32054 -11.31658 -11.28641 -11.28575
 Alpha  occ. eigenvalues --  -11.28428 -11.28266 -11.28153 -11.27856 -11.27730
 Alpha  occ. eigenvalues --  -11.27625 -11.27162 -11.27118  -1.60536  -1.60311
 Alpha  occ. eigenvalues --   -1.40084  -1.39866  -1.20253  -1.19797  -1.09643
 Alpha  occ. eigenvalues --   -1.09173  -1.05646  -1.05207  -0.96436  -0.96026
 Alpha  occ. eigenvalues --   -0.87040  -0.86591  -0.83247  -0.82857  -0.78239
 Alpha  occ. eigenvalues --   -0.77937  -0.72732  -0.72504  -0.71865  -0.71635
 Alpha  occ. eigenvalues --   -0.71389  -0.70885  -0.65891  -0.65624  -0.65438
 Alpha  occ. eigenvalues --   -0.65212  -0.62957  -0.62591  -0.56192  -0.55666
 Alpha  occ. eigenvalues --   -0.54176  -0.53713  -0.53514  -0.53094  -0.49505
 Alpha  occ. eigenvalues --   -0.49479  -0.49270  -0.49252  -0.45451  -0.45272
 Alpha  occ. eigenvalues --   -0.38306  -0.37739  -0.37296  -0.36714
 Alpha virt. eigenvalues --    0.04214   0.04613   0.10233   0.10907   0.15574
 Alpha virt. eigenvalues --    0.16148   0.19392   0.21804   0.25230   0.26509
 Alpha virt. eigenvalues --    0.27798   0.29272   0.30558   0.30895   0.31896

 Mulliken charges:
               1
     1  C   -0.173135
     2  C   -0.219832
     3  C   -0.177941
     4  C    0.159780
     5  C   -0.171355
     6  C   -0.217752
     7  H    0.228791
     8  H    0.228057
     9  H    0.266787
    10  H    0.276837
    11  H    0.225748
    12  N    0.488181
    13  O   -0.458109
    14  O   -0.463007
    15  C   -0.184978
    16  C   -0.223169
    17  C   -0.171414
    18  C    0.158857
    19  C   -0.170820
    20  C   -0.214476
    21  H    0.227638
    22  H    0.226357
    23  H    0.277970
    24  H    0.279394
    25  H    0.230235
    26  N    0.487725
    27  O   -0.457461
    28  O   -0.458908
 Sum of Mulliken charges =  -0.00000

 Dipole moment (field-independent basis, Debye):
    X=              0.0064    Y=              0.3826    Z=              2.9445  Tot=              2.9693
 Quadrupole moment (field-independent basis, Debye-Ang):
   XX=           -160.0427   YY=            -99.7435   ZZ=           -101.1064
   XY=            -23.3059   XZ=              2.6893   YZ=             -0.0331

 Normal termination of Gaussian 16 at Wed May  5 19:28:48 2021.
