 Gaussian 16, Revision A.03,
 Gaussian 16:  EM64L-G16RevA.03 25-Dec-2016

 -------------
 #p 6-31g* mp2
 -------------

 ------------------------------------------------------
 Input file generated by CHIRIPA (05-May-2021 14:53:11)
 ------------------------------------------------------
 Symbolic Z-matrix:
 Charge =  0 Multiplicity = 1

                         Standard orientation:
 ---------------------------------------------------------------------
 Center     Atomic      Atomic             Coordinates (Angstroms)
 Number     Number       Type             X           Y           Z
 ---------------------------------------------------------------------
      1          6           0       -4.358120   -0.364297    0.173346
      2          6           0       -4.359182   -1.733046   -0.508204
      3          6           0       -5.328108   -2.718432    0.146006
      4          1           0       -4.096184   -0.489560    1.232895
      5          1           0       -5.375531    0.050086    0.149763
      6          1           0       -3.341793   -2.144114   -0.484567
      7          1           0       -4.620958   -1.604489   -1.566297
      8          1           0       -6.352331   -2.333437    0.109309
      9          1           0       -5.065898   -2.876128    1.197186
     10          1           0       -5.312787   -3.690362   -0.356963
     11          6           0       -3.394462    0.631726   -0.469327
     12          6           0       -3.393399    2.000475    0.212223
     13          6           0       -2.424473    2.985861   -0.441987
     14          1           0       -2.377051    0.217342   -0.445743
     15          1           0       -3.656397    0.756989   -1.528876
     16          1           0       -3.131623    1.871917    1.270316
     17          1           0       -4.410789    2.411542    0.188586
     18          1           0       -2.686684    3.143556   -1.493167
     19          1           0       -1.400250    2.600865   -0.405290
     20          1           0       -2.439794    3.957791    0.060982
     21          6           0        5.325682   -0.706408   -0.736357
     22          6           0        4.303355   -0.396189   -1.639205
     23          6           0        3.026624   -0.061242   -1.178426
     24          6           0        2.806254   -0.046271    0.197984
     25          6           0        3.804170   -0.350513    1.122587
     26          6           0        5.073272   -0.682622    0.639231
     27          1           0        6.314515   -0.965502   -1.103070
     28          1           0        4.496503   -0.413854   -2.708048
     29          1           0        2.216948    0.183188   -1.855254
     30          1           0        3.581310   -0.324398    2.182336
     31          1           0        5.865315   -0.923096    1.342713
     32          7           0        1.458675    0.306821    0.697739
     33          8           0        1.290130    0.312829    1.915193
     34          8           0        0.596505    0.570880   -0.137469
 ---------------------------------------------------------------------

 SCF Done:  E(RHF) =  -669.536706237     A.U. after   15 cycles
 E2 =    -0.2091496590D+01 EUMP2 =    -0.67162820282783D+03

 The electronic state is 1-A.
 Alpha  occ. eigenvalues --  -20.61139 -20.61132 -15.86150 -11.31396 -11.27949
 Alpha  occ. eigenvalues --  -11.27944 -11.27675 -11.26940 -11.26929 -11.20665
 Alpha  occ. eigenvalues --  -11.20317 -11.20203 -11.20103 -11.19809 -11.19417
 Alpha  occ. eigenvalues --   -1.60185  -1.39743  -1.19556  -1.08976  -1.07142
 Alpha  occ. eigenvalues --   -1.04941  -1.02283  -0.95829  -0.94735  -0.86345
 Alpha  occ. eigenvalues --   -0.85760  -0.82667  -0.78400  -0.77729  -0.76908
 Alpha  occ. eigenvalues --   -0.72376  -0.71487  -0.70665  -0.65215  -0.64944
 Alpha  occ. eigenvalues --   -0.63755  -0.62287  -0.59663  -0.58154  -0.56347
 Alpha  occ. eigenvalues --   -0.55449  -0.54005  -0.53275  -0.53031  -0.51489
 Alpha  occ. eigenvalues --   -0.51164  -0.49170  -0.49128  -0.48656  -0.46700
 Alpha  occ. eigenvalues --   -0.45446  -0.45115  -0.44481  -0.44245  -0.42528
 Alpha  occ. eigenvalues --   -0.37531  -0.36538
 Alpha virt. eigenvalues --    0.04765   0.11119   0.16262   0.21244   0.24122
 Alpha virt. eigenvalues --    0.25598   0.27187   0.27800   0.28217   0.28843
 Alpha virt. eigenvalues --    0.29251   0.30836   0.32270   0.32700   0.32820

 Mulliken charges:
               1
     1  C   -0.297595
     2  C   -0.298703
     3  C   -0.474964
     4  H    0.150808
     5  H    0.144667
     6  H    0.152703
     7  H    0.148684
     8  H    0.153325
     9  H    0.154907
    10  H    0.156474
    11  C   -0.306644
    12  C   -0.295339
    13  C   -0.486018
    14  H    0.172471
    15  H    0.141591
    16  H    0.154926
    17  H    0.143513
    18  H    0.145888
    19  H    0.179964
    20  H    0.152212
    21  C   -0.170304
    22  C   -0.218576
    23  C   -0.170601
    24  C    0.157128
    25  C   -0.170231
    26  C   -0.218646
    27  H    0.226413
    28  H    0.224306
    29  H    0.276285
    30  H    0.276036
    31  H    0.224170
    32  N    0.492076
    33  O   -0.457657
    34  O   -0.463269
 Sum of Mulliken charges =  -0.00000

 Dipole moment (field-independent basis, Debye):
    X=              5.2606    Y=             -1.3188    Z=             -1.6734  Tot=              5.6757
 Quadrupole moment (field-independent basis, Debye-Ang):
   XX=            -69.5632   YY=            -96.9483   ZZ=            -90.8587
   XY=             -4.5988   XZ=             -1.9944   YZ=             -0.5800

 Normal termination of Gaussian 16 at Thu May  6 02:28:03 2021.
