 Gaussian 16, Revision A.03,
 Gaussian 16:  EM64L-G16RevA.03 25-Dec-2016

 -------------
 #p 6-31g* mp2
 -------------

 ------------------------------------------------------
 Input file generated by CHIRIPA (05-May-2021 14:53:18)
 ------------------------------------------------------
 Symbolic Z-matrix:
 Charge =  0 Multiplicity = 1

                         Standard orientation:
 ---------------------------------------------------------------------
 Center     Atomic      Atomic             Coordinates (Angstroms)
 Number     Number       Type             X           Y           Z
 ---------------------------------------------------------------------
      1          6           0        2.907179    1.065846    0.077410
      2          6           0        2.452307    1.864688   -1.144445
      3          6           0        1.296456    2.815636   -0.832197
      4          1           0        2.055954    0.493743    0.471186
      5          1           0        3.209066    1.763198    0.871110
      6          1           0        2.152676    1.166028   -1.936096
      7          1           0        3.304761    2.434807   -1.535473
      8          1           0        1.587468    3.535246   -0.060137
      9          1           0        0.428837    2.259257   -0.463037
     10          1           0        0.987213    3.376642   -1.719610
     11          6           0        4.062050    0.110738   -0.218846
     12          6           0        4.516921   -0.688104    1.003009
     13          6           0        5.672772   -1.639052    0.690761
     14          1           0        3.760163   -0.586614   -1.012546
     15          1           0        4.913274    0.682841   -0.612622
     16          1           0        3.664468   -1.258223    1.394037
     17          1           0        4.816553    0.010556    1.794660
     18          1           0        6.540392   -1.082673    0.321601
     19          1           0        5.381761   -2.358662   -0.081298
     20          1           0        5.982016   -2.200058    1.578174
     21          6           0       -4.760994    0.801430    0.842441
     22          6           0       -4.857716   -0.080414   -0.239002
     23          6           0       -3.734699   -0.784405   -0.683726
     24          6           0       -2.525267   -0.581515   -0.020855
     25          6           0       -2.396934    0.290106    1.059468
     26          6           0       -3.533075    0.983554    1.487088
     27          1           0       -5.638478    1.344212    1.181270
     28          1           0       -5.810040   -0.223835   -0.741548
     29          1           0       -3.781374   -1.473258   -1.518423
     30          1           0       -1.433992    0.412187    1.540362
     31          1           0       -3.455003    1.667759    2.327215
     32          7           0       -1.329432   -1.321219   -0.482610
     33          8           0       -0.275416   -1.124837    0.118324
     34          8           0       -1.468796   -2.083373   -1.436724
 ---------------------------------------------------------------------

 SCF Done:  E(RHF) =  -669.536530905     A.U. after   15 cycles
 E2 =    -0.2091589074D+01 EUMP2 =    -0.67162811997929D+03

 The electronic state is 1-A.
 Alpha  occ. eigenvalues --  -20.61024 -20.61011 -15.86050 -11.31332 -11.27888
 Alpha  occ. eigenvalues --  -11.27882 -11.27614 -11.26888 -11.26878 -11.20773
 Alpha  occ. eigenvalues --  -11.20673 -11.20561 -11.20375 -11.20276 -11.20261
 Alpha  occ. eigenvalues --   -1.60076  -1.39635  -1.19493  -1.08905  -1.07472
 Alpha  occ. eigenvalues --   -1.04883  -1.02708  -0.95755  -0.95170  -0.86288
 Alpha  occ. eigenvalues --   -0.86197  -0.82592  -0.78770  -0.77664  -0.77265
 Alpha  occ. eigenvalues --   -0.72281  -0.71387  -0.70601  -0.65155  -0.64886
 Alpha  occ. eigenvalues --   -0.64058  -0.62232  -0.60095  -0.58550  -0.56789
 Alpha  occ. eigenvalues --   -0.55389  -0.54449  -0.53214  -0.52974  -0.51917
 Alpha  occ. eigenvalues --   -0.51620  -0.49140  -0.49040  -0.48993  -0.47107
 Alpha  occ. eigenvalues --   -0.45787  -0.45154  -0.44817  -0.44562  -0.42917
 Alpha  occ. eigenvalues --   -0.37467  -0.36479
 Alpha virt. eigenvalues --    0.04848   0.11115   0.16341   0.21075   0.23695
 Alpha virt. eigenvalues --    0.24794   0.26559   0.27475   0.28057   0.28696
 Alpha virt. eigenvalues --    0.29012   0.30780   0.31605   0.32391   0.32683

 Mulliken charges:
               1
     1  C   -0.308101
     2  C   -0.297763
     3  C   -0.476032
     4  H    0.172747
     5  H    0.140938
     6  H    0.157304
     7  H    0.147759
     8  H    0.150854
     9  H    0.152084
    10  H    0.157206
    11  C   -0.297290
    12  C   -0.300611
    13  C   -0.475466
    14  H    0.155634
    15  H    0.144163
    16  H    0.158779
    17  H    0.146876
    18  H    0.152156
    19  H    0.157175
    20  H    0.157324
    21  C   -0.170488
    22  C   -0.218375
    23  C   -0.170759
    24  C    0.157922
    25  C   -0.171284
    26  C   -0.218312
    27  H    0.226232
    28  H    0.223992
    29  H    0.275857
    30  H    0.276395
    31  H    0.224393
    32  N    0.493081
    33  O   -0.465979
    34  O   -0.458409
 Sum of Mulliken charges =  -0.00000

 Dipole moment (field-independent basis, Debye):
    X=             -4.4815    Y=              2.4028    Z=              1.6014  Tot=              5.3312
 Quadrupole moment (field-independent basis, Debye-Ang):
   XX=            -73.4077   YY=            -98.0263   ZZ=            -92.6816
   XY=             -2.2101   XZ=             -1.8472   YZ=              1.1634

 Normal termination of Gaussian 16 at Thu May  6 07:38:01 2021.
