 Gaussian 16, Revision A.03,
 Gaussian 16:  EM64L-G16RevA.03 25-Dec-2016

 -------------
 #p 6-31g* mp2
 -------------

 ------------------------------------------------------
 Input file generated by CHIRIPA (05-May-2021 14:51:09)
 ------------------------------------------------------
 Symbolic Z-matrix:
 Charge =  0 Multiplicity = 1

                         Standard orientation:
 ---------------------------------------------------------------------
 Center     Atomic      Atomic             Coordinates (Angstroms)
 Number     Number       Type             X           Y           Z
 ---------------------------------------------------------------------
      1          6           0        2.656851    0.766098   -0.606781
      2          6           0        1.544985    1.794236   -0.818139
      3          6           0        2.080210    3.215000   -0.999132
      4          1           0        3.248817    1.051380    0.273636
      5          1           0        3.341108    0.794451   -1.466074
      6          1           0        0.862257    1.762982    0.040651
      7          1           0        0.955480    1.506369   -1.698043
      8          1           0        2.745164    3.268494   -1.867219
      9          1           0        2.651411    3.526566   -0.118646
     10          1           0        1.268511    3.933766   -1.148736
     11          6           0        2.137547   -0.658947   -0.424303
     12          6           0        3.249413   -1.687086   -0.212945
     13          6           0        2.714189   -3.107850   -0.031952
     14          1           0        1.453290   -0.687300    0.434990
     15          1           0        1.545582   -0.944229   -1.304721
     16          1           0        3.838918   -1.399219    0.666959
     17          1           0        3.932142   -1.655832   -1.071735
     18          1           0        2.142987   -3.419416   -0.912438
     19          1           0        2.049234   -3.161344    0.836135
     20          1           0        3.525887   -3.826616    0.117652
     21          6           0       -1.777182   -0.212420    0.932411
     22          6           0       -1.573938    0.745985    2.106353
     23          6           0       -0.329500    0.415285    2.930855
     24          1           0       -1.851153   -1.239748    1.314602
     25          1           0       -0.889238   -0.182639    0.285834
     26          1           0       -2.462580    0.715437    2.749780
     27          1           0       -1.500635    1.771172    1.721339
     28          1           0        0.569580    0.464809    2.308115
     29          1           0       -0.397831   -0.596923    3.342399
     30          1           0       -0.203412    1.112782    3.764797
     31          6           0       -3.017216    0.105269    0.098673
     32          6           0       -3.220460   -0.853134   -1.075269
     33          6           0       -4.464899   -0.522435   -1.899771
     34          1           0       -3.905160    0.075489    0.745251
     35          1           0       -2.943246    1.132598   -0.283517
     36          1           0       -3.293763   -1.878321   -0.690255
     37          1           0       -2.331818   -0.822588   -1.718695
     38          1           0       -4.396567    0.489772   -2.311314
     39          1           0       -5.363978   -0.571959   -1.277031
     40          1           0       -4.590986   -1.219932   -2.733713
 ---------------------------------------------------------------------

 SCF Done:  E(RHF) =  -470.731944257     A.U. after   11 cycles
 E2 =    -0.1585458298D+01 EUMP2 =    -0.47231740255520D+03

 The electronic state is 1-A.
 Alpha  occ. eigenvalues --  -11.21683 -11.21614 -11.21607 -11.21571 -11.21446
 Alpha  occ. eigenvalues --  -11.21354 -11.21342 -11.21255 -11.21135 -11.21130
 Alpha  occ. eigenvalues --  -11.21060 -11.21051  -1.08526  -1.08368  -1.03578
 Alpha  occ. eigenvalues --   -1.03529  -0.96020  -0.95979  -0.87034  -0.87000
 Alpha  occ. eigenvalues --   -0.79656  -0.79600  -0.78524  -0.78012  -0.65380
 Alpha  occ. eigenvalues --   -0.64836  -0.61088  -0.60815  -0.59377  -0.59354
 Alpha  occ. eigenvalues --   -0.57635  -0.57595  -0.55366  -0.55223  -0.52720
 Alpha  occ. eigenvalues --   -0.52677  -0.52448  -0.52413  -0.49990  -0.49916
 Alpha  occ. eigenvalues --   -0.48007  -0.47952  -0.46850  -0.46664  -0.46327
 Alpha  occ. eigenvalues --   -0.45784  -0.45699  -0.44791  -0.43815  -0.43762
 Alpha virt. eigenvalues --    0.20267   0.22799   0.23707   0.24350   0.25262
 Alpha virt. eigenvalues --    0.26470   0.26927   0.27988   0.28472   0.30243
 Alpha virt. eigenvalues --    0.30461   0.31571   0.31711   0.31854   0.32234

 Mulliken charges:
               1
     1  C   -0.297742
     2  C   -0.307489
     3  C   -0.475312
     4  H    0.149506
     5  H    0.149974
     6  H    0.158625
     7  H    0.151552
     8  H    0.155548
     9  H    0.155580
    10  H    0.160173
    11  C   -0.309169
    12  C   -0.298650
    13  C   -0.475828
    14  H    0.160169
    15  H    0.149189
    16  H    0.151920
    17  H    0.151786
    18  H    0.155211
    19  H    0.155726
    20  H    0.160189
    21  C   -0.308066
    22  C   -0.300544
    23  C   -0.482421
    24  H    0.148610
    25  H    0.161519
    26  H    0.152461
    27  H    0.151875
    28  H    0.159885
    29  H    0.155239
    30  H    0.160775
    31  C   -0.297573
    32  C   -0.299589
    33  C   -0.475693
    34  H    0.149084
    35  H    0.149498
    36  H    0.151938
    37  H    0.151756
    38  H    0.155076
    39  H    0.155159
    40  H    0.160053
 Sum of Mulliken charges =  -0.00000

 Dipole moment (field-independent basis, Debye):
    X=              0.0283    Y=             -0.0023    Z=             -0.0009  Tot=              0.0284
 Quadrupole moment (field-independent basis, Debye-Ang):
   XX=            -85.3712   YY=            -85.5552   ZZ=            -83.9610
   XY=              0.2002   XZ=             -0.9244   YZ=             -0.0008

 Normal termination of Gaussian 16 at Thu May  6 00:33:23 2021.
