 Gaussian 16, Revision A.03,
 Gaussian 16:  EM64L-G16RevA.03 25-Dec-2016

 -------------
 #p 6-31g* mp2
 -------------

 ------------------------------------------------------
 Input file generated by CHIRIPA (05-May-2021 14:55:22)
 ------------------------------------------------------
 Symbolic Z-matrix:
 Charge =  0 Multiplicity = 1

                         Standard orientation:
 ---------------------------------------------------------------------
 Center     Atomic      Atomic             Coordinates (Angstroms)
 Number     Number       Type             X           Y           Z
 ---------------------------------------------------------------------
      1          6           0        1.535216    1.783269    1.502758
      2          6           0        2.141525    2.037283    0.268097
      3          6           0        2.863188    1.035620   -0.387968
      4          6           0        2.958744   -0.214171    0.222099
      5          6           0        2.365945   -0.498087    1.451436
      6          6           0        1.649160    0.518624    2.089453
      7          1           0        0.976506    2.567231    2.005395
      8          1           0        2.054696    3.018479   -0.189899
      9          1           0        3.342525    1.205060   -1.344495
     10          1           0        2.470012   -1.486139    1.883111
     11          1           0        1.179337    0.318502    3.048234
     12          7           0        3.720154   -1.282553   -0.462894
     13          8           0        3.789555   -2.375223    0.095580
     14          8           0        4.233130   -1.007051   -1.545295
     15          6           0       -3.167744    0.651402   -0.527429
     16          6           0       -1.896695    0.323866   -1.311737
     17          6           0       -0.988969    1.539619   -1.500869
     18          1           0       -3.719297    1.444820   -1.050137
     19          1           0       -2.889631    1.058799    0.454444
     20          1           0       -2.177126   -0.084083   -2.291304
     21          1           0       -1.348201   -0.468998   -0.787202
     22          1           0       -0.680572    1.944634   -0.531614
     23          1           0       -1.514208    2.331737   -2.044262
     24          1           0       -0.086292    1.282939   -2.064030
     25          6           0       -4.085388   -0.553894   -0.330155
     26          6           0       -5.356438   -0.226358    0.454152
     27          6           0       -6.264163   -1.442112    0.643284
     28          1           0       -4.363501   -0.961291   -1.312029
     29          1           0       -3.533836   -1.347312    0.192552
     30          1           0       -5.904931    0.566506   -0.070382
     31          1           0       -5.076006    0.181590    1.433719
     32          1           0       -5.738925   -2.234229    1.186677
     33          1           0       -6.572560   -1.847127   -0.325971
     34          1           0       -7.166840   -1.185431    1.206445
 ---------------------------------------------------------------------

 SCF Done:  E(RHF) =  -669.534492316     A.U. after   15 cycles
 E2 =    -0.2092844292D+01 EUMP2 =    -0.67162733660833D+03

 The electronic state is 1-A.
 Alpha  occ. eigenvalues --  -20.60803 -20.60798 -15.85856 -11.31245 -11.27789
 Alpha  occ. eigenvalues --  -11.27764 -11.27521 -11.26841 -11.26798 -11.21864
 Alpha  occ. eigenvalues --  -11.21830 -11.21701 -11.21615 -11.21322 -11.21282
 Alpha  occ. eigenvalues --   -1.59878  -1.39431  -1.19408  -1.08814  -1.08692
 Alpha  occ. eigenvalues --   -1.04812  -1.03780  -0.96244  -0.95636  -0.87273
 Alpha  occ. eigenvalues --   -0.86206  -0.82464  -0.79853  -0.78513  -0.77506
 Alpha  occ. eigenvalues --   -0.72074  -0.71200  -0.70516  -0.65336  -0.65061
 Alpha  occ. eigenvalues --   -0.64813  -0.62156  -0.61198  -0.59612  -0.57850
 Alpha  occ. eigenvalues --   -0.55627  -0.55315  -0.53296  -0.52906  -0.52765
 Alpha  occ. eigenvalues --   -0.52634  -0.50155  -0.48834  -0.48828  -0.48171
 Alpha  occ. eigenvalues --   -0.46886  -0.46055  -0.45986  -0.44832  -0.44053
 Alpha  occ. eigenvalues --   -0.37333  -0.36340
 Alpha virt. eigenvalues --    0.04978   0.11198   0.16417   0.21104   0.22635
 Alpha virt. eigenvalues --    0.24093   0.26329   0.26820   0.27150   0.27996
 Alpha virt. eigenvalues --    0.28309   0.30794   0.31313   0.31577   0.31783

 Mulliken charges:
               1
     1  C   -0.173265
     2  C   -0.211396
     3  C   -0.172255
     4  C    0.159080
     5  C   -0.171970
     6  C   -0.218211
     7  H    0.225802
     8  H    0.224920
     9  H    0.275601
    10  H    0.275608
    11  H    0.223540
    12  N    0.488009
    13  O   -0.460258
    14  O   -0.460208
    15  C   -0.297678
    16  C   -0.299578
    17  C   -0.475893
    18  H    0.149629
    19  H    0.144755
    20  H    0.154080
    21  H    0.154028
    22  H    0.151585
    23  H    0.152140
    24  H    0.160279
    25  C   -0.298495
    26  C   -0.299483
    27  C   -0.475804
    28  H    0.151388
    29  H    0.149920
    30  H    0.152149
    31  H    0.149821
    32  H    0.155388
    33  H    0.156374
    34  H    0.160400
 Sum of Mulliken charges =  -0.00000

 Dipole moment (field-independent basis, Debye):
    X=             -2.6519    Y=              3.7332    Z=              2.4036  Tot=              5.1717
 Quadrupole moment (field-independent basis, Debye-Ang):
   XX=           -111.5386   YY=            -95.4319   ZZ=            -90.4798
   XY=             12.0760   XZ=              6.3302   YZ=             -2.3261

 Normal termination of Gaussian 16 at Thu May  6 12:34:20 2021.
