 Gaussian 16, Revision A.03,
 Gaussian 16:  EM64L-G16RevA.03 25-Dec-2016

 -------------
 #p 6-31g* mp2
 -------------

 ------------------------------------------------------
 Input file generated by CHIRIPA (05-May-2021 14:53:12)
 ------------------------------------------------------
 Symbolic Z-matrix:
 Charge =  0 Multiplicity = 1

                         Standard orientation:
 ---------------------------------------------------------------------
 Center     Atomic      Atomic             Coordinates (Angstroms)
 Number     Number       Type             X           Y           Z
 ---------------------------------------------------------------------
      1          6           0        4.348037   -0.565322   -0.166247
      2          6           0        3.603968   -1.888460   -0.349691
      3          6           0        4.537339   -3.099324   -0.329256
      4          1           0        5.101505   -0.462701   -0.959152
      5          1           0        4.897013   -0.590259    0.785278
      6          1           0        3.055445   -1.860498   -1.299932
      7          1           0        2.852052   -1.987854    0.443631
      8          1           0        5.075100   -3.155181    0.622739
      9          1           0        5.279649   -3.027102   -1.130730
     10          1           0        3.984594   -4.034577   -0.462049
     11          6           0        3.428454    0.654418   -0.184426
     12          6           0        4.172523    1.977556   -0.000981
     13          6           0        3.239151    3.188421   -0.021416
     14          1           0        2.879477    0.679355   -1.135950
     15          1           0        2.674985    0.551797    0.608480
     16          1           0        4.924438    2.076950   -0.794303
     17          1           0        4.721045    1.949594    0.949260
     18          1           0        2.496841    3.116198    0.780058
     19          1           0        2.701390    3.244277   -0.973411
     20          1           0        3.791896    4.123674    0.111377
     21          6           0       -0.649650    0.194201    0.918480
     22          6           0       -1.314152    1.294405    0.366656
     23          6           0       -2.637350    1.179049   -0.069680
     24          6           0       -3.268558   -0.056942    0.061429
     25          6           0       -2.633378   -1.171492    0.606970
     26          6           0       -1.310220   -1.033072    1.036667
     27          1           0        0.378226    0.292771    1.254858
     28          1           0       -0.803636    2.248746    0.273634
     29          1           0       -3.175501    2.014565   -0.500638
     30          1           0       -3.168534   -2.109934    0.686683
     31          1           0       -0.796645   -1.889206    1.464828
     32          7           0       -4.669348   -0.191273   -0.396987
     33          8           0       -5.203283   -1.291068   -0.270489
     34          8           0       -5.206827    0.805777   -0.874109
 ---------------------------------------------------------------------

 SCF Done:  E(RHF) =  -669.535537431     A.U. after   15 cycles
 E2 =    -0.2091478424D+01 EUMP2 =    -0.67162701585488D+03

 The electronic state is 1-A.
 Alpha  occ. eigenvalues --  -20.60710 -20.60705 -15.85763 -11.31113 -11.27685
 Alpha  occ. eigenvalues --  -11.27679 -11.27389 -11.26691 -11.26674 -11.22574
 Alpha  occ. eigenvalues --  -11.22502 -11.22484 -11.22276 -11.22109 -11.21773
 Alpha  occ. eigenvalues --   -1.59786  -1.39340  -1.19284  -1.09404  -1.08677
 Alpha  occ. eigenvalues --   -1.04686  -1.04443  -0.96898  -0.95518  -0.87910
 Alpha  occ. eigenvalues --   -0.86081  -0.82355  -0.80511  -0.79238  -0.77402
 Alpha  occ. eigenvalues --   -0.71981  -0.71109  -0.70406  -0.66032  -0.64934
 Alpha  occ. eigenvalues --   -0.64685  -0.62038  -0.61832  -0.60261  -0.58516
 Alpha  occ. eigenvalues --   -0.56218  -0.55194  -0.53555  -0.53315  -0.53012
 Alpha  occ. eigenvalues --   -0.52773  -0.50836  -0.48827  -0.48739  -0.48737
 Alpha  occ. eigenvalues --   -0.47547  -0.46763  -0.46663  -0.44749  -0.44712
 Alpha  occ. eigenvalues --   -0.37250  -0.36294
 Alpha virt. eigenvalues --    0.05126   0.11353   0.16586   0.18893   0.22601
 Alpha virt. eigenvalues --    0.23079   0.24789   0.26124   0.26279   0.27788
 Alpha virt. eigenvalues --    0.30149   0.30291   0.30927   0.30974   0.31464

 Mulliken charges:
               1
     1  C   -0.298608
     2  C   -0.298995
     3  C   -0.476299
     4  H    0.153849
     5  H    0.150995
     6  H    0.155325
     7  H    0.143751
     8  H    0.156078
     9  H    0.157961
    10  H    0.162039
    11  C   -0.302490
    12  C   -0.299741
    13  C   -0.476899
    14  H    0.153606
    15  H    0.140154
    16  H    0.156594
    17  H    0.154154
    18  H    0.147882
    19  H    0.156483
    20  H    0.165597
    21  C   -0.173204
    22  C   -0.222157
    23  C   -0.171011
    24  C    0.158308
    25  C   -0.170923
    26  C   -0.220618
    27  H    0.232813
    28  H    0.224752
    29  H    0.275370
    30  H    0.275267
    31  H    0.223290
    32  N    0.488017
    33  O   -0.460686
    34  O   -0.460657
 Sum of Mulliken charges =  -0.00000

 Dipole moment (field-independent basis, Debye):
    X=              5.2109    Y=              0.4753    Z=              1.5050  Tot=              5.4446
 Quadrupole moment (field-independent basis, Debye-Ang):
   XX=           -126.9891   YY=            -90.8448   ZZ=            -93.9304
   XY=             -1.2512   XZ=             -5.4449   YZ=             -1.7185

 Normal termination of Gaussian 16 at Wed May  5 15:30:51 2021.
