 Gaussian 16, Revision A.03,
 Gaussian 16:  EM64L-G16RevA.03 25-Dec-2016

 -------------
 #p 6-31g* mp2
 -------------

 ------------------------------------------------------
 Input file generated by CHIRIPA (05-May-2021 14:55:19)
 ------------------------------------------------------
 Symbolic Z-matrix:
 Charge =  0 Multiplicity = 1

                         Standard orientation:
 ---------------------------------------------------------------------
 Center     Atomic      Atomic             Coordinates (Angstroms)
 Number     Number       Type             X           Y           Z
 ---------------------------------------------------------------------
      1          6           0       -0.182425   -1.394717    1.555233
      2          6           0       -0.935028   -0.314024    2.026627
      3          6           0       -2.015251    0.175569    1.286381
      4          6           0       -2.316291   -0.442156    0.073500
      5          6           0       -1.585486   -1.520498   -0.422880
      6          6           0       -0.509479   -1.993449    0.334137
      7          1           0        0.655081   -1.768580    2.136788
      8          1           0       -0.683328    0.152920    2.974601
      9          1           0       -2.614685    1.010775    1.627743
     10          1           0       -1.860575   -1.965317   -1.371500
     11          1           0        0.073242   -2.832880   -0.034425
     12          7           0       -3.457643    0.067345   -0.719043
     13          8           0       -3.702443   -0.494310   -1.784526
     14          8           0       -4.085823    1.018699   -0.259748
     15          6           0        2.710960    1.430040   -0.365307
     16          6           0        1.436427    2.092225    0.159158
     17          6           0        1.425045    3.605922   -0.056215
     18          1           0        3.581362    1.879192    0.132296
     19          1           0        2.815693    1.649670   -1.436842
     20          1           0        1.333404    1.870257    1.229079
     21          1           0        0.568946    1.641311   -0.339611
     22          1           0        1.503167    3.843999   -1.121962
     23          1           0        2.271967    4.074245    0.455641
     24          1           0        0.504970    4.058912    0.326046
     25          6           0        2.737185   -0.083151   -0.157242
     26          6           0        4.011718   -0.745336   -0.681706
     27          6           0        4.023101   -2.259034   -0.466334
     28          1           0        2.632453   -0.302781    0.914294
     29          1           0        1.866783   -0.532303   -0.654844
     30          1           0        4.879199   -0.294423   -0.182938
     31          1           0        4.114742   -0.523368   -1.751627
     32          1           0        3.176179   -2.727357   -0.978190
     33          1           0        3.944979   -2.497111    0.599414
     34          1           0        4.943176   -2.712023   -0.848594
 ---------------------------------------------------------------------

 SCF Done:  E(RHF) =  -669.534008121     A.U. after   15 cycles
 E2 =    -0.2095171761D+01 EUMP2 =    -0.67162917988243D+03

 The electronic state is 1-A.
 Alpha  occ. eigenvalues --  -20.60789 -20.60784 -15.85845 -11.31212 -11.27789
 Alpha  occ. eigenvalues --  -11.27781 -11.27484 -11.26766 -11.26756 -11.22175
 Alpha  occ. eigenvalues --  -11.21894 -11.21868 -11.21835 -11.21726 -11.21244
 Alpha  occ. eigenvalues --   -1.59866  -1.39419  -1.19390  -1.08935  -1.08726
 Alpha  occ. eigenvalues --   -1.04795  -1.03983  -0.96454  -0.95609  -0.87469
 Alpha  occ. eigenvalues --   -0.86186  -0.82446  -0.80054  -0.78714  -0.77490
 Alpha  occ. eigenvalues --   -0.72061  -0.71192  -0.70487  -0.65524  -0.65033
 Alpha  occ. eigenvalues --   -0.64791  -0.62138  -0.61384  -0.59830  -0.58070
 Alpha  occ. eigenvalues --   -0.55772  -0.55271  -0.53403  -0.52968  -0.52890
 Alpha  occ. eigenvalues --   -0.52843  -0.50405  -0.48822  -0.48816  -0.48396
 Alpha  occ. eigenvalues --   -0.47094  -0.46221  -0.46074  -0.44825  -0.44221
 Alpha  occ. eigenvalues --   -0.37229  -0.36335
 Alpha virt. eigenvalues --    0.05022   0.11133   0.16414   0.19896   0.22948
 Alpha virt. eigenvalues --    0.23447   0.24950   0.26640   0.27198   0.28227
 Alpha virt. eigenvalues --    0.28866   0.29480   0.31239   0.31808   0.31971

 Mulliken charges:
               1
     1  C   -0.163711
     2  C   -0.216026
     3  C   -0.170517
     4  C    0.157946
     5  C   -0.173113
     6  C   -0.220089
     7  H    0.225907
     8  H    0.222950
     9  H    0.275628
    10  H    0.275560
    11  H    0.225014
    12  N    0.488020
    13  O   -0.460587
    14  O   -0.460394
    15  C   -0.298811
    16  C   -0.299432
    17  C   -0.476246
    18  H    0.148967
    19  H    0.151664
    20  H    0.144950
    21  H    0.157309
    22  H    0.157565
    23  H    0.153895
    24  H    0.161290
    25  C   -0.299962
    26  C   -0.299447
    27  C   -0.475880
    28  H    0.139332
    29  H    0.155545
    30  H    0.153183
    31  H    0.154871
    32  H    0.150125
    33  H    0.149912
    34  H    0.164581
 Sum of Mulliken charges =  -0.00000

 Dipole moment (field-independent basis, Debye):
    X=              4.0016    Y=             -1.7629    Z=              2.7513  Tot=              5.1662
 Quadrupole moment (field-independent basis, Debye-Ang):
   XX=           -113.9748   YY=            -92.4221   ZZ=            -91.4083
   XY=              1.9313   XZ=             -6.7894   YZ=              1.5273

 Normal termination of Gaussian 16 at Wed May  5 23:45:35 2021.
