 Gaussian 16, Revision A.03,
 Gaussian 16:  EM64L-G16RevA.03 25-Dec-2016

 -------------
 #p 6-31g* mp2
 -------------

 ------------------------------------------------------
 Input file generated by CHIRIPA (05-May-2021 14:53:16)
 ------------------------------------------------------
 Symbolic Z-matrix:
 Charge =  0 Multiplicity = 1

                         Standard orientation:
 ---------------------------------------------------------------------
 Center     Atomic      Atomic             Coordinates (Angstroms)
 Number     Number       Type             X           Y           Z
 ---------------------------------------------------------------------
      1          6           0        5.487721   -0.505902   -0.158170
      2          6           0        6.559550    0.392214   -0.776681
      3          6           0        7.752881   -0.396963   -1.316082
      4          1           0        5.936017   -1.095672    0.653093
      5          1           0        5.141656   -1.225309   -0.913211
      6          1           0        6.902501    1.110615   -0.021101
      7          1           0        6.108605    0.980055   -1.586439
      8          1           0        7.430675   -1.102335   -2.088891
      9          1           0        8.229082   -0.971033   -0.514659
     10          1           0        8.506970    0.264616   -1.753715
     11          6           0        4.288358    0.268471    0.385525
     12          6           0        3.216529   -0.629645    1.004036
     13          6           0        2.023198    0.159532    1.543437
     14          1           0        4.634423    0.987878    1.140566
     15          1           0        3.840062    0.858241   -0.425738
     16          1           0        3.667474   -1.217486    1.813794
     17          1           0        2.873578   -1.348046    0.248456
     18          1           0        1.546998    0.733602    0.742014
     19          1           0        2.345404    0.864904    2.316246
     20          1           0        1.269109   -0.502047    1.981070
     21          6           0       -1.621428    1.173190    0.519635
     22          6           0       -2.637007    1.934785   -0.067812
     23          6           0       -3.858550    1.346644   -0.409090
     24          6           0       -4.031213   -0.011707   -0.147633
     25          6           0       -3.038609   -0.797094    0.436486
     26          6           0       -1.825111   -0.187919    0.769468
     27          1           0       -0.675628    1.638241    0.781526
     28          1           0       -2.481623    2.992047   -0.262996
     29          1           0       -4.661757    1.912782   -0.864903
     30          1           0       -3.223005   -1.848838    0.618832
     31          1           0       -1.038178   -0.781843    1.225578
     32          7           0       -5.320148   -0.645479   -0.504537
     33          8           0       -5.447356   -1.844034   -0.263873
     34          8           0       -6.178800    0.068327   -1.018186
 ---------------------------------------------------------------------

 SCF Done:  E(RHF) =  -669.534977175     A.U. after   15 cycles
 E2 =    -0.2091571015D+01 EUMP2 =    -0.67162654819055D+03

 The electronic state is 1-A.
 Alpha  occ. eigenvalues --  -20.60697 -20.60692 -15.85749 -11.31093 -11.27662
 Alpha  occ. eigenvalues --  -11.27651 -11.27340 -11.26666 -11.26619 -11.22635
 Alpha  occ. eigenvalues --  -11.22524 -11.22208 -11.22131 -11.22003 -11.21499
 Alpha  occ. eigenvalues --   -1.59773  -1.39327  -1.19259  -1.09211  -1.08653
 Alpha  occ. eigenvalues --   -1.04663  -1.04362  -0.96853  -0.95491  -0.87886
 Alpha  occ. eigenvalues --   -0.86050  -0.82332  -0.80448  -0.78967  -0.77385
 Alpha  occ. eigenvalues --   -0.71968  -0.71096  -0.70377  -0.65837  -0.64907
 Alpha  occ. eigenvalues --   -0.64698  -0.62068  -0.61729  -0.60227  -0.58438
 Alpha  occ. eigenvalues --   -0.56177  -0.55145  -0.53607  -0.53252  -0.52988
 Alpha  occ. eigenvalues --   -0.52668  -0.50758  -0.48787  -0.48724  -0.48676
 Alpha  occ. eigenvalues --   -0.47437  -0.46523  -0.46406  -0.44738  -0.44595
 Alpha  occ. eigenvalues --   -0.37228  -0.36268
 Alpha virt. eigenvalues --    0.05139   0.11368   0.16608   0.20080   0.22349
 Alpha virt. eigenvalues --    0.23738   0.25406   0.25916   0.26160   0.27364
 Alpha virt. eigenvalues --    0.29141   0.29394   0.30935   0.31632   0.32118

 Mulliken charges:
               1
     1  C   -0.299081
     2  C   -0.300212
     3  C   -0.476157
     4  H    0.151092
     5  H    0.151073
     6  H    0.152421
     7  H    0.152362
     8  H    0.156140
     9  H    0.155963
    10  H    0.161721
    11  C   -0.299503
    12  C   -0.299542
    13  C   -0.484373
    14  H    0.150707
    15  H    0.149796
    16  H    0.156083
    17  H    0.154652
    18  H    0.150962
    19  H    0.160728
    20  H    0.157237
    21  C   -0.176253
    22  C   -0.218969
    23  C   -0.171168
    24  C    0.158570
    25  C   -0.171893
    26  C   -0.222659
    27  H    0.231871
    28  H    0.223051
    29  H    0.275113
    30  H    0.275402
    31  H    0.228318
    32  N    0.488018
    33  O   -0.460719
    34  O   -0.460749
 Sum of Mulliken charges =  -0.00000

 Dipole moment (field-independent basis, Debye):
    X=              4.8524    Y=              2.2131    Z=              1.2604  Tot=              5.4802
 Quadrupole moment (field-independent basis, Debye-Ang):
   XX=           -131.2163   YY=            -91.2911   ZZ=            -94.6202
   XY=            -10.4716   XZ=             -4.2482   YZ=             -2.2229

 Normal termination of Gaussian 16 at Thu May  6 22:02:45 2021.
