 Gaussian 16, Revision A.03,
 Gaussian 16:  EM64L-G16RevA.03 25-Dec-2016

 -------------
 #p 6-31g* mp2
 -------------

 ------------------------------------------------------
 Input file generated by CHIRIPA (05-May-2021 14:53:14)
 ------------------------------------------------------
 Symbolic Z-matrix:
 Charge =  0 Multiplicity = 1

                         Standard orientation:
 ---------------------------------------------------------------------
 Center     Atomic      Atomic             Coordinates (Angstroms)
 Number     Number       Type             X           Y           Z
 ---------------------------------------------------------------------
      1          6           0        5.361296    0.345683   -0.007764
      2          6           0        6.694838   -0.360843   -0.253679
      3          6           0        7.876675    0.607938   -0.303851
      4          1           0        5.195303    1.088072   -0.800385
      5          1           0        5.418991    0.904363    0.936663
      6          1           0        6.634177   -0.919146   -1.196670
      7          1           0        6.857585   -1.101771    0.539514
      8          1           0        7.965593    1.156323    0.639530
      9          1           0        7.740916    1.339986   -1.106519
     10          1           0        8.819922    0.081712   -0.480578
     11          6           0        4.170304   -0.609555    0.045011
     12          6           0        2.836762    0.096971    0.290926
     13          6           0        1.654925   -0.871810    0.341098
     14          1           0        4.112609   -1.168236   -0.899416
     15          1           0        4.336298   -1.351945    0.837633
     16          1           0        2.674015    0.837899   -0.502267
     17          1           0        2.897423    0.655274    1.233918
     18          1           0        1.790684   -1.603858    1.143767
     19          1           0        1.566007   -1.420196   -0.602283
     20          1           0        0.711678   -0.345585    0.517825
     21          6           0       -3.424319    2.607333    0.057832
     22          6           0       -2.349052    1.764996    0.359149
     23          6           0       -2.503227    0.375962    0.322229
     24          6           0       -3.752184   -0.139027   -0.021547
     25          6           0       -4.842600    0.674003   -0.326939
     26          6           0       -4.665472    2.060113   -0.283649
     27          1           0       -3.295637    3.685232    0.088986
     28          1           0       -1.384012    2.187178    0.624676
     29          1           0       -1.687647   -0.299275    0.550928
     30          1           0       -5.792549    0.223699   -0.588169
     31          1           0       -5.502304    2.711859   -0.518136
     32          7           0       -3.927552   -1.607987   -0.064005
     33          8           0       -5.038058   -2.036829   -0.369793
     34          8           0       -2.951176   -2.302702    0.209309
 ---------------------------------------------------------------------

 SCF Done:  E(RHF) =  -669.535387618     A.U. after   15 cycles
 E2 =    -0.2090905184D+01 EUMP2 =    -0.67162629280143D+03

 The electronic state is 1-A.
 Alpha  occ. eigenvalues --  -20.60720 -20.60713 -15.85771 -11.31141 -11.27721
 Alpha  occ. eigenvalues --  -11.27693 -11.27471 -11.26741 -11.26729 -11.21998
 Alpha  occ. eigenvalues --  -11.21761 -11.21649 -11.21582 -11.21509 -11.21217
 Alpha  occ. eigenvalues --   -1.59795  -1.39347  -1.19321  -1.08716  -1.08688
 Alpha  occ. eigenvalues --   -1.04729  -1.03806  -0.96254  -0.95549  -0.87270
 Alpha  occ. eigenvalues --   -0.86124  -0.82382  -0.79868  -0.78488  -0.77427
 Alpha  occ. eigenvalues --   -0.71991  -0.71118  -0.70442  -0.65311  -0.64976
 Alpha  occ. eigenvalues --   -0.64739  -0.62129  -0.61189  -0.59634  -0.57868
 Alpha  occ. eigenvalues --   -0.55511  -0.55237  -0.53114  -0.53044  -0.52735
 Alpha  occ. eigenvalues --   -0.52615  -0.50165  -0.48751  -0.48744  -0.48183
 Alpha  occ. eigenvalues --   -0.46887  -0.46032  -0.45947  -0.44752  -0.44067
 Alpha  occ. eigenvalues --   -0.37306  -0.36329
 Alpha virt. eigenvalues --    0.05106   0.11321   0.16590   0.20083   0.22724
 Alpha virt. eigenvalues --    0.23837   0.25788   0.26431   0.27241   0.27967
 Alpha virt. eigenvalues --    0.28756   0.30493   0.31211   0.31583   0.32013

 Mulliken charges:
               1
     1  C   -0.298360
     2  C   -0.299968
     3  C   -0.475834
     4  H    0.149106
     5  H    0.149067
     6  H    0.152887
     7  H    0.152868
     8  H    0.155005
     9  H    0.154957
    10  H    0.161143
    11  C   -0.299162
    12  C   -0.300428
    13  C   -0.475673
    14  H    0.151733
    15  H    0.151707
    16  H    0.150094
    17  H    0.150259
    18  H    0.161692
    19  H    0.162641
    20  H    0.146903
    21  C   -0.170795
    22  C   -0.221158
    23  C   -0.180111
    24  C    0.160176
    25  C   -0.170400
    26  C   -0.218961
    27  H    0.225446
    28  H    0.223335
    29  H    0.286021
    30  H    0.275493
    31  H    0.223334
    32  N    0.487431
    33  O   -0.460771
    34  O   -0.459676
 Sum of Mulliken charges =  -0.00000

 Dipole moment (field-independent basis, Debye):
    X=              0.7510    Y=              5.0908    Z=              0.1280  Tot=              5.1475
 Quadrupole moment (field-independent basis, Debye-Ang):
   XX=            -95.3642   YY=            -96.9532   ZZ=            -94.2427
   XY=            -21.1879   XZ=              1.0852   YZ=             -0.4127

 Normal termination of Gaussian 16 at Thu May  6 12:06:16 2021.
