 Gaussian 16, Revision A.03,
 Gaussian 16:  EM64L-G16RevA.03 25-Dec-2016

 -------------
 #p 6-31g* mp2
 -------------

 ------------------------------------------------------
 Input file generated by CHIRIPA (05-May-2021 14:53:15)
 ------------------------------------------------------
 Symbolic Z-matrix:
 Charge =  0 Multiplicity = 1

                         Standard orientation:
 ---------------------------------------------------------------------
 Center     Atomic      Atomic             Coordinates (Angstroms)
 Number     Number       Type             X           Y           Z
 ---------------------------------------------------------------------
      1          6           0       -2.251009    1.074498    0.170917
      2          6           0       -2.344227    2.370460   -0.635171
      3          6           0       -1.536627    3.511390   -0.015610
      4          1           0       -2.602950    1.260901    1.194800
      5          1           0       -1.196500    0.776519    0.252253
      6          1           0       -3.398367    2.665164   -0.716140
      7          1           0       -1.992203    2.180903   -1.657307
      8          1           0       -0.477502    3.242130    0.050367
      9          1           0       -1.891655    3.729142    0.996882
     10          1           0       -1.617344    4.428182   -0.607925
     11          6           0       -3.053117   -0.075371   -0.435839
     12          6           0       -2.959899   -1.371333    0.370249
     13          6           0       -3.767499   -2.512263   -0.249312
     14          1           0       -4.107625    0.222609   -0.517175
     15          1           0       -2.701176   -0.261774   -1.459722
     16          1           0       -3.311923   -1.181776    1.392385
     17          1           0       -1.905759   -1.666036    0.451218
     18          1           0       -3.412471   -2.730015   -1.261804
     19          1           0       -4.826624   -2.243003   -0.315289
     20          1           0       -3.686782   -3.429055    0.343003
     21          6           0        2.688947    2.055752    0.149418
     22          6           0        3.273111    1.204063   -0.793925
     23          6           0        2.938712   -0.152965   -0.828598
     24          6           0        2.012273   -0.626758    0.099044
     25          6           0        1.413043    0.196595    1.051045
     26          6           0        1.762412    1.550192    1.067275
     27          1           0        2.954530    3.108592    0.169189
     28          1           0        3.992976    1.593921   -1.507962
     29          1           0        3.375764   -0.834558   -1.548205
     30          1           0        0.698670   -0.221186    1.750008
     31          1           0        1.307150    2.209294    1.801009
     32          7           0        1.650336   -2.061566    0.072101
     33          8           0        0.831419   -2.454369    0.900182
     34          8           0        2.192421   -2.766199   -0.776589
 ---------------------------------------------------------------------

 SCF Done:  E(RHF) =  -669.535060882     A.U. after   15 cycles
 E2 =    -0.2095199747D+01 EUMP2 =    -0.67163026062870D+03

 The electronic state is 1-A.
 Alpha  occ. eigenvalues --  -20.61029 -20.61023 -15.86044 -11.31366 -11.27921
 Alpha  occ. eigenvalues --  -11.27898 -11.27653 -11.26920 -11.26897 -11.21754
 Alpha  occ. eigenvalues --  -11.21448 -11.21349 -11.21093 -11.20910 -11.20418
 Alpha  occ. eigenvalues --   -1.60080  -1.39636  -1.19545  -1.08940  -1.08282
 Alpha  occ. eigenvalues --   -1.04938  -1.03331  -0.95852  -0.95763  -0.86869
 Alpha  occ. eigenvalues --   -0.86319  -0.82614  -0.79459  -0.78116  -0.77601
 Alpha  occ. eigenvalues --   -0.72266  -0.71392  -0.70634  -0.65190  -0.64955
 Alpha  occ. eigenvalues --   -0.64910  -0.62268  -0.60729  -0.59243  -0.57416
 Alpha  occ. eigenvalues --   -0.55422  -0.55156  -0.53311  -0.53025  -0.52508
 Alpha  occ. eigenvalues --   -0.52245  -0.49807  -0.49041  -0.49023  -0.47747
 Alpha  occ. eigenvalues --   -0.46492  -0.45732  -0.45560  -0.44744  -0.43588
 Alpha  occ. eigenvalues --   -0.37497  -0.36402
 Alpha virt. eigenvalues --    0.04799   0.10928   0.16227   0.20917   0.23170
 Alpha virt. eigenvalues --    0.24408   0.26188   0.26926   0.27043   0.28641
 Alpha virt. eigenvalues --    0.29161   0.30889   0.31310   0.31628   0.32461

 Mulliken charges:
               1
     1  C   -0.306653
     2  C   -0.296788
     3  C   -0.481694
     4  H    0.145595
     5  H    0.153024
     6  H    0.153053
     7  H    0.152838
     8  H    0.152524
     9  H    0.152408
    10  H    0.160015
    11  C   -0.297414
    12  C   -0.311019
    13  C   -0.474557
    14  H    0.147807
    15  H    0.149493
    16  H    0.147272
    17  H    0.171283
    18  H    0.155794
    19  H    0.150538
    20  H    0.164136
    21  C   -0.171516
    22  C   -0.218191
    23  C   -0.170870
    24  C    0.158358
    25  C   -0.174725
    26  C   -0.216110
    27  H    0.227297
    28  H    0.224315
    29  H    0.276069
    30  H    0.279111
    31  H    0.227510
    32  N    0.488290
    33  O   -0.459046
    34  O   -0.458144
 Sum of Mulliken charges =  -0.00000

 Dipole moment (field-independent basis, Debye):
    X=              1.5068    Y=              4.8716    Z=              0.0847  Tot=              5.1000
 Quadrupole moment (field-independent basis, Debye-Ang):
   XX=            -88.0497   YY=           -102.5136   ZZ=            -91.9135
   XY=              8.5592   XZ=             -3.0210   YZ=              0.8839

 Normal termination of Gaussian 16 at Thu May  6 07:29:12 2021.
