 Gaussian 16, Revision A.03,
 Gaussian 16:  EM64L-G16RevA.03 25-Dec-2016

 -------------
 #p 6-31g* mp2
 -------------

 ------------------------------------------------------
 Input file generated by CHIRIPA (05-May-2021 14:55:24)
 ------------------------------------------------------
 Symbolic Z-matrix:
 Charge =  0 Multiplicity = 1

                         Standard orientation:
 ---------------------------------------------------------------------
 Center     Atomic      Atomic             Coordinates (Angstroms)
 Number     Number       Type             X           Y           Z
 ---------------------------------------------------------------------
      1          6           0        1.688585    2.142148    0.508088
      2          6           0        2.373102    1.908106   -0.689068
      3          6           0        2.974427    0.669722   -0.932713
      4          6           0        2.871204   -0.316539    0.047044
      5          6           0        2.196119   -0.113887    1.249741
      6          6           0        1.602431    1.132185    1.471973
      7          1           0        1.224428    3.107140    0.689040
      8          1           0        2.441618    2.690607   -1.439429
      9          1           0        3.510458    0.461596   -1.850739
     10          1           0        2.144760   -0.913405    1.978818
     11          1           0        1.071466    1.311121    2.402619
     12          7           0        3.503758   -1.631630   -0.199558
     13          8           0        3.398515   -2.484080    0.679584
     14          8           0        4.092819   -1.785046   -1.267316
     15          6           0       -3.675255   -0.566279    0.177472
     16          6           0       -4.877992   -1.266539   -0.455810
     17          6           0       -5.132426   -2.653948    0.134235
     18          1           0       -2.782419   -1.192381    0.044113
     19          1           0       -3.838108   -0.480798    1.260785
     20          1           0       -4.713537   -1.349436   -1.537798
     21          1           0       -5.768032   -0.638608   -0.321094
     22          1           0       -5.322125   -2.586054    1.210342
     23          1           0       -4.261639   -3.300920   -0.013275
     24          1           0       -5.996625   -3.136527   -0.332817
     25          6           0       -3.408141    0.821757   -0.401950
     26          6           0       -2.205404    1.522017    0.231332
     27          6           0       -1.950970    2.909426   -0.358712
     28          1           0       -3.245289    0.736276   -1.485263
     29          1           0       -4.300978    1.447860   -0.268590
     30          1           0       -1.315364    0.894087    0.096618
     31          1           0       -2.369858    1.604914    1.313321
     32          1           0       -2.821757    3.556399   -0.211203
     33          1           0       -1.761271    2.841532   -1.434819
     34          1           0       -1.086771    3.392005    0.108340
 ---------------------------------------------------------------------

 SCF Done:  E(RHF) =  -669.535027398     A.U. after   15 cycles
 E2 =    -0.2092451180D+01 EUMP2 =    -0.67162747857796D+03

 The electronic state is 1-A.
 Alpha  occ. eigenvalues --  -20.60792 -20.60787 -15.85847 -11.31218 -11.27789
 Alpha  occ. eigenvalues --  -11.27786 -11.27520 -11.26804 -11.26792 -11.22144
 Alpha  occ. eigenvalues --  -11.21894 -11.21816 -11.21798 -11.21667 -11.21202
 Alpha  occ. eigenvalues --   -1.59869  -1.39422  -1.19399  -1.08847  -1.08762
 Alpha  occ. eigenvalues --   -1.04799  -1.03949  -0.96422  -0.95617  -0.87434
 Alpha  occ. eigenvalues --   -0.86192  -0.82453  -0.80018  -0.78604  -0.77496
 Alpha  occ. eigenvalues --   -0.72064  -0.71193  -0.70535  -0.65440  -0.65046
 Alpha  occ. eigenvalues --   -0.64798  -0.62141  -0.61339  -0.59867  -0.58050
 Alpha  occ. eigenvalues --   -0.55694  -0.55320  -0.53223  -0.53002  -0.52885
 Alpha  occ. eigenvalues --   -0.52792  -0.50333  -0.48826  -0.48819  -0.48327
 Alpha  occ. eigenvalues --   -0.47025  -0.46152  -0.46051  -0.44826  -0.44202
 Alpha  occ. eigenvalues --   -0.37329  -0.36391
 Alpha virt. eigenvalues --    0.05015   0.11215   0.16434   0.20291   0.22695
 Alpha virt. eigenvalues --    0.24151   0.26189   0.26271   0.26777   0.27630
 Alpha virt. eigenvalues --    0.28543   0.30201   0.30996   0.31649   0.32422

 Mulliken charges:
               1
     1  C   -0.167869
     2  C   -0.219863
     3  C   -0.171208
     4  C    0.158318
     5  C   -0.171953
     6  C   -0.218135
     7  H    0.227606
     8  H    0.223989
     9  H    0.275670
    10  H    0.275865
    11  H    0.224531
    12  N    0.488048
    13  O   -0.460354
    14  O   -0.460419
    15  C   -0.299001
    16  C   -0.299975
    17  C   -0.476204
    18  H    0.151921
    19  H    0.148473
    20  H    0.152953
    21  H    0.151710
    22  H    0.154841
    23  H    0.157229
    24  H    0.161192
    25  C   -0.298431
    26  C   -0.304548
    27  C   -0.474133
    28  H    0.151023
    29  H    0.149769
    30  H    0.159845
    31  H    0.147608
    32  H    0.157876
    33  H    0.157376
    34  H    0.146249
 Sum of Mulliken charges =  -0.00000

 Dipole moment (field-independent basis, Debye):
    X=             -2.2644    Y=              4.5553    Z=              0.8318  Tot=              5.1546
 Quadrupole moment (field-independent basis, Debye-Ang):
   XX=           -107.3750   YY=            -98.8727   ZZ=            -90.4308
   XY=             14.3560   XZ=              0.5595   YZ=             -1.1384

 Normal termination of Gaussian 16 at Wed May  5 17:36:34 2021.
