 Gaussian 16, Revision A.03,
 Gaussian 16:  EM64L-G16RevA.03 25-Dec-2016

 -------------
 #p 6-31g* mp2
 -------------

 ------------------------------------------------------
 Input file generated by CHIRIPA (05-May-2021 14:51:10)
 ------------------------------------------------------
 Symbolic Z-matrix:
 Charge =  0 Multiplicity = 1

                         Standard orientation:
 ---------------------------------------------------------------------
 Center     Atomic      Atomic             Coordinates (Angstroms)
 Number     Number       Type             X           Y           Z
 ---------------------------------------------------------------------
      1          6           0        2.257784    0.360509    0.372912
      2          6           0        2.971476   -0.650472   -0.525167
      3          6           0        3.369855   -1.924964    0.219655
      4          1           0        2.911877    0.616962    1.217506
      5          1           0        1.362214   -0.109324    0.802568
      6          1           0        3.864680   -0.178431   -0.954094
      7          1           0        2.315683   -0.904403   -1.367825
      8          1           0        2.486264   -2.421251    0.633861
      9          1           0        4.044063   -1.691155    1.049943
     10          1           0        3.878554   -2.633771   -0.441161
     11          6           0        1.853229    1.639878   -0.357348
     12          6           0        1.139538    2.650860    0.540731
     13          6           0        0.741158    3.925352   -0.204091
     14          1           0        2.748800    2.109712   -0.787004
     15          1           0        1.199136    1.383426   -1.201942
     16          1           0        1.795330    2.904790    1.383389
     17          1           0        0.246333    2.178819    0.969658
     18          1           0        0.066951    3.691543   -1.034379
     19          1           0        1.624749    4.421639   -0.618298
     20          1           0        0.232460    4.634159    0.456725
     21          6           0       -2.026166   -1.763135   -0.029963
     22          6           0       -0.601755   -2.316858    0.019330
     23          6           0       -0.559503   -3.844591   -0.025856
     24          1           0       -2.601171   -2.172330    0.811983
     25          1           0       -2.518378   -2.117540   -0.946217
     26          1           0       -0.111916   -1.960386    0.934535
     27          1           0       -0.030021   -1.906147   -0.822723
     28          1           0       -1.023610   -4.215783   -0.945323
     29          1           0       -1.105971   -4.270331    0.821917
     30          1           0        0.468277   -4.219034    0.010485
     31          6           0       -2.084847   -0.237253    0.014399
     32          6           0       -3.509258    0.316470   -0.034893
     33          6           0       -3.551510    1.844203    0.010292
     34          1           0       -1.592636    0.117153    0.930652
     35          1           0       -1.509842    0.171943   -0.827547
     36          1           0       -4.080993   -0.094241    0.807158
     37          1           0       -3.999098   -0.040003   -0.950098
     38          1           0       -3.005042    2.269943   -0.837482
     39          1           0       -3.087403    2.215397    0.929760
     40          1           0       -4.579291    2.218647   -0.026050
 ---------------------------------------------------------------------

 SCF Done:  E(RHF) =  -470.732000869     A.U. after   11 cycles
 E2 =    -0.1586471647D+01 EUMP2 =    -0.47231847251586D+03

 The electronic state is 1-A.
 Alpha  occ. eigenvalues --  -11.21693 -11.21692 -11.21523 -11.21520 -11.21501
 Alpha  occ. eigenvalues --  -11.21459 -11.21295 -11.21196 -11.21142 -11.21140
 Alpha  occ. eigenvalues --  -11.21002 -11.20990  -1.08578  -1.08302  -1.03667
 Alpha  occ. eigenvalues --   -1.03411  -0.96089  -0.95878  -0.87108  -0.86894
 Alpha  occ. eigenvalues --   -0.79731  -0.79503  -0.78483  -0.78068  -0.65180
 Alpha  occ. eigenvalues --   -0.64973  -0.61048  -0.60971  -0.59384  -0.59218
 Alpha  occ. eigenvalues --   -0.57737  -0.57478  -0.55365  -0.55139  -0.52765
 Alpha  occ. eigenvalues --   -0.52594  -0.52550  -0.52299  -0.50033  -0.49820
 Alpha  occ. eigenvalues --   -0.48145  -0.47677  -0.47007  -0.46477  -0.46277
 Alpha  occ. eigenvalues --   -0.46027  -0.45480  -0.44932  -0.43883  -0.43684
 Alpha virt. eigenvalues --    0.19904   0.21402   0.23412   0.23932   0.25041
 Alpha virt. eigenvalues --    0.25874   0.26129   0.28489   0.29082   0.29858
 Alpha virt. eigenvalues --    0.30123   0.31056   0.31516   0.31782   0.32525

 Mulliken charges:
               1
     1  C   -0.305666
     2  C   -0.299829
     3  C   -0.481601
     4  H    0.148530
     5  H    0.158376
     6  H    0.151792
     7  H    0.151724
     8  H    0.161627
     9  H    0.154791
    10  H    0.159452
    11  C   -0.297878
    12  C   -0.303411
    13  C   -0.475367
    14  H    0.148989
    15  H    0.149084
    16  H    0.151214
    17  H    0.155894
    18  H    0.154865
    19  H    0.154731
    20  H    0.160063
    21  C   -0.297797
    22  C   -0.306996
    23  C   -0.478068
    24  H    0.149990
    25  H    0.149875
    26  H    0.154559
    27  H    0.156570
    28  H    0.155594
    29  H    0.155470
    30  H    0.162910
    31  C   -0.303331
    32  C   -0.299789
    33  C   -0.476671
    34  H    0.152096
    35  H    0.151214
    36  H    0.152325
    37  H    0.152310
    38  H    0.155688
    39  H    0.155878
    40  H    0.160794
 Sum of Mulliken charges =  -0.00000

 Dipole moment (field-independent basis, Debye):
    X=             -0.0855    Y=             -0.0477    Z=              0.0145  Tot=              0.0990
 Quadrupole moment (field-independent basis, Debye-Ang):
   XX=            -84.2604   YY=            -86.7953   ZZ=            -83.8296
   XY=              0.8994   XZ=              0.0428   YZ=              0.4347

 Normal termination of Gaussian 16 at Thu May  6 03:46:35 2021.
