 Gaussian 16, Revision A.03,
 Gaussian 16:  EM64L-G16RevA.03 25-Dec-2016

 -------------
 #p 6-31g* mp2
 -------------

 ------------------------------------------------------
 Input file generated by CHIRIPA (05-May-2021 14:53:16)
 ------------------------------------------------------
 Symbolic Z-matrix:
 Charge =  0 Multiplicity = 1

                         Standard orientation:
 ---------------------------------------------------------------------
 Center     Atomic      Atomic             Coordinates (Angstroms)
 Number     Number       Type             X           Y           Z
 ---------------------------------------------------------------------
      1          6           0        3.400227    0.110581   -0.522570
      2          6           0        3.745901   -1.309198   -0.072322
      3          6           0        4.310276   -2.167570   -1.204785
      4          1           0        2.672852    0.060924   -1.344399
      5          1           0        4.301630    0.587811   -0.931371
      6          1           0        2.844434   -1.783127    0.336781
      7          1           0        4.472393   -1.256150    0.748660
      8          1           0        5.224375   -1.720241   -1.608419
      9          1           0        3.587166   -2.250212   -2.022638
     10          1           0        4.550495   -3.178455   -0.860884
     11          6           0        2.834885    0.980879    0.598455
     12          6           0        2.489212    2.400658    0.148208
     13          6           0        1.924837    3.259030    1.280670
     14          1           0        1.933483    0.503648    1.007257
     15          1           0        3.562261    1.030536    1.420285
     16          1           0        1.762719    2.347610   -0.672774
     17          1           0        3.390679    2.874586   -0.260895
     18          1           0        2.647947    3.341671    2.098523
     19          1           0        1.010738    2.811700    1.684304
     20          1           0        1.684617    4.269914    0.936770
     21          6           0       -0.861743   -2.103691    1.007401
     22          6           0       -0.420980   -1.281600   -0.034911
     23          6           0       -1.284331   -0.348676   -0.616999
     24          6           0       -2.587745   -0.264192   -0.129900
     25          6           0       -3.056540   -1.069209    0.907148
     26          6           0       -2.175800   -1.995064    1.474281
     27          1           0       -0.184318   -2.825662    1.453773
     28          1           0        0.598996   -1.363765   -0.399524
     29          1           0       -0.969270    0.300158   -1.425188
     30          1           0       -4.078968   -0.964163    1.249236
     31          1           0       -2.520846   -2.632210    2.283622
     32          7           0       -3.510940    0.719710   -0.738215
     33          8           0       -4.654466    0.774604   -0.291033
     34          8           0       -3.073533    1.417369   -1.650676
 ---------------------------------------------------------------------

 SCF Done:  E(RHF) =  -669.535147423     A.U. after   15 cycles
 E2 =    -0.2093095032D+01 EUMP2 =    -0.67162824245480D+03

 The electronic state is 1-A.
 Alpha  occ. eigenvalues --  -20.60793 -20.60788 -15.85846 -11.31228 -11.27800
 Alpha  occ. eigenvalues --  -11.27795 -11.27537 -11.26811 -11.26771 -11.22664
 Alpha  occ. eigenvalues --  -11.22286 -11.22046 -11.21978 -11.21952 -11.21309
 Alpha  occ. eigenvalues --   -1.59868  -1.39421  -1.19403  -1.09213  -1.08788
 Alpha  occ. eigenvalues --   -1.04807  -1.04210  -0.96634  -0.95625  -0.87649
 Alpha  occ. eigenvalues --   -0.86207  -0.82458  -0.80311  -0.78969  -0.77508
 Alpha  occ. eigenvalues --   -0.72065  -0.71191  -0.70506  -0.66115  -0.65053
 Alpha  occ. eigenvalues --   -0.64650  -0.62147  -0.61571  -0.60020  -0.58234
 Alpha  occ. eigenvalues --   -0.55939  -0.55292  -0.53320  -0.53151  -0.53020
 Alpha  occ. eigenvalues --   -0.52876  -0.50582  -0.48831  -0.48819  -0.48588
 Alpha  occ. eigenvalues --   -0.47396  -0.46488  -0.46418  -0.44823  -0.44468
 Alpha  occ. eigenvalues --   -0.37373  -0.36386
 Alpha virt. eigenvalues --    0.05022   0.11142   0.16433   0.18638   0.22981
 Alpha virt. eigenvalues --    0.23398   0.25100   0.25635   0.27271   0.28612
 Alpha virt. eigenvalues --    0.29404   0.30267   0.31080   0.31558   0.31834

 Mulliken charges:
               1
     1  C   -0.302061
     2  C   -0.302375
     3  C   -0.476180
     4  H    0.143181
     5  H    0.156387
     6  H    0.139717
     7  H    0.157933
     8  H    0.160237
     9  H    0.154048
    10  H    0.161932
    11  C   -0.303295
    12  C   -0.299609
    13  C   -0.476386
    14  H    0.150333
    15  H    0.151853
    16  H    0.151519
    17  H    0.153655
    18  H    0.154810
    19  H    0.157338
    20  H    0.164312
    21  C   -0.174203
    22  C   -0.223961
    23  C   -0.174176
    24  C    0.158973
    25  C   -0.170902
    26  C   -0.218328
    27  H    0.226183
    28  H    0.236206
    29  H    0.275841
    30  H    0.275838
    31  H    0.223717
    32  N    0.488031
    33  O   -0.460277
    34  O   -0.460294
 Sum of Mulliken charges =  -0.00000

 Dipole moment (field-independent basis, Debye):
    X=              3.3737    Y=             -3.3771    Z=              2.1708  Tot=              5.2439
 Quadrupole moment (field-independent basis, Debye-Ang):
   XX=           -107.7506   YY=            -93.3018   ZZ=            -94.2959
   XY=             10.1218   XZ=             -8.1906   YZ=             -1.6435

 Normal termination of Gaussian 16 at Wed May  5 21:57:42 2021.
