 Gaussian 16, Revision A.03,
 Gaussian 16:  EM64L-G16RevA.03 25-Dec-2016

 -------------
 #p 6-31g* mp2
 -------------

 ------------------------------------------------------
 Input file generated by CHIRIPA (05-May-2021 14:51:12)
 ------------------------------------------------------
 Symbolic Z-matrix:
 Charge =  0 Multiplicity = 1

                         Standard orientation:
 ---------------------------------------------------------------------
 Center     Atomic      Atomic             Coordinates (Angstroms)
 Number     Number       Type             X           Y           Z
 ---------------------------------------------------------------------
      1          6           0        1.908756   -0.324438    0.825726
      2          6           0        2.366504   -1.566648    1.590818
      3          6           0        1.310982   -2.079622    2.570882
      4          1           0        1.656700    0.468242    1.543409
      5          1           0        0.983772   -0.558239    0.280624
      6          1           0        3.291105   -1.330976    2.133209
      7          1           0        2.617683   -2.356401    0.871223
      8          1           0        0.389153   -2.342009    2.041746
      9          1           0        1.066401   -1.310758    3.310902
     10          1           0        1.659020   -2.968030    3.107037
     11          6           0        2.953172    0.200268   -0.157945
     12          6           0        2.495425    1.442478   -0.923038
     13          6           0        3.550946    1.955451   -1.903102
     14          1           0        3.878156    0.434068    0.387156
     15          1           0        3.205229   -0.592413   -0.875629
     16          1           0        2.244246    2.232230   -0.203443
     17          1           0        1.570824    1.206805   -1.465429
     18          1           0        3.795527    1.186587   -2.643122
     19          1           0        4.472775    2.217838   -1.373966
     20          1           0        3.202908    2.843859   -2.439256
     21          6           0       -2.606124   -0.637605   -0.585257
     22          6           0       -1.685911   -1.128174   -1.703530
     23          6           0       -2.048972   -2.529454   -2.195867
     24          1           0       -2.562458   -1.345372    0.253852
     25          1           0       -3.644291   -0.643241   -0.945219
     26          1           0       -0.649638   -1.120299   -1.342016
     27          1           0       -1.731627   -0.419056   -2.539996
     28          1           0       -3.073128   -2.548671   -2.582310
     29          1           0       -1.984991   -3.253899   -1.377523
     30          1           0       -1.378514   -2.860397   -2.995130
     31          6           0       -2.255804    0.761775   -0.082524
     32          6           0       -3.176017    1.252345    1.035750
     33          6           0       -2.812956    2.653625    1.528087
     34          1           0       -1.217637    0.767412    0.277439
     35          1           0       -2.299471    1.469543   -0.921632
     36          1           0       -3.130302    0.543226    1.872215
     37          1           0       -4.212290    1.244470    0.674236
     38          1           0       -2.876937    3.378070    0.709743
     39          1           0       -1.788801    2.672842    1.914530
     40          1           0       -3.483415    2.984568    2.327349
 ---------------------------------------------------------------------

 SCF Done:  E(RHF) =  -470.733087203     A.U. after   11 cycles
 E2 =    -0.1584292278D+01 EUMP2 =    -0.47231737948095D+03

 The electronic state is 1-A.
 Alpha  occ. eigenvalues --  -11.21665 -11.21654 -11.21602 -11.21568 -11.21452
 Alpha  occ. eigenvalues --  -11.21402 -11.21389 -11.21301 -11.21149 -11.21122
 Alpha  occ. eigenvalues --  -11.21073 -11.21045  -1.08503  -1.08410  -1.03568
 Alpha  occ. eigenvalues --   -1.03539  -0.96026  -0.95981  -0.87039  -0.87000
 Alpha  occ. eigenvalues --   -0.79633  -0.79605  -0.78467  -0.78089  -0.65311
 Alpha  occ. eigenvalues --   -0.64891  -0.61007  -0.60896  -0.59388  -0.59353
 Alpha  occ. eigenvalues --   -0.57651  -0.57579  -0.55320  -0.55270  -0.52721
 Alpha  occ. eigenvalues --   -0.52679  -0.52451  -0.52406  -0.49988  -0.49918
 Alpha  occ. eigenvalues --   -0.47965  -0.47928  -0.46793  -0.46612  -0.46405
 Alpha  occ. eigenvalues --   -0.45772  -0.45745  -0.44974  -0.43825  -0.43780
 Alpha virt. eigenvalues --    0.19928   0.23178   0.23797   0.24390   0.24970
 Alpha virt. eigenvalues --    0.26569   0.26675   0.27726   0.28372   0.30618
 Alpha virt. eigenvalues --    0.30956   0.31600   0.31768   0.31927   0.32086

 Mulliken charges:
               1
     1  C   -0.310927
     2  C   -0.298839
     3  C   -0.476072
     4  H    0.149411
     5  H    0.161171
     6  H    0.152375
     7  H    0.152051
     8  H    0.154360
     9  H    0.155256
    10  H    0.160828
    11  C   -0.297410
    12  C   -0.301851
    13  C   -0.475697
    14  H    0.149727
    15  H    0.149464
    16  H    0.151913
    17  H    0.154346
    18  H    0.155179
    19  H    0.155141
    20  H    0.160439
    21  C   -0.298013
    22  C   -0.307674
    23  C   -0.475185
    24  H    0.149381
    25  H    0.149811
    26  H    0.157461
    27  H    0.152281
    28  H    0.155688
    29  H    0.155014
    30  H    0.160115
    31  C   -0.304882
    32  C   -0.299384
    33  C   -0.475604
    34  H    0.156964
    35  H    0.149146
    36  H    0.152103
    37  H    0.151629
    38  H    0.155108
    39  H    0.155114
    40  H    0.160062
 Sum of Mulliken charges =  -0.00000

 Dipole moment (field-independent basis, Debye):
    X=              0.0206    Y=              0.0005    Z=             -0.0020  Tot=              0.0207
 Quadrupole moment (field-independent basis, Debye-Ang):
   XX=            -84.7143   YY=            -85.5223   ZZ=            -84.5225
   XY=             -0.4827   XZ=              1.1810   YZ=              0.0414

 Normal termination of Gaussian 16 at Wed May  5 16:49:04 2021.
