 Gaussian 16, Revision A.03,
 Gaussian 16:  EM64L-G16RevA.03 25-Dec-2016

 -------------
 #p 6-31g* mp2
 -------------

 ------------------------------------------------------
 Input file generated by CHIRIPA (05-May-2021 14:55:23)
 ------------------------------------------------------
 Symbolic Z-matrix:
 Charge =  0 Multiplicity = 1

                         Standard orientation:
 ---------------------------------------------------------------------
 Center     Atomic      Atomic             Coordinates (Angstroms)
 Number     Number       Type             X           Y           Z
 ---------------------------------------------------------------------
      1          6           0       -5.412415   -0.801619    0.512328
      2          6           0       -5.184803   -0.075072   -0.661061
      3          6           0       -3.896077    0.354573   -0.991425
      4          6           0       -2.853464    0.038677   -0.121679
      5          6           0       -3.048248   -0.683550    1.054645
      6          6           0       -4.345292   -1.103008    1.364933
      7          1           0       -6.416759   -1.131421    0.761166
      8          1           0       -6.011640    0.160435   -1.325080
      9          1           0       -3.691639    0.918498   -1.893429
     10          1           0       -2.203951   -0.903097    1.696813
     11          1           0       -4.519099   -1.667102    2.276873
     12          7           0       -1.484745    0.488130   -0.460794
     13          8           0       -0.583141    0.196977    0.322134
     14          8           0       -1.339464    1.123054   -1.503101
     15          6           0        3.839183   -0.624306   -0.268838
     16          6           0        4.863716   -1.685026    0.135130
     17          6           0        4.646559   -3.019125   -0.579585
     18          1           0        2.829079   -0.997934   -0.051960
     19          1           0        3.889203   -0.471413   -1.355814
     20          1           0        4.812739   -1.834875    1.221206
     21          1           0        5.871509   -1.308752   -0.082557
     22          1           0        4.718074   -2.891047   -1.664519
     23          1           0        3.653287   -3.420158   -0.353347
     24          1           0        5.389919   -3.762856   -0.276038
     25          6           0        4.043175    0.714927    0.437257
     26          6           0        3.018641    1.775647    0.033291
     27          6           0        3.235798    3.109746    0.748004
     28          1           0        3.993155    0.562033    1.524233
     29          1           0        5.053280    1.088555    0.220381
     30          1           0        2.010848    1.399373    0.250977
     31          1           0        3.069619    1.925496   -1.052786
     32          1           0        4.229071    3.510779    0.521768
     33          1           0        3.164284    2.981668    1.832939
     34          1           0        2.492439    3.853476    0.444457
 ---------------------------------------------------------------------

 SCF Done:  E(RHF) =  -669.536594231     A.U. after   15 cycles
 E2 =    -0.2091258135D+01 EUMP2 =    -0.67162785236635D+03

 The electronic state is 1-A.
 Alpha  occ. eigenvalues --  -20.61079 -20.61061 -15.86086 -11.31370 -11.27926
 Alpha  occ. eigenvalues --  -11.27920 -11.27654 -11.26922 -11.26912 -11.20657
 Alpha  occ. eigenvalues --  -11.20303 -11.20104 -11.20026 -11.19773 -11.19709
 Alpha  occ. eigenvalues --   -1.60115  -1.39674  -1.19530  -1.08942  -1.07137
 Alpha  occ. eigenvalues --   -1.04920  -1.02285  -0.95790  -0.94798  -0.86323
 Alpha  occ. eigenvalues --   -0.85824  -0.82627  -0.78353  -0.77684  -0.76877
 Alpha  occ. eigenvalues --   -0.72302  -0.71423  -0.70639  -0.65187  -0.64923
 Alpha  occ. eigenvalues --   -0.63770  -0.62268  -0.59686  -0.58181  -0.56375
 Alpha  occ. eigenvalues --   -0.55426  -0.54107  -0.53254  -0.53012  -0.51529
 Alpha  occ. eigenvalues --   -0.51215  -0.49155  -0.49053  -0.48736  -0.46657
 Alpha  occ. eigenvalues --   -0.45376  -0.45073  -0.44454  -0.44223  -0.42534
 Alpha  occ. eigenvalues --   -0.37507  -0.36519
 Alpha virt. eigenvalues --    0.04841   0.11137   0.16347   0.21272   0.24079
 Alpha virt. eigenvalues --    0.25495   0.27196   0.27866   0.28174   0.28855
 Alpha virt. eigenvalues --    0.29161   0.30856   0.32362   0.32566   0.32977

 Mulliken charges:
               1
     1  C   -0.170427
     2  C   -0.218590
     3  C   -0.170491
     4  C    0.157719
     5  C   -0.170692
     6  C   -0.218527
     7  H    0.226279
     8  H    0.224104
     9  H    0.276080
    10  H    0.275638
    11  H    0.224064
    12  N    0.489761
    13  O   -0.460977
    14  O   -0.457513
    15  C   -0.299776
    16  C   -0.298604
    17  C   -0.474684
    18  H    0.159618
    19  H    0.148066
    20  H    0.149121
    21  H    0.149017
    22  H    0.154328
    23  H    0.154271
    24  H    0.156256
    25  C   -0.296637
    26  C   -0.312256
    27  C   -0.474717
    28  H    0.145042
    29  H    0.143138
    30  H    0.183948
    31  H    0.149333
    32  H    0.148580
    33  H    0.150337
    34  H    0.159190
 Sum of Mulliken charges =  -0.00000

 Dipole moment (field-independent basis, Debye):
    X=             -5.3086    Y=             -1.6113    Z=              1.1352  Tot=              5.6627
 Quadrupole moment (field-independent basis, Debye-Ang):
   XX=            -68.4158   YY=            -96.4251   ZZ=            -91.4940
   XY=              3.6316   XZ=             -1.8682   YZ=             -2.7767

 Normal termination of Gaussian 16 at Thu May  6 01:32:32 2021.
