 Gaussian 16, Revision A.03,
 Gaussian 16:  EM64L-G16RevA.03 25-Dec-2016

 -------------
 #p 6-31g* mp2
 -------------

 ------------------------------------------------------
 Input file generated by CHIRIPA (05-May-2021 14:57:21)
 ------------------------------------------------------
 Symbolic Z-matrix:
 Charge =  0 Multiplicity = 1

                         Standard orientation:
 ---------------------------------------------------------------------
 Center     Atomic      Atomic             Coordinates (Angstroms)
 Number     Number       Type             X           Y           Z
 ---------------------------------------------------------------------
      1          6           0        1.845306    2.420289    0.760988
      2          6           0        3.224890    2.264472    0.590719
      3          6           0        3.751481    1.052790    0.133471
      4          6           0        2.865570    0.013172   -0.145179
      5          6           0        1.486304    0.137530    0.014354
      6          6           0        0.981939    1.358193    0.472770
      7          1           0        1.444870    3.365041    1.116643
      8          1           0        3.897771    3.087592    0.813766
      9          1           0        4.815315    0.904910   -0.007268
     10          1           0        0.840605   -0.701099   -0.216282
     11          1           0       -0.089904    1.476345    0.604069
     12          7           0        3.411284   -1.274336   -0.629866
     13          8           0        2.609636   -2.174958   -0.868356
     14          8           0        4.630329   -1.358483   -0.762095
     15          6           0       -2.030527   -1.879942    1.818332
     16          6           0       -2.291481   -2.312119    0.513860
     17          6           0       -2.704867   -1.404175   -0.465578
     18          6           0       -2.847663   -0.065410   -0.104179
     19          6           0       -2.595328    0.395926    1.186860
     20          6           0       -2.183015   -0.529679    2.150084
     21          1           0       -1.709815   -2.592115    2.572885
     22          1           0       -2.173901   -3.360145    0.253362
     23          1           0       -2.913646   -1.711620   -1.483078
     24          1           0       -2.721436    1.447021    1.416457
     25          1           0       -1.981063   -0.191202    3.162356
     26          7           0       -3.284730    0.905137   -1.132484
     27          8           0       -3.403019    2.079214   -0.788697
     28          8           0       -3.500736    0.473400   -2.262785
 ---------------------------------------------------------------------

 SCF Done:  E(RHF) =  -868.338057493     A.U. after   16 cycles
 E2 =    -0.2602081957D+01 EUMP2 =    -0.87094013944997D+03

 The electronic state is 1-A.
 Alpha  occ. eigenvalues --  -20.61518 -20.61484 -20.60867 -20.60848 -15.86557
 Alpha  occ. eigenvalues --  -15.85909 -11.32035 -11.31167 -11.28603 -11.28489
 Alpha  occ. eigenvalues --  -11.28204 -11.27729 -11.27686 -11.27595 -11.27484
 Alpha  occ. eigenvalues --  -11.27427 -11.26725 -11.26610  -1.60578  -1.59936
 Alpha  occ. eigenvalues --   -1.40128  -1.39493  -1.20197  -1.19324  -1.09527
 Alpha  occ. eigenvalues --   -1.08741  -1.05585  -1.04703  -0.96355  -0.95594
 Alpha  occ. eigenvalues --   -0.86948  -0.86112  -0.83165  -0.82429  -0.78230
 Alpha  occ. eigenvalues --   -0.77498  -0.72756  -0.72133  -0.71920  -0.71256
 Alpha  occ. eigenvalues --   -0.71206  -0.70433  -0.65793  -0.65511  -0.64974
 Alpha  occ. eigenvalues --   -0.64725  -0.62895  -0.62090  -0.55978  -0.55258
 Alpha  occ. eigenvalues --   -0.53887  -0.53607  -0.53047  -0.52760  -0.49534
 Alpha  occ. eigenvalues --   -0.49511  -0.48892  -0.48876  -0.45503  -0.44923
 Alpha  occ. eigenvalues --   -0.38144  -0.37336  -0.37180  -0.36248
 Alpha virt. eigenvalues --    0.04255   0.05030   0.10331   0.11340   0.15768
 Alpha virt. eigenvalues --    0.16580   0.20628   0.21694   0.26279   0.27265
 Alpha virt. eigenvalues --    0.27819   0.28443   0.30271   0.31173   0.31868

 Mulliken charges:
               1
     1  C   -0.172373
     2  C   -0.218622
     3  C   -0.171378
     4  C    0.158254
     5  C   -0.176183
     6  C   -0.221567
     7  H    0.226672
     8  H    0.223305
     9  H    0.275028
    10  H    0.275051
    11  H    0.228902
    12  N    0.488293
    13  O   -0.463553
    14  O   -0.460166
    15  C   -0.171750
    16  C   -0.217639
    17  C   -0.173349
    18  C    0.160714
    19  C   -0.191719
    20  C   -0.214899
    21  H    0.231939
    22  H    0.232508
    23  H    0.280965
    24  H    0.274044
    25  H    0.226574
    26  N    0.488513
    27  O   -0.462993
    28  O   -0.454570
 Sum of Mulliken charges =  -0.00000

 Dipole moment (field-independent basis, Debye):
    X=             -0.6203    Y=              0.8814    Z=              5.3248  Tot=              5.4328
 Quadrupole moment (field-independent basis, Debye-Ang):
   XX=           -120.9527   YY=           -101.1082   ZZ=           -104.6145
   XY=             25.6727   XZ=             -4.8079   YZ=              2.2019

 Normal termination of Gaussian 16 at Thu May  6 12:51:55 2021.
