 Gaussian 16, Revision A.03,
 Gaussian 16:  EM64L-G16RevA.03 25-Dec-2016

 -------------
 #p 6-31g* mp2
 -------------

 ------------------------------------------------------
 Input file generated by CHIRIPA (05-May-2021 14:57:26)
 ------------------------------------------------------
 Symbolic Z-matrix:
 Charge =  0 Multiplicity = 1

                         Standard orientation:
 ---------------------------------------------------------------------
 Center     Atomic      Atomic             Coordinates (Angstroms)
 Number     Number       Type             X           Y           Z
 ---------------------------------------------------------------------
      1          6           0       -1.930141   -2.120145    0.480657
      2          6           0       -3.031353   -2.168978   -0.380429
      3          6           0       -3.822444   -1.034826   -0.586398
      4          6           0       -3.482015    0.136787    0.087931
      5          6           0       -2.391167    0.217047    0.952165
      6          6           0       -1.614120   -0.929388    1.143038
      7          1           0       -1.321057   -3.005952    0.634795
      8          1           0       -3.279144   -3.092370   -0.896173
      9          1           0       -4.680539   -1.044742   -1.247451
     10          1           0       -2.169076    1.151922    1.452268
     11          1           0       -0.759489   -0.888540    1.812352
     12          7           0       -4.312074    1.343965   -0.122128
     13          8           0       -3.991117    2.364007    0.483790
     14          8           0       -5.267914    1.247250   -0.888714
     15          6           0        4.286441    2.402360   -0.063225
     16          6           0        2.909084    2.205266   -0.206625
     17          6           0        2.376502    0.913082   -0.240755
     18          6           0        3.254216   -0.164071   -0.128288
     19          6           0        4.631070   -0.000210    0.015643
     20          6           0        5.141530    1.300935    0.047257
     21          1           0        4.691571    3.409641   -0.037689
     22          1           0        2.242628    3.058777   -0.292648
     23          1           0        1.314221    0.731814   -0.350839
     24          1           0        5.270314   -0.870741    0.099062
     25          1           0        6.211624    1.450995    0.158721
     26          7           0        2.702106   -1.536791   -0.163087
     27          8           0        3.496574   -2.469124   -0.062033
     28          8           0        1.485345   -1.654405   -0.290758
 ---------------------------------------------------------------------

 SCF Done:  E(RHF) =  -868.340054538     A.U. after   16 cycles
 E2 =    -0.2599551985D+01 EUMP2 =    -0.87093960652323D+03

 The electronic state is 1-A.
 Alpha  occ. eigenvalues --  -20.61631 -20.61579 -20.60430 -20.60416 -15.86631
 Alpha  occ. eigenvalues --  -15.85473 -11.31742 -11.30594 -11.28273 -11.28259
 Alpha  occ. eigenvalues --  -11.27950 -11.27227 -11.27200 -11.27176 -11.27145
 Alpha  occ. eigenvalues --  -11.26632 -11.26023 -11.26004  -1.60680  -1.59509
 Alpha  occ. eigenvalues --   -1.40239  -1.39070  -1.19886  -1.18727  -1.09328
 Alpha  occ. eigenvalues --   -1.08107  -1.05244  -1.04113  -0.96208  -0.94997
 Alpha  occ. eigenvalues --   -0.86652  -0.85483  -0.83043  -0.81864  -0.78125
 Alpha  occ. eigenvalues --   -0.76985  -0.72881  -0.71991  -0.71692  -0.70979
 Alpha  occ. eigenvalues --   -0.70834  -0.69712  -0.65539  -0.65233  -0.64353
 Alpha  occ. eigenvalues --   -0.64068  -0.62589  -0.61478  -0.55743  -0.54447
 Alpha  occ. eigenvalues --   -0.53595  -0.53324  -0.52417  -0.52182  -0.49626
 Alpha  occ. eigenvalues --   -0.49599  -0.48467  -0.48423  -0.45698  -0.44533
 Alpha  occ. eigenvalues --   -0.37850  -0.36841  -0.36556  -0.35730
 Alpha virt. eigenvalues --    0.04356   0.05546   0.10806   0.11952   0.15918
 Alpha virt. eigenvalues --    0.17089   0.20957   0.22256   0.26782   0.27538
 Alpha virt. eigenvalues --    0.28364   0.29194   0.30616   0.31639   0.32321

 Mulliken charges:
               1
     1  C   -0.159526
     2  C   -0.220973
     3  C   -0.171873
     4  C    0.157324
     5  C   -0.180227
     6  C   -0.212703
     7  H    0.237615
     8  H    0.223029
     9  H    0.273095
    10  H    0.268781
    11  H    0.223939
    12  N    0.488276
    13  O   -0.465391
    14  O   -0.461669
    15  C   -0.169874
    16  C   -0.219015
    17  C   -0.174731
    18  C    0.156740
    19  C   -0.170722
    20  C   -0.218559
    21  H    0.228398
    22  H    0.227997
    23  H    0.276586
    24  H    0.275929
    25  H    0.225250
    26  N    0.490402
    27  O   -0.457896
    28  O   -0.470201
 Sum of Mulliken charges =  -0.00000

 Dipole moment (field-independent basis, Debye):
    X=              5.2569    Y=              0.3883    Z=              0.8411  Tot=              5.3379
 Quadrupole moment (field-independent basis, Debye-Ang):
   XX=           -107.4284   YY=           -105.8879   ZZ=           -104.1501
   XY=             31.5653   XZ=              0.5156   YZ=              0.5205

 Normal termination of Gaussian 16 at Wed May  5 19:34:08 2021.
