 Gaussian 16, Revision A.03,
 Gaussian 16:  EM64L-G16RevA.03 25-Dec-2016

 -------------
 #p 6-31g* mp2
 -------------

 ------------------------------------------------------
 Input file generated by CHIRIPA (05-May-2021 14:55:18)
 ------------------------------------------------------
 Symbolic Z-matrix:
 Charge =  0 Multiplicity = 1

                         Standard orientation:
 ---------------------------------------------------------------------
 Center     Atomic      Atomic             Coordinates (Angstroms)
 Number     Number       Type             X           Y           Z
 ---------------------------------------------------------------------
      1          6           0        4.502589    1.249241    0.507521
      2          6           0        3.265239    1.393089    1.143756
      3          6           0        2.230662    0.485490    0.897865
      4          6           0        2.469074   -0.558923    0.005872
      5          6           0        3.690805   -0.728987   -0.643545
      6          6           0        4.711055    0.190528   -0.382530
      7          1           0        5.300709    1.958914    0.704410
      8          1           0        3.100502    2.214337    1.835464
      9          1           0        1.262979    0.573254    1.376722
     10          1           0        3.825093   -1.557791   -1.327993
     11          1           0        5.670973    0.076340   -0.878074
     12          7           0        1.381397   -1.526065   -0.262448
     13          8           0        1.616708   -2.437630   -1.052584
     14          8           0        0.314161   -1.354232    0.322460
     15          6           0       -3.294049   -0.246388   -0.059830
     16          6           0       -4.498710   -1.006776    0.495675
     17          6           0       -4.291849   -2.521702    0.497770
     18          1           0       -3.090553   -0.591521   -1.082776
     19          1           0       -2.405368   -0.495216    0.536597
     20          1           0       -5.385132   -0.755518   -0.100766
     21          1           0       -4.699479   -0.659657    1.517347
     22          1           0       -3.424248   -2.791198    1.108705
     23          1           0       -4.113796   -2.887606   -0.518602
     24          1           0       -5.165097   -3.045579    0.898832
     25          6           0       -3.485693    1.269174   -0.068411
     26          6           0       -2.281032    2.029562   -0.623916
     27          6           0       -2.487892    3.544488   -0.626011
     28          1           0       -4.374374    1.518003   -0.664838
     29          1           0       -3.689188    1.614307    0.954534
     30          1           0       -2.080262    1.682443   -1.645589
     31          1           0       -1.394610    1.778305   -0.027475
     32          1           0       -2.665945    3.910392    0.390360
     33          1           0       -3.355493    3.813984   -1.236946
     34          1           0       -1.614644    4.068365   -1.027074
 ---------------------------------------------------------------------

 SCF Done:  E(RHF) =  -669.535976167     A.U. after   15 cycles
 E2 =    -0.2091509834D+01 EUMP2 =    -0.67162748600128D+03

 The electronic state is 1-A.
 Alpha  occ. eigenvalues --  -20.60912 -20.60907 -15.85951 -11.31282 -11.27852
 Alpha  occ. eigenvalues --  -11.27841 -11.27582 -11.26857 -11.26848 -11.21110
 Alpha  occ. eigenvalues --  -11.20793 -11.20660 -11.20619 -11.20133 -11.19972
 Alpha  occ. eigenvalues --   -1.59972  -1.39530  -1.19450  -1.08852  -1.07588
 Alpha  occ. eigenvalues --   -1.04850  -1.02773  -0.95694  -0.95205  -0.86253
 Alpha  occ. eigenvalues --   -0.86219  -0.82532  -0.78866  -0.77615  -0.77273
 Alpha  occ. eigenvalues --   -0.72177  -0.71285  -0.70561  -0.65110  -0.64854
 Alpha  occ. eigenvalues --   -0.64227  -0.62200  -0.60184  -0.58616  -0.56800
 Alpha  occ. eigenvalues --   -0.55352  -0.54493  -0.53178  -0.52944  -0.51964
 Alpha  occ. eigenvalues --   -0.51606  -0.49152  -0.48935  -0.48917  -0.47167
 Alpha  occ. eigenvalues --   -0.45922  -0.45132  -0.44834  -0.44550  -0.42984
 Alpha  occ. eigenvalues --   -0.37427  -0.36450
 Alpha virt. eigenvalues --    0.04932   0.11177   0.16431   0.20931   0.23366
 Alpha virt. eigenvalues --    0.24969   0.25952   0.27505   0.27810   0.28704
 Alpha virt. eigenvalues --    0.29224   0.31059   0.31695   0.32295   0.32368

 Mulliken charges:
               1
     1  C   -0.170645
     2  C   -0.218490
     3  C   -0.171280
     4  C    0.157931
     5  C   -0.170714
     6  C   -0.218484
     7  H    0.225980
     8  H    0.223898
     9  H    0.275898
    10  H    0.275831
    11  H    0.223792
    12  N    0.493930
    13  O   -0.459121
    14  O   -0.465715
    15  C   -0.305199
    16  C   -0.299353
    17  C   -0.475056
    18  H    0.150868
    19  H    0.172270
    20  H    0.147012
    21  H    0.147102
    22  H    0.162348
    23  H    0.156610
    24  H    0.154327
    25  C   -0.298054
    26  C   -0.297608
    27  C   -0.475308
    28  H    0.146534
    29  H    0.145167
    30  H    0.153361
    31  H    0.148282
    32  H    0.152356
    33  H    0.155502
    34  H    0.156032
 Sum of Mulliken charges =  -0.00000

 Dipole moment (field-independent basis, Debye):
    X=              4.0729    Y=              3.2304    Z=              0.9275  Tot=              5.2806
 Quadrupole moment (field-independent basis, Debye-Ang):
   XX=            -75.2560   YY=            -99.5900   ZZ=            -92.4332
   XY=              5.0370   XZ=              0.6856   YZ=              1.5706

 Normal termination of Gaussian 16 at Thu May  6 12:21:17 2021.
