 Gaussian 16, Revision A.03,
 Gaussian 16:  EM64L-G16RevA.03 25-Dec-2016

 -------------
 #p 6-31g* mp2
 -------------

 ------------------------------------------------------
 Input file generated by CHIRIPA (05-May-2021 14:55:25)
 ------------------------------------------------------
 Symbolic Z-matrix:
 Charge =  0 Multiplicity = 1

                         Standard orientation:
 ---------------------------------------------------------------------
 Center     Atomic      Atomic             Coordinates (Angstroms)
 Number     Number       Type             X           Y           Z
 ---------------------------------------------------------------------
      1          6           0       -2.398185   -2.330011   -1.049552
      2          6           0       -3.337770   -1.323861   -1.297268
      3          6           0       -3.249403   -0.092666   -0.640840
      4          6           0       -2.203893    0.099159    0.261048
      5          6           0       -1.252333   -0.883657    0.529187
      6          6           0       -1.360295   -2.107091   -0.138721
      7          1           0       -2.474441   -3.283419   -1.563940
      8          1           0       -4.144866   -1.494183   -2.004113
      9          1           0       -3.963186    0.703589   -0.813788
     10          1           0       -0.458924   -0.684364    1.239259
     11          1           0       -0.629174   -2.886664    0.055631
     12          7           0       -2.099971    1.398462    0.962056
     13          8           0       -1.169466    1.542548    1.752016
     14          8           0       -2.950989    2.248167    0.708272
     15          6           0        3.300170   -0.414383    0.056624
     16          6           0        2.558317   -1.721406    0.338284
     17          6           0        3.486581   -2.835309    0.823398
     18          1           0        4.079829   -0.597434   -0.695420
     19          1           0        3.817230   -0.090126    0.970354
     20          1           0        2.041678   -2.042375   -0.575323
     21          1           0        1.780208   -1.535180    1.089605
     22          1           0        3.992317   -2.539828    1.748343
     23          1           0        4.255272   -3.049904    0.073955
     24          1           0        2.935521   -3.760537    1.018712
     25          6           0        2.385641    0.708736   -0.429139
     26          6           0        3.127495    2.015759   -0.710798
     27          6           0        2.199230    3.129664   -1.195912
     28          1           0        1.868582    0.384480   -1.342869
     29          1           0        1.605984    0.891788    0.322906
     30          1           0        3.905604    1.829533   -1.462119
     31          1           0        3.644134    2.336728    0.202810
     32          1           0        1.430539    3.344258   -0.446468
     33          1           0        1.693495    2.834182   -2.120857
     34          1           0        2.750290    4.054890   -1.391226
 ---------------------------------------------------------------------

 SCF Done:  E(RHF) =  -669.535612712     A.U. after   15 cycles
 E2 =    -0.2093433847D+01 EUMP2 =    -0.67162904655901D+03

 The electronic state is 1-A.
 Alpha  occ. eigenvalues --  -20.60859 -20.60854 -15.85884 -11.31157 -11.27733
 Alpha  occ. eigenvalues --  -11.27693 -11.27464 -11.26736 -11.26689 -11.22234
 Alpha  occ. eigenvalues --  -11.21600 -11.21576 -11.21350 -11.21238 -11.20609
 Alpha  occ. eigenvalues --   -1.59913  -1.39472  -1.19331  -1.08745  -1.08550
 Alpha  occ. eigenvalues --   -1.04723  -1.03629  -0.96039  -0.95594  -0.87064
 Alpha  occ. eigenvalues --   -0.86127  -0.82436  -0.79799  -0.78346  -0.77430
 Alpha  occ. eigenvalues --   -0.72108  -0.71220  -0.70458  -0.65231  -0.64988
 Alpha  occ. eigenvalues --   -0.64682  -0.62098  -0.61010  -0.59476  -0.57655
 Alpha  occ. eigenvalues --   -0.55296  -0.55239  -0.53075  -0.52846  -0.52744
 Alpha  occ. eigenvalues --   -0.52457  -0.49987  -0.48869  -0.48856  -0.48055
 Alpha  occ. eigenvalues --   -0.46816  -0.45855  -0.45717  -0.44801  -0.43863
 Alpha  occ. eigenvalues --   -0.37313  -0.36285
 Alpha virt. eigenvalues --    0.05009   0.11261   0.16457   0.20131   0.23070
 Alpha virt. eigenvalues --    0.24030   0.24857   0.26350   0.27283   0.28400
 Alpha virt. eigenvalues --    0.29672   0.30648   0.31338   0.31731   0.32535

 Mulliken charges:
               1
     1  C   -0.171228
     2  C   -0.218829
     3  C   -0.170759
     4  C    0.159181
     5  C   -0.172380
     6  C   -0.220761
     7  H    0.225408
     8  H    0.223214
     9  H    0.275303
    10  H    0.279614
    11  H    0.226337
    12  N    0.488873
    13  O   -0.462535
    14  O   -0.459130
    15  C   -0.297606
    16  C   -0.304954
    17  C   -0.475038
    18  H    0.150248
    19  H    0.152894
    20  H    0.149862
    21  H    0.144661
    22  H    0.159415
    23  H    0.157954
    24  H    0.155511
    25  C   -0.307921
    26  C   -0.298794
    27  C   -0.479097
    28  H    0.147041
    29  H    0.161937
    30  H    0.149156
    31  H    0.153766
    32  H    0.167167
    33  H    0.151943
    34  H    0.159548
 Sum of Mulliken charges =  -0.00000

 Dipole moment (field-independent basis, Debye):
    X=             -0.3400    Y=             -4.4526    Z=             -2.4336  Tot=              5.0856
 Quadrupole moment (field-independent basis, Debye-Ang):
   XX=            -90.1019   YY=            -96.3819   ZZ=            -94.8695
   XY=              9.1202   XZ=              7.5661   YZ=             -1.5037

 Normal termination of Gaussian 16 at Thu May  6 20:56:58 2021.
