 Gaussian 16, Revision A.03,
 Gaussian 16:  EM64L-G16RevA.03 25-Dec-2016

 -------------
 #p 6-31g* mp2
 -------------

 ------------------------------------------------------
 Input file generated by CHIRIPA (05-May-2021 14:53:18)
 ------------------------------------------------------
 Symbolic Z-matrix:
 Charge =  0 Multiplicity = 1

                         Standard orientation:
 ---------------------------------------------------------------------
 Center     Atomic      Atomic             Coordinates (Angstroms)
 Number     Number       Type             X           Y           Z
 ---------------------------------------------------------------------
      1          6           0        5.017744   -0.031267    0.282626
      2          6           0        5.877159    0.142771   -0.970011
      3          6           0        7.233851    0.781818   -0.672015
      4          1           0        4.867044    0.948962    0.755263
      5          1           0        5.562977   -0.648500    1.010046
      6          1           0        5.329896    0.758342   -1.695402
      7          1           0        6.025671   -0.837960   -1.439827
      8          1           0        7.802846    0.166909    0.032777
      9          1           0        7.103118    1.772281   -0.224250
     10          1           0        7.831856    0.896869   -1.581418
     11          6           0        3.658396   -0.668866    0.000905
     12          6           0        2.798980   -0.842904    1.253542
     13          6           0        1.442289   -1.481951    0.955547
     14          1           0        3.113163   -0.051633   -0.726515
     15          1           0        3.809096   -1.649095   -0.471732
     16          1           0        2.650469    0.137827    1.723358
     17          1           0        3.346244   -1.458475    1.978933
     18          1           0        1.573022   -2.472414    0.507781
     19          1           0        0.873294   -0.867042    0.250754
     20          1           0        0.844284   -1.597003    1.864949
     21          6           0       -4.695509   -1.849629   -0.500150
     22          6           0       -5.367860   -0.633926   -0.337265
     23          6           0       -4.654262    0.548672   -0.120963
     24          6           0       -3.262820    0.478745   -0.073109
     25          6           0       -2.564164   -0.717082   -0.231753
     26          6           0       -3.298271   -1.887261   -0.446969
     27          1           0       -5.257815   -2.763476   -0.667757
     28          1           0       -6.452913   -0.601701   -0.378092
     29          1           0       -5.149382    1.503424    0.008352
     30          1           0       -1.481885   -0.717596   -0.186053
     31          1           0       -2.773453   -2.829967   -0.573130
     32          7           0       -2.496510    1.724135    0.155305
     33          8           0       -1.271192    1.635842    0.193241
     34          8           0       -3.135703    2.764982    0.292075
 ---------------------------------------------------------------------

 SCF Done:  E(RHF) =  -669.535832609     A.U. after   15 cycles
 E2 =    -0.2091106742D+01 EUMP2 =    -0.67162693935039D+03

 The electronic state is 1-A.
 Alpha  occ. eigenvalues --  -20.60783 -20.60777 -15.85831 -11.31152 -11.27731
 Alpha  occ. eigenvalues --  -11.27684 -11.27472 -11.26742 -11.26718 -11.21389
 Alpha  occ. eigenvalues --  -11.21351 -11.21142 -11.21113 -11.21079 -11.20834
 Alpha  occ. eigenvalues --   -1.59855  -1.39410  -1.19328  -1.08734  -1.08188
 Alpha  occ. eigenvalues --   -1.04725  -1.03336  -0.95820  -0.95570  -0.86850
 Alpha  occ. eigenvalues --   -0.86125  -0.82405  -0.79415  -0.77999  -0.77453
 Alpha  occ. eigenvalues --   -0.72054  -0.71174  -0.70446  -0.64983  -0.64833
 Alpha  occ. eigenvalues --   -0.64709  -0.62101  -0.60704  -0.59174  -0.57417
 Alpha  occ. eigenvalues --   -0.55288  -0.55053  -0.53061  -0.52870  -0.52500
 Alpha  occ. eigenvalues --   -0.52219  -0.49742  -0.48804  -0.48803  -0.47727
 Alpha  occ. eigenvalues --   -0.46403  -0.45548  -0.45442  -0.44823  -0.43586
 Alpha  occ. eigenvalues --   -0.37316  -0.36326
 Alpha virt. eigenvalues --    0.05073   0.11321   0.16571   0.20926   0.23149
 Alpha virt. eigenvalues --    0.24254   0.25807   0.27040   0.27781   0.27901
 Alpha virt. eigenvalues --    0.29283   0.30387   0.31564   0.31842   0.32105

 Mulliken charges:
               1
     1  C   -0.298729
     2  C   -0.299759
     3  C   -0.475725
     4  H    0.152683
     5  H    0.148131
     6  H    0.153425
     7  H    0.150263
     8  H    0.154315
     9  H    0.156339
    10  H    0.159595
    11  C   -0.299797
    12  C   -0.297933
    13  C   -0.486030
    14  H    0.154311
    15  H    0.146290
    16  H    0.160511
    17  H    0.150318
    18  H    0.149708
    19  H    0.162738
    20  H    0.160332
    21  C   -0.170348
    22  C   -0.219253
    23  C   -0.169858
    24  C    0.155592
    25  C   -0.176585
    26  C   -0.223162
    27  H    0.225483
    28  H    0.223251
    29  H    0.275408
    30  H    0.290202
    31  H    0.224383
    32  N    0.487364
    33  O   -0.463341
    34  O   -0.460123
 Sum of Mulliken charges =  -0.00000

 Dipole moment (field-independent basis, Debye):
    X=             -2.6733    Y=             -4.2942    Z=             -0.7800  Tot=              5.1181
 Quadrupole moment (field-independent basis, Debye-Ang):
   XX=            -74.5839   YY=            -97.6692   ZZ=            -95.5166
   XY=             10.1844   XZ=              2.7534   YZ=              0.0118

 Normal termination of Gaussian 16 at Thu May  6 04:26:17 2021.
