 Gaussian 16, Revision A.03,
 Gaussian 16:  EM64L-G16RevA.03 25-Dec-2016

 -------------
 #p 6-31g* mp2
 -------------

 ------------------------------------------------------
 Input file generated by CHIRIPA (05-May-2021 14:55:24)
 ------------------------------------------------------
 Symbolic Z-matrix:
 Charge =  0 Multiplicity = 1

                         Standard orientation:
 ---------------------------------------------------------------------
 Center     Atomic      Atomic             Coordinates (Angstroms)
 Number     Number       Type             X           Y           Z
 ---------------------------------------------------------------------
      1          6           0        1.029814   -2.706508   -1.088242
      2          6           0        0.779584   -2.554692    0.279551
      3          6           0        1.180220   -1.395290    0.950242
      4          6           0        1.831661   -0.403305    0.218887
      5          6           0        2.095364   -0.525049   -1.144539
      6          6           0        1.685749   -1.692989   -1.794676
      7          1           0        0.715102   -3.610476   -1.601268
      8          1           0        0.270369   -3.340157    0.830722
      9          1           0        0.999201   -1.251715    2.008560
     10          1           0        2.605005    0.275299   -1.667156
     11          1           0        1.881411   -1.808162   -2.856983
     12          7           0        2.260550    0.828621    0.918037
     13          8           0        2.832756    1.687907    0.251071
     14          8           0        2.016385    0.911592    2.119760
     15          6           0       -2.830192    0.401900    0.201162
     16          6           0       -2.717102   -1.118125    0.079830
     17          6           0       -3.877033   -1.852788    0.752603
     18          1           0       -2.872721    0.676358    1.264086
     19          1           0       -3.780045    0.728643   -0.244274
     20          1           0       -1.767113   -1.441758    0.524125
     21          1           0       -2.674645   -1.388983   -0.982926
     22          1           0       -4.831395   -1.558479    0.304076
     23          1           0       -3.918706   -1.611555    1.819688
     24          1           0       -3.776118   -2.938107    0.653826
     25          6           0       -1.677905    1.150335   -0.466526
     26          6           0       -1.790995    2.670360   -0.345194
     27          6           0       -0.631064    3.405022   -1.017967
     28          1           0       -0.728052    0.823591   -0.021090
     29          1           0       -1.635377    0.875876   -1.529450
     30          1           0       -1.833453    2.941217    0.717561
     31          1           0       -2.740985    2.993993   -0.789489
     32          1           0       -0.589390    3.163789   -2.085053
     33          1           0        0.323298    3.110714   -0.569439
     34          1           0       -0.731979    4.490341   -0.919190
 ---------------------------------------------------------------------

 SCF Done:  E(RHF) =  -669.533860095     A.U. after   15 cycles
 E2 =    -0.2096792044D+01 EUMP2 =    -0.67163065213963D+03

 The electronic state is 1-A.
 Alpha  occ. eigenvalues --  -20.61007 -20.60997 -15.86013 -11.31288 -11.27857
 Alpha  occ. eigenvalues --  -11.27854 -11.27597 -11.26883 -11.26871 -11.21641
 Alpha  occ. eigenvalues --  -11.21321 -11.21314 -11.21195 -11.21132 -11.20424
 Alpha  occ. eigenvalues --   -1.60060  -1.39614  -1.19499  -1.08902  -1.08301
 Alpha  occ. eigenvalues --   -1.04895  -1.03371  -0.95818  -0.95740  -0.86835
 Alpha  occ. eigenvalues --   -0.86284  -0.82583  -0.79460  -0.78130  -0.77628
 Alpha  occ. eigenvalues --   -0.72239  -0.71393  -0.70587  -0.65151  -0.64981
 Alpha  occ. eigenvalues --   -0.64859  -0.62234  -0.60772  -0.59250  -0.57434
 Alpha  occ. eigenvalues --   -0.55379  -0.55125  -0.53365  -0.52972  -0.52474
 Alpha  occ. eigenvalues --   -0.52243  -0.49790  -0.49008  -0.48999  -0.47785
 Alpha  occ. eigenvalues --   -0.46530  -0.45595  -0.45503  -0.44947  -0.43621
 Alpha  occ. eigenvalues --   -0.37382  -0.36356
 Alpha virt. eigenvalues --    0.04837   0.11091   0.16251   0.21049   0.23039
 Alpha virt. eigenvalues --    0.24218   0.26475   0.27196   0.27757   0.28057
 Alpha virt. eigenvalues --    0.28338   0.30576   0.31576   0.31889   0.32447

 Mulliken charges:
               1
     1  C   -0.169366
     2  C   -0.215437
     3  C   -0.174065
     4  C    0.157936
     5  C   -0.170481
     6  C   -0.217215
     7  H    0.226365
     8  H    0.225062
     9  H    0.275740
    10  H    0.276364
    11  H    0.224098
    12  N    0.490292
    13  O   -0.458738
    14  O   -0.459075
    15  C   -0.297815
    16  C   -0.304200
    17  C   -0.475325
    18  H    0.151067
    19  H    0.148996
    20  H    0.154449
    21  H    0.147900
    22  H    0.156660
    23  H    0.155668
    24  H    0.154050
    25  C   -0.300368
    26  C   -0.299732
    27  C   -0.482651
    28  H    0.150591
    29  H    0.145841
    30  H    0.155544
    31  H    0.148933
    32  H    0.148704
    33  H    0.169539
    34  H    0.160671
 Sum of Mulliken charges =  -0.00000

 Dipole moment (field-independent basis, Debye):
    X=             -1.2861    Y=             -4.3402    Z=             -2.4316  Tot=              5.1385
 Quadrupole moment (field-independent basis, Debye-Ang):
   XX=           -101.0232   YY=            -91.5781   ZZ=            -91.8060
   XY=             -7.2500   XZ=             -6.0679   YZ=             -1.0974

 Normal termination of Gaussian 16 at Wed May  5 19:08:56 2021.
