 Gaussian 16, Revision A.03,
 Gaussian 16:  EM64L-G16RevA.03 25-Dec-2016

 -------------
 #p 6-31g* mp2
 -------------

 ------------------------------------------------------
 Input file generated by CHIRIPA (05-May-2021 14:57:25)
 ------------------------------------------------------
 Symbolic Z-matrix:
 Charge =  0 Multiplicity = 1

                         Standard orientation:
 ---------------------------------------------------------------------
 Center     Atomic      Atomic             Coordinates (Angstroms)
 Number     Number       Type             X           Y           Z
 ---------------------------------------------------------------------
      1          6           0        1.915497   -0.863741    1.668999
      2          6           0        1.671552   -0.813822    0.292583
      3          6           0        2.686005   -0.443601   -0.595318
      4          6           0        3.938179   -0.128308   -0.070019
      5          6           0        4.212273   -0.168638    1.296193
      6          6           0        3.182845   -0.541558    2.165536
      7          1           0        1.121629   -1.152386    2.351534
      8          1           0        0.688286   -1.063507   -0.095862
      9          1           0        2.524544   -0.396657   -1.665433
     10          1           0        5.202690    0.085820    1.653606
     11          1           0        3.375167   -0.579456    3.234002
     12          7           0        5.020062    0.265057   -1.000177
     13          8           0        6.114577    0.538135   -0.512220
     14          8           0        4.753041    0.292850   -2.199578
     15          6           0       -2.764384    2.467763    0.365062
     16          6           0       -1.944548    1.334498    0.354935
     17          6           0       -2.485273    0.069187    0.107646
     18          6           0       -3.856112   -0.026762   -0.126627
     19          6           0       -4.699039    1.083531   -0.123140
     20          6           0       -4.136594    2.338889    0.126414
     21          1           0       -2.335899    3.446822    0.558042
     22          1           0       -0.878533    1.431583    0.539948
     23          1           0       -1.873618   -0.824742    0.093978
     24          1           0       -5.758118    0.955128   -0.310981
     25          1           0       -4.775703    3.217259    0.133669
     26          7           0       -4.440051   -1.361023   -0.389619
     27          8           0       -5.650783   -1.418856   -0.593134
     28          8           0       -3.675952   -2.323720   -0.387258
 ---------------------------------------------------------------------

 SCF Done:  E(RHF) =  -868.337404287     A.U. after   16 cycles
 E2 =    -0.2600043301D+01 EUMP2 =    -0.87093744758799D+03

 The electronic state is 1-A.
 Alpha  occ. eigenvalues --  -20.61388 -20.61368 -20.61202 -20.61197 -15.86435
 Alpha  occ. eigenvalues --  -15.86262 -11.31859 -11.31748 -11.28525 -11.28374
 Alpha  occ. eigenvalues --  -11.28355 -11.28330 -11.28140 -11.28092 -11.27468
 Alpha  occ. eigenvalues --  -11.27432 -11.27368 -11.27337  -1.60453  -1.60276
 Alpha  occ. eigenvalues --   -1.40007  -1.39825  -1.20012  -1.19954  -1.09378
 Alpha  occ. eigenvalues --   -1.09328  -1.05451  -1.05361  -0.96219  -0.96131
 Alpha  occ. eigenvalues --   -0.86815  -0.86775  -0.83067  -0.82951  -0.78150
 Alpha  occ. eigenvalues --   -0.77953  -0.72650  -0.72476  -0.71776  -0.71603
 Alpha  occ. eigenvalues --   -0.71127  -0.71034  -0.65689  -0.65603  -0.65441
 Alpha  occ. eigenvalues --   -0.65371  -0.62951  -0.62536  -0.55908  -0.55841
 Alpha  occ. eigenvalues --   -0.53747  -0.53740  -0.53528  -0.53396  -0.49417
 Alpha  occ. eigenvalues --   -0.49400  -0.49246  -0.49222  -0.45401  -0.45203
 Alpha  occ. eigenvalues --   -0.37956  -0.37948  -0.37048  -0.36975
 Alpha virt. eigenvalues --    0.04424   0.04569   0.10521   0.10623   0.15885
 Alpha virt. eigenvalues --    0.16049   0.18408   0.21867   0.24548   0.27208
 Alpha virt. eigenvalues --    0.27716   0.29133   0.29791   0.30918   0.31562

 Mulliken charges:
               1
     1  C   -0.174057
     2  C   -0.228244
     3  C   -0.171466
     4  C    0.158675
     5  C   -0.169835
     6  C   -0.218736
     7  H    0.228063
     8  H    0.225447
     9  H    0.278922
    10  H    0.277701
    11  H    0.225934
    12  N    0.487921
    13  O   -0.458961
    14  O   -0.458791
    15  C   -0.170550
    16  C   -0.221694
    17  C   -0.179514
    18  C    0.161660
    19  C   -0.170155
    20  C   -0.217755
    21  H    0.228748
    22  H    0.225430
    23  H    0.268970
    24  H    0.277690
    25  H    0.226244
    26  N    0.488163
    27  O   -0.457208
    28  O   -0.462602
 Sum of Mulliken charges =  -0.00000

 Dipole moment (field-independent basis, Debye):
    X=             -1.7208    Y=              3.4273    Z=              4.2161  Tot=              5.6993
 Quadrupole moment (field-independent basis, Debye-Ang):
   XX=           -143.4865   YY=           -104.8101   ZZ=           -103.3754
   XY=            -25.5143   XZ=             12.8091   YZ=             -0.6943

 Normal termination of Gaussian 16 at Thu May  6 06:44:23 2021.
