 Gaussian 16, Revision A.03,
 Gaussian 16:  EM64L-G16RevA.03 25-Dec-2016

 -------------
 #p 6-31g* mp2
 -------------

 ------------------------------------------------------
 Input file generated by CHIRIPA (05-May-2021 14:53:12)
 ------------------------------------------------------
 Symbolic Z-matrix:
 Charge =  0 Multiplicity = 1

                         Standard orientation:
 ---------------------------------------------------------------------
 Center     Atomic      Atomic             Coordinates (Angstroms)
 Number     Number       Type             X           Y           Z
 ---------------------------------------------------------------------
      1          6           0       -2.675534    1.337592   -0.204058
      2          6           0       -1.207237    1.714198   -0.404702
      3          6           0       -0.991659    3.225149   -0.496074
      4          1           0       -3.268615    1.744474   -1.034507
      5          1           0       -3.048328    1.818102    0.711109
      6          1           0       -0.836936    1.232003   -1.318475
      7          1           0       -0.617554    1.306208    0.426221
      8          1           0       -1.334487    3.719220    0.418783
      9          1           0       -1.555116    3.644593   -1.335826
     10          1           0        0.064930    3.471985   -0.639430
     11          6           0       -2.907109   -0.169528   -0.110838
     12          6           0       -4.375405   -0.546134    0.089807
     13          6           0       -4.590984   -2.057085    0.181178
     14          1           0       -2.534315   -0.650038   -1.026004
     15          1           0       -2.314027   -0.576411    0.719611
     16          1           0       -4.965089   -0.138144   -0.741116
     17          1           0       -4.745707   -0.063939    1.003580
     18          1           0       -4.027527   -2.476529    1.020931
     19          1           0       -4.248156   -2.551156   -0.733679
     20          1           0       -5.647573   -2.303921    0.324535
     21          6           0        2.488549    2.003878    0.590780
     22          6           0        1.926324    1.171271    1.564016
     23          6           0        1.751036   -0.193350    1.315760
     24          6           0        2.150959   -0.694114    0.077783
     25          6           0        2.714127    0.109754   -0.912130
     26          6           0        2.879966    1.471400   -0.642014
     27          1           0        2.621046    3.062794    0.792122
     28          1           0        1.621423    1.582047    2.522319
     29          1           0        1.318435   -0.860586    2.051336
     30          1           0        3.008374   -0.328729   -1.857948
     31          1           0        3.316876    2.115639   -1.399716
     32          7           0        1.970392   -2.137203   -0.196606
     33          8           0        2.330910   -2.553892   -1.295257
     34          8           0        1.471765   -2.824281    0.692174
 ---------------------------------------------------------------------

 SCF Done:  E(RHF) =  -669.534067696     A.U. after   15 cycles
 E2 =    -0.2094831919D+01 EUMP2 =    -0.67162889961514D+03

 The electronic state is 1-A.
 Alpha  occ. eigenvalues --  -20.60821 -20.60816 -15.85876 -11.31269 -11.27854
 Alpha  occ. eigenvalues --  -11.27830 -11.27578 -11.26878 -11.26836 -11.21548
 Alpha  occ. eigenvalues --  -11.21466 -11.21390 -11.21377 -11.21263 -11.20805
 Alpha  occ. eigenvalues --   -1.59895  -1.39448  -1.19459  -1.08849  -1.08388
 Alpha  occ. eigenvalues --   -1.04874  -1.03505  -0.95985  -0.95665  -0.86994
 Alpha  occ. eigenvalues --   -0.86260  -0.82506  -0.79577  -0.78195  -0.77544
 Alpha  occ. eigenvalues --   -0.72095  -0.71215  -0.70562  -0.65109  -0.65048
 Alpha  occ. eigenvalues --   -0.64865  -0.62211  -0.60941  -0.59433  -0.57631
 Alpha  occ. eigenvalues --   -0.55365  -0.55279  -0.53231  -0.52954  -0.52584
 Alpha  occ. eigenvalues --   -0.52397  -0.49912  -0.48855  -0.48847  -0.47854
 Alpha  occ. eigenvalues --   -0.46617  -0.45705  -0.45672  -0.44843  -0.43767
 Alpha  occ. eigenvalues --   -0.37380  -0.36357
 Alpha virt. eigenvalues --    0.04962   0.11098   0.16383   0.20974   0.23006
 Alpha virt. eigenvalues --    0.24344   0.26473   0.27047   0.27449   0.27655
 Alpha virt. eigenvalues --    0.28700   0.30575   0.31477   0.32034   0.32110

 Mulliken charges:
               1
     1  C   -0.297657
     2  C   -0.304102
     3  C   -0.475956
     4  H    0.148968
     5  H    0.146402
     6  H    0.151990
     7  H    0.158062
     8  H    0.151325
     9  H    0.156179
    10  H    0.152257
    11  C   -0.298368
    12  C   -0.299680
    13  C   -0.475950
    14  H    0.152443
    15  H    0.149048
    16  H    0.151353
    17  H    0.149951
    18  H    0.157350
    19  H    0.157904
    20  H    0.159159
    21  C   -0.165966
    22  C   -0.220834
    23  C   -0.172187
    24  C    0.162988
    25  C   -0.170791
    26  C   -0.218066
    27  H    0.226694
    28  H    0.224202
    29  H    0.275698
    30  H    0.276012
    31  H    0.224146
    32  N    0.488054
    33  O   -0.460343
    34  O   -0.460286
 Sum of Mulliken charges =  -0.00000

 Dipole moment (field-independent basis, Debye):
    X=              0.7595    Y=              4.9504    Z=              0.9702  Tot=              5.1015
 Quadrupole moment (field-independent basis, Debye-Ang):
   XX=            -92.0622   YY=           -103.9357   ZZ=            -89.5201
   XY=             10.9524   XZ=              0.2932   YZ=             -0.6974

 Normal termination of Gaussian 16 at Thu May  6 07:16:16 2021.
