 Gaussian 16, Revision A.03,
 Gaussian 16:  EM64L-G16RevA.03 25-Dec-2016

 -------------
 #p 6-31g* mp2
 -------------

 ------------------------------------------------------
 Input file generated by CHIRIPA (05-May-2021 14:53:13)
 ------------------------------------------------------
 Symbolic Z-matrix:
 Charge =  0 Multiplicity = 1

                         Standard orientation:
 ---------------------------------------------------------------------
 Center     Atomic      Atomic             Coordinates (Angstroms)
 Number     Number       Type             X           Y           Z
 ---------------------------------------------------------------------
      1          6           0        4.154933   -0.702037   -0.094626
      2          6           0        2.869918   -0.513580    0.712346
      3          6           0        1.815063   -1.575645    0.400747
      4          1           0        3.914176   -0.678418   -1.166271
      5          1           0        4.566027   -1.699999    0.111455
      6          1           0        2.462113    0.484256    0.505864
      7          1           0        3.113790   -0.537459    1.782193
      8          1           0        2.198377   -2.576515    0.624200
      9          1           0        1.542998   -1.548995   -0.659381
     10          1           0        0.904746   -1.421937    0.988588
     11          6           0        5.219067    0.352035    0.205837
     12          6           0        6.504083    0.163578   -0.601136
     13          6           0        7.558937    1.225643   -0.289537
     14          1           0        4.807973    1.349996   -0.000244
     15          1           0        5.459825    0.328416    1.277482
     16          1           0        6.260211    0.187457   -1.670983
     17          1           0        6.911887   -0.834258   -0.394653
     18          1           0        7.831003    1.198993    0.770591
     19          1           0        7.175623    2.226513   -0.512990
     20          1           0        8.469255    1.071935   -0.877377
     21          6           0       -3.393355   -2.369285   -0.161111
     22          6           0       -2.286123   -1.558671    0.109922
     23          6           0       -2.423109   -0.168988    0.177483
     24          6           0       -3.687664    0.378991   -0.032065
     25          6           0       -4.809903   -0.401976   -0.304016
     26          6           0       -4.649498   -1.789373   -0.366853
     27          1           0       -3.277845   -3.447936   -0.211759
     28          1           0       -1.309380   -2.006281    0.270127
     29          1           0       -1.582758    0.482094    0.385621
     30          1           0       -5.770871    0.073269   -0.459267
     31          1           0       -5.511154   -2.416440   -0.577517
     32          7           0       -3.845081    1.848975    0.036958
     33          8           0       -4.969875    2.307225   -0.151412
     34          8           0       -2.840690    2.515067    0.278120
 ---------------------------------------------------------------------

 SCF Done:  E(RHF) =  -669.535574003     A.U. after   15 cycles
 E2 =    -0.2090911165D+01 EUMP2 =    -0.67162648516801D+03

 The electronic state is 1-A.
 Alpha  occ. eigenvalues --  -20.60719 -20.60714 -15.85771 -11.31120 -11.27687
 Alpha  occ. eigenvalues --  -11.27669 -11.27414 -11.26703 -11.26628 -11.22216
 Alpha  occ. eigenvalues --  -11.22074 -11.21827 -11.21816 -11.21651 -11.21215
 Alpha  occ. eigenvalues --   -1.59795  -1.39349  -1.19285  -1.08838  -1.08683
 Alpha  occ. eigenvalues --   -1.04685  -1.03996  -0.96478  -0.95523  -0.87510
 Alpha  occ. eigenvalues --   -0.86080  -0.82357  -0.80067  -0.78605  -0.77406
 Alpha  occ. eigenvalues --   -0.71990  -0.71118  -0.70397  -0.65459  -0.64937
 Alpha  occ. eigenvalues --   -0.64702  -0.62096  -0.61374  -0.59854  -0.58056
 Alpha  occ. eigenvalues --   -0.55750  -0.55189  -0.53334  -0.53021  -0.52897
 Alpha  occ. eigenvalues --   -0.52620  -0.50394  -0.48747  -0.48745  -0.48376
 Alpha  occ. eigenvalues --   -0.47064  -0.46161  -0.46051  -0.44759  -0.44237
 Alpha  occ. eigenvalues --   -0.37268  -0.36286
 Alpha virt. eigenvalues --    0.05121   0.11361   0.16604   0.20230   0.22616
 Alpha virt. eigenvalues --    0.23780   0.25927   0.26322   0.27002   0.28132
 Alpha virt. eigenvalues --    0.28913   0.29968   0.30930   0.31406   0.32327

 Mulliken charges:
               1
     1  C   -0.299327
     2  C   -0.299722
     3  C   -0.483239
     4  H    0.150702
     5  H    0.149653
     6  H    0.155884
     7  H    0.154909
     8  H    0.158546
     9  H    0.156997
    10  H    0.153008
    11  C   -0.299148
    12  C   -0.300012
    13  C   -0.476058
    14  H    0.152056
    15  H    0.150500
    16  H    0.152478
    17  H    0.151679
    18  H    0.155557
    19  H    0.156527
    20  H    0.160899
    21  C   -0.171705
    22  C   -0.224955
    23  C   -0.173502
    24  C    0.158743
    25  C   -0.171323
    26  C   -0.218431
    27  H    0.225773
    28  H    0.233192
    29  H    0.275273
    30  H    0.275290
    31  H    0.223041
    32  N    0.488134
    33  O   -0.460705
    34  O   -0.460715
 Sum of Mulliken charges =  -0.00000

 Dipole moment (field-independent basis, Debye):
    X=              0.7775    Y=             -5.1621    Z=             -0.2533  Tot=              5.2265
 Quadrupole moment (field-independent basis, Debye-Ang):
   XX=            -94.0317   YY=            -99.4327   ZZ=            -94.8945
   XY=             19.3245   XZ=              2.2374   YZ=             -0.3166

 Normal termination of Gaussian 16 at Thu May  6 13:42:13 2021.
