 Gaussian 16, Revision A.03,
 Gaussian 16:  EM64L-G16RevA.03 25-Dec-2016

 -------------
 #p 6-31g* mp2
 -------------

 ------------------------------------------------------
 Input file generated by CHIRIPA (05-May-2021 14:53:17)
 ------------------------------------------------------
 Symbolic Z-matrix:
 Charge =  0 Multiplicity = 1

                         Standard orientation:
 ---------------------------------------------------------------------
 Center     Atomic      Atomic             Coordinates (Angstroms)
 Number     Number       Type             X           Y           Z
 ---------------------------------------------------------------------
      1          6           0       -4.102675   -0.528836   -0.386174
      2          6           0       -4.807012   -1.706393    0.288550
      3          6           0       -5.069222   -2.867211   -0.671420
      4          1           0       -4.713807   -0.178458   -1.229203
      5          1           0       -3.151100   -0.875272   -0.812648
      6          1           0       -5.756329   -1.357536    0.714826
      7          1           0       -4.194225   -2.053886    1.130189
      8          1           0       -4.128868   -3.242823   -1.087654
      9          1           0       -5.699848   -2.542517   -1.505378
     10          1           0       -5.573427   -3.698180   -0.168303
     11          6           0       -3.833657    0.639427    0.560673
     12          6           0       -3.129321    1.816985   -0.114051
     13          6           0       -2.867111    2.977803    0.845919
     14          1           0       -4.785233    0.985864    0.987148
     15          1           0       -3.222526    0.289049    1.403703
     16          1           0       -3.742108    2.164478   -0.955690
     17          1           0       -2.180003    1.468128   -0.540327
     18          1           0       -2.236485    2.653109    1.679877
     19          1           0       -3.807465    3.353415    1.262154
     20          1           0       -2.362906    3.808772    0.342802
     21          6           0        1.491614    1.829272   -0.590128
     22          6           0        2.870846    2.050935   -0.661598
     23          6           0        3.771345    1.020769   -0.374528
     24          6           0        3.255635   -0.224223   -0.017702
     25          6           0        1.886923   -0.476236    0.062323
     26          6           0        1.004912    0.568617   -0.229033
     27          1           0        0.799266    2.635235   -0.814795
     28          1           0        3.251672    3.028956   -0.941756
     29          1           0        4.843908    1.164874   -0.422075
     30          1           0        1.537308   -1.461925    0.344468
     31          1           0       -0.065713    0.393588   -0.172713
     32          7           0        4.199167   -1.322589    0.288475
     33          8           0        3.719486   -2.410354    0.600416
     34          8           0        5.400521   -1.074922    0.210716
 ---------------------------------------------------------------------

 SCF Done:  E(RHF) =  -669.535463976     A.U. after   15 cycles
 E2 =    -0.2091360226D+01 EUMP2 =    -0.67162682420165D+03

 The electronic state is 1-A.
 Alpha  occ. eigenvalues --  -20.60751 -20.60746 -15.85805 -11.31167 -11.27739
 Alpha  occ. eigenvalues --  -11.27735 -11.27471 -11.26749 -11.26728 -11.22768
 Alpha  occ. eigenvalues --  -11.22302 -11.22209 -11.22148 -11.22116 -11.21529
 Alpha  occ. eigenvalues --   -1.59827  -1.39381  -1.19340  -1.09300  -1.08733
 Alpha  occ. eigenvalues --   -1.04746  -1.04358  -0.96783  -0.95569  -0.87798
 Alpha  occ. eigenvalues --   -0.86146  -0.82403  -0.80446  -0.79077  -0.77453
 Alpha  occ. eigenvalues --   -0.72024  -0.71150  -0.70445  -0.66009  -0.64991
 Alpha  occ. eigenvalues --   -0.64731  -0.62170  -0.61672  -0.60176  -0.58389
 Alpha  occ. eigenvalues --   -0.56061  -0.55237  -0.53481  -0.53198  -0.53072
 Alpha  occ. eigenvalues --   -0.52850  -0.50721  -0.48814  -0.48779  -0.48707
 Alpha  occ. eigenvalues --   -0.47488  -0.46606  -0.46530  -0.44787  -0.44612
 Alpha  occ. eigenvalues --   -0.37317  -0.36349
 Alpha virt. eigenvalues --    0.05086   0.11292   0.16578   0.18328   0.22510
 Alpha virt. eigenvalues --    0.23796   0.24830   0.26137   0.26454   0.28489
 Alpha virt. eigenvalues --    0.29045   0.30080   0.30995   0.31443   0.32009

 Mulliken charges:
               1
     1  C   -0.298429
     2  C   -0.300410
     3  C   -0.476228
     4  H    0.152266
     5  H    0.144876
     6  H    0.153843
     7  H    0.152828
     8  H    0.155831
     9  H    0.156061
    10  H    0.162948
    11  C   -0.299936
    12  C   -0.303818
    13  C   -0.477283
    14  H    0.154213
    15  H    0.149636
    16  H    0.157244
    17  H    0.141661
    18  H    0.156973
    19  H    0.161105
    20  H    0.157414
    21  C   -0.172736
    22  C   -0.218596
    23  C   -0.171162
    24  C    0.158903
    25  C   -0.171641
    26  C   -0.224765
    27  H    0.226633
    28  H    0.223414
    29  H    0.275554
    30  H    0.275612
    31  H    0.231036
    32  N    0.487950
    33  O   -0.460551
    34  O   -0.460449
 Sum of Mulliken charges =  -0.00000

 Dipole moment (field-independent basis, Debye):
    X=             -3.5674    Y=              3.8711    Z=             -1.0381  Tot=              5.3656
 Quadrupole moment (field-independent basis, Debye-Ang):
   XX=           -111.7587   YY=            -95.4485   ZZ=            -95.6537
   XY=             15.5693   XZ=             -4.3426   YZ=             -1.0377

 Normal termination of Gaussian 16 at Thu May  6 09:08:12 2021.
