 Gaussian 16, Revision A.03,
 Gaussian 16:  EM64L-G16RevA.03 25-Dec-2016

 -------------
 #p 6-31g* mp2
 -------------

 ------------------------------------------------------
 Input file generated by CHIRIPA (05-May-2021 14:57:22)
 ------------------------------------------------------
 Symbolic Z-matrix:
 Charge =  0 Multiplicity = 1

                         Standard orientation:
 ---------------------------------------------------------------------
 Center     Atomic      Atomic             Coordinates (Angstroms)
 Number     Number       Type             X           Y           Z
 ---------------------------------------------------------------------
      1          6           0       -1.553603    2.212284    0.071184
      2          6           0       -1.197052    1.237066   -0.866016
      3          6           0       -2.011572    0.119808   -1.072995
      4          6           0       -3.180813    0.009140   -0.322050
      5          6           0       -3.563206    0.963815    0.619045
      6          6           0       -2.733462    2.072791    0.809422
      7          1           0       -0.914951    3.076980    0.225522
      8          1           0       -0.281338    1.342779   -1.440767
      9          1           0       -1.759501   -0.650136   -1.792067
     10          1           0       -4.482157    0.830844    1.176958
     11          1           0       -3.012876    2.828590    1.537942
     12          7           0       -4.051167   -1.169268   -0.532381
     13          8           0       -5.076102   -1.243473    0.141889
     14          8           0       -3.691937   -1.996385   -1.367527
     15          6           0        4.840800    0.159478   -1.439435
     16          6           0        3.891179    1.157854   -1.198633
     17          6           0        2.887472    0.967704   -0.244189
     18          6           0        2.863019   -0.238433    0.454328
     19          6           0        3.794934   -1.252157    0.237103
     20          6           0        4.789736   -1.040226   -0.722064
     21          1           0        5.617045    0.315652   -2.182705
     22          1           0        3.928391    2.090563   -1.754254
     23          1           0        2.139763    1.723833   -0.037745
     24          1           0        3.732088   -2.171362    0.806780
     25          1           0        5.525910   -1.817338   -0.906975
     26          7           0        1.805152   -0.451266    1.467255
     27          8           0        1.805349   -1.522795    2.069304
     28          8           0        0.995831    0.457475    1.639958
 ---------------------------------------------------------------------

 SCF Done:  E(RHF) =  -868.336718508     A.U. after   16 cycles
 E2 =    -0.2601617131D+01 EUMP2 =    -0.87093833563916D+03

 The electronic state is 1-A.
 Alpha  occ. eigenvalues --  -20.61316 -20.61302 -20.60110 -20.60102 -15.86346
 Alpha  occ. eigenvalues --  -15.85162 -11.31845 -11.30405 -11.28499 -11.28337
 Alpha  occ. eigenvalues --  -11.28108 -11.27480 -11.27373 -11.27019 -11.26973
 Alpha  occ. eigenvalues --  -11.26762 -11.26071 -11.25958  -1.60375  -1.59184
 Alpha  occ. eigenvalues --   -1.39930  -1.38743  -1.20007  -1.18574  -1.09365
 Alpha  occ. eigenvalues --   -1.08001  -1.05431  -1.03998  -0.96192  -0.94861
 Alpha  occ. eigenvalues --   -0.86816  -0.85424  -0.83026  -0.81721  -0.78077
 Alpha  occ. eigenvalues --   -0.76777  -0.72583  -0.71703  -0.71393  -0.71101
 Alpha  occ. eigenvalues --   -0.70497  -0.69749  -0.65654  -0.65431  -0.64269
 Alpha  occ. eigenvalues --   -0.64080  -0.62777  -0.61383  -0.55887  -0.54551
 Alpha  occ. eigenvalues --   -0.53744  -0.53519  -0.52265  -0.52139  -0.49359
 Alpha  occ. eigenvalues --   -0.49312  -0.48147  -0.48139  -0.45305  -0.44178
 Alpha  occ. eigenvalues --   -0.37963  -0.37042  -0.36444  -0.35538
 Alpha virt. eigenvalues --    0.04444   0.05797   0.10522   0.12097   0.15962
 Alpha virt. eigenvalues --    0.17306   0.19956   0.22013   0.25927   0.27227
 Alpha virt. eigenvalues --    0.28099   0.28996   0.30753   0.31220   0.32150

 Mulliken charges:
               1
     1  C   -0.154786
     2  C   -0.209448
     3  C   -0.171945
     4  C    0.160087
     5  C   -0.169088
     6  C   -0.216358
     7  H    0.218543
     8  H    0.210891
     9  H    0.271607
    10  H    0.273933
    11  H    0.221538
    12  N    0.488458
    13  O   -0.461649
    14  O   -0.463262
    15  C   -0.170690
    16  C   -0.218619
    17  C   -0.175558
    18  C    0.159861
    19  C   -0.170199
    20  C   -0.217522
    21  H    0.227878
    22  H    0.222999
    23  H    0.267114
    24  H    0.278736
    25  H    0.226603
    26  N    0.489086
    27  O   -0.455941
    28  O   -0.462268
 Sum of Mulliken charges =  -0.00000

 Dipole moment (field-independent basis, Debye):
    X=              7.0030    Y=              4.7811    Z=             -2.6314  Tot=              8.8784
 Quadrupole moment (field-independent basis, Debye-Ang):
   XX=           -100.8420   YY=           -101.2182   ZZ=           -107.1842
   XY=            -15.7538   XZ=            -14.5769   YZ=              0.2862

 Normal termination of Gaussian 16 at Fri May  7 01:47:53 2021.
