 Gaussian 16, Revision A.03,
 Gaussian 16:  EM64L-G16RevA.03 25-Dec-2016

 -------------
 #p 6-31g* mp2
 -------------

 ------------------------------------------------------
 Input file generated by CHIRIPA (05-May-2021 14:53:16)
 ------------------------------------------------------
 Symbolic Z-matrix:
 Charge =  0 Multiplicity = 1

                         Standard orientation:
 ---------------------------------------------------------------------
 Center     Atomic      Atomic             Coordinates (Angstroms)
 Number     Number       Type             X           Y           Z
 ---------------------------------------------------------------------
      1          6           0        2.822954    0.613624    0.034767
      2          6           0        2.994459    2.132993    0.025310
      3          6           0        1.675876    2.878056    0.235105
      4          1           0        2.109204    0.326685   -0.749562
      5          1           0        2.376154    0.307996    0.990987
      6          1           0        3.442079    2.435522   -0.930057
      7          1           0        3.708029    2.416331    0.809627
      8          1           0        1.227735    2.604970    1.195935
      9          1           0        0.960275    2.624271   -0.553634
     10          1           0        1.821603    3.962730    0.224793
     11          6           0        4.132344   -0.145148   -0.173773
     12          6           0        3.960840   -1.664517   -0.164316
     13          6           0        5.279422   -2.409581   -0.374110
     14          1           0        4.579144    0.160480   -1.129993
     15          1           0        4.846094    0.141791    0.610556
     16          1           0        3.247269   -1.947855   -0.948633
     17          1           0        3.513219   -1.967047    0.791052
     18          1           0        5.995024   -2.155795    0.414628
     19          1           0        5.727563   -2.136494   -1.334941
     20          1           0        5.133695   -3.494254   -0.363798
     21          6           0       -3.166843   -2.660619    0.212039
     22          6           0       -3.840631   -1.885895   -0.737873
     23          6           0       -3.599245   -0.512217   -0.834254
     24          6           0       -2.673416    0.056528    0.039050
     25          6           0       -1.986186   -0.688619    0.996002
     26          6           0       -2.243399   -2.060566    1.074424
     27          1           0       -3.360504   -3.727053    0.279934
     28          1           0       -4.558324   -2.349212   -1.408916
     29          1           0       -4.106824    0.111134   -1.560350
     30          1           0       -1.276386   -0.198400    1.651202
     31          1           0       -1.718654   -2.659756    1.813113
     32          7           0       -2.409494    1.509865   -0.053478
     33          8           0       -1.589082    1.986985    0.727493
     34          8           0       -3.028041    2.144348   -0.905222
 ---------------------------------------------------------------------

 SCF Done:  E(RHF) =  -669.535392720     A.U. after   15 cycles
 E2 =    -0.2091577753D+01 EUMP2 =    -0.67162697047219D+03

 The electronic state is 1-A.
 Alpha  occ. eigenvalues --  -20.60855 -20.60821 -15.85871 -11.31227 -11.27796
 Alpha  occ. eigenvalues --  -11.27792 -11.27537 -11.26809 -11.26798 -11.21550
 Alpha  occ. eigenvalues --  -11.21141 -11.21053 -11.20984 -11.20821 -11.19711
 Alpha  occ. eigenvalues --   -1.59908  -1.39463  -1.19399  -1.08798  -1.08062
 Alpha  occ. eigenvalues --   -1.04799  -1.03036  -0.95650  -0.95430  -0.86453
 Alpha  occ. eigenvalues --   -0.86197  -0.82471  -0.79138  -0.77850  -0.77500
 Alpha  occ. eigenvalues --   -0.72098  -0.71229  -0.70508  -0.65055  -0.64804
 Alpha  occ. eigenvalues --   -0.64705  -0.62147  -0.60439  -0.58914  -0.57050
 Alpha  occ. eigenvalues --   -0.55304  -0.54724  -0.53133  -0.52893  -0.52127
 Alpha  occ. eigenvalues --   -0.51851  -0.49400  -0.48860  -0.48851  -0.47424
 Alpha  occ. eigenvalues --   -0.46200  -0.45457  -0.45285  -0.44672  -0.43312
 Alpha  occ. eigenvalues --   -0.37379  -0.36401
 Alpha virt. eigenvalues --    0.05000   0.11247   0.16482   0.21217   0.23119
 Alpha virt. eigenvalues --    0.24614   0.26471   0.27325   0.27651   0.28328
 Alpha virt. eigenvalues --    0.28935   0.30878   0.31694   0.32064   0.32554

 Mulliken charges:
               1
     1  C   -0.295631
     2  C   -0.302048
     3  C   -0.469759
     4  H    0.148044
     5  H    0.143955
     6  H    0.148971
     7  H    0.148018
     8  H    0.161883
     9  H    0.161163
    10  H    0.156752
    11  C   -0.297584
    12  C   -0.298713
    13  C   -0.475275
    14  H    0.149896
    15  H    0.149292
    16  H    0.150607
    17  H    0.147945
    18  H    0.155366
    19  H    0.155853
    20  H    0.158027
    21  C   -0.170735
    22  C   -0.218593
    23  C   -0.171028
    24  C    0.157871
    25  C   -0.170141
    26  C   -0.218376
    27  H    0.225770
    28  H    0.223542
    29  H    0.275633
    30  H    0.275565
    31  H    0.223708
    32  N    0.489397
    33  O   -0.459082
    34  O   -0.460294
 Sum of Mulliken charges =  -0.00000

 Dipole moment (field-independent basis, Debye):
    X=             -1.1259    Y=             -5.0241    Z=              0.3357  Tot=              5.1597
 Quadrupole moment (field-independent basis, Debye-Ang):
   XX=            -89.5021   YY=            -96.3215   ZZ=            -91.3232
   XY=             14.1666   XZ=              2.2319   YZ=             -0.5656

 Normal termination of Gaussian 16 at Thu May  6 02:45:36 2021.
