 Gaussian 16, Revision A.03,
 Gaussian 16:  EM64L-G16RevA.03 25-Dec-2016

 -------------
 #p 6-31g* mp2
 -------------

 ------------------------------------------------------
 Input file generated by CHIRIPA (05-May-2021 14:53:14)
 ------------------------------------------------------
 Symbolic Z-matrix:
 Charge =  0 Multiplicity = 1

                         Standard orientation:
 ---------------------------------------------------------------------
 Center     Atomic      Atomic             Coordinates (Angstroms)
 Number     Number       Type             X           Y           Z
 ---------------------------------------------------------------------
      1          6           0        2.606831    0.641801    0.187216
      2          6           0        2.689912    2.071074    0.724116
      3          6           0        1.316393    2.666558    1.034981
      4          1           0        1.987943    0.633252   -0.720446
      5          1           0        2.090534    0.010387    0.923524
      6          1           0        3.207125    2.699305   -0.012384
      7          1           0        3.308832    2.076252    1.630497
      8          1           0        0.796439    2.063959    1.786728
      9          1           0        0.694154    2.690551    0.134511
     10          1           0        1.399187    3.688662    1.417482
     11          6           0        3.971893    0.032846   -0.128234
     12          6           0        3.888812   -1.396427   -0.665133
     13          6           0        5.262331   -1.991911   -0.975998
     14          1           0        4.488190    0.664259   -0.864542
     15          1           0        4.590780    0.041395    0.779428
     16          1           0        3.269892   -1.401605   -1.571515
     17          1           0        3.371599   -2.024658    0.071367
     18          1           0        5.884569   -2.015905   -0.075529
     19          1           0        5.782285   -1.389312   -1.727746
     20          1           0        5.179537   -3.014016   -1.358500
     21          6           0       -2.403862   -2.497392    1.138105
     22          6           0       -3.148901   -2.374110   -0.039282
     23          6           0       -3.247778   -1.141282   -0.691130
     24          6           0       -2.585857   -0.047573   -0.135295
     25          6           0       -1.835932   -0.138489    1.036300
     26          6           0       -1.750908   -1.381157    1.671199
     27          1           0       -2.332433   -3.458904    1.637894
     28          1           0       -3.657045   -3.239288   -0.455574
     29          1           0       -3.817833   -1.017681   -1.603915
     30          1           0       -1.340465    0.741920    1.427208
     31          1           0       -1.171596   -1.473948    2.585439
     32          7           0       -2.683202    1.262776   -0.816406
     33          8           0       -2.090698    2.211175   -0.306392
     34          8           0       -3.350161    1.316615   -1.847378
 ---------------------------------------------------------------------

 SCF Done:  E(RHF) =  -669.535717993     A.U. after   15 cycles
 E2 =    -0.2092070158D+01 EUMP2 =    -0.67162778815077D+03

 The electronic state is 1-A.
 Alpha  occ. eigenvalues --  -20.60834 -20.60825 -15.85866 -11.31180 -11.27763
 Alpha  occ. eigenvalues --  -11.27723 -11.27503 -11.26768 -11.26756 -11.21672
 Alpha  occ. eigenvalues --  -11.21407 -11.21378 -11.21316 -11.21146 -11.20619
 Alpha  occ. eigenvalues --   -1.59900  -1.39454  -1.19358  -1.08766  -1.08382
 Alpha  occ. eigenvalues --   -1.04756  -1.03431  -0.95873  -0.95599  -0.86879
 Alpha  occ. eigenvalues --   -0.86155  -0.82442  -0.79504  -0.78214  -0.77471
 Alpha  occ. eigenvalues --   -0.72092  -0.71216  -0.70474  -0.65046  -0.64989
 Alpha  occ. eigenvalues --   -0.64766  -0.62121  -0.60821  -0.59252  -0.57479
 Alpha  occ. eigenvalues --   -0.55293  -0.55127  -0.53087  -0.52887  -0.52538
 Alpha  occ. eigenvalues --   -0.52247  -0.49814  -0.48856  -0.48845  -0.47785
 Alpha  occ. eigenvalues --   -0.46543  -0.45745  -0.45675  -0.44792  -0.43694
 Alpha  occ. eigenvalues --   -0.37342  -0.36348
 Alpha virt. eigenvalues --    0.05000   0.11281   0.16452   0.20722   0.22951
 Alpha virt. eigenvalues --    0.24104   0.25829   0.26978   0.27518   0.27867
 Alpha virt. eigenvalues --    0.29401   0.30837   0.31466   0.31861   0.32248

 Mulliken charges:
               1
     1  C   -0.297262
     2  C   -0.300490
     3  C   -0.480780
     4  H    0.152785
     5  H    0.141359
     6  H    0.153819
     7  H    0.148610
     8  H    0.139260
     9  H    0.179592
    10  H    0.161739
    11  C   -0.298110
    12  C   -0.299084
    13  C   -0.475613
    14  H    0.151294
    15  H    0.148605
    16  H    0.153005
    17  H    0.148479
    18  H    0.154655
    19  H    0.156394
    20  H    0.159331
    21  C   -0.170255
    22  C   -0.218938
    23  C   -0.170343
    24  C    0.156185
    25  C   -0.173639
    26  C   -0.220799
    27  H    0.225575
    28  H    0.223378
    29  H    0.275424
    30  H    0.284878
    31  H    0.223193
    32  N    0.488352
    33  O   -0.460678
    34  O   -0.459924
 Sum of Mulliken charges =  -0.00000

 Dipole moment (field-independent basis, Debye):
    X=              0.2712    Y=             -4.5066    Z=              2.2677  Tot=              5.0523
 Quadrupole moment (field-independent basis, Debye-Ang):
   XX=            -96.5021   YY=            -93.8556   ZZ=            -92.6601
   XY=             14.0488   XZ=             -3.8602   YZ=              1.4144

 Normal termination of Gaussian 16 at Wed May  5 17:06:42 2021.
