 Gaussian 16, Revision A.03,
 Gaussian 16:  EM64L-G16RevA.03 25-Dec-2016

 -------------
 #p 6-31g* mp2
 -------------

 ------------------------------------------------------
 Input file generated by CHIRIPA (05-May-2021 14:51:12)
 ------------------------------------------------------
 Symbolic Z-matrix:
 Charge =  0 Multiplicity = 1

                         Standard orientation:
 ---------------------------------------------------------------------
 Center     Atomic      Atomic             Coordinates (Angstroms)
 Number     Number       Type             X           Y           Z
 ---------------------------------------------------------------------
      1          6           0        3.206617    0.419812   -0.239921
      2          6           0        2.970833   -1.083304   -0.088153
      3          6           0        4.191055   -1.915896   -0.482666
      4          1           0        3.480253    0.638293   -1.281235
      5          1           0        4.066964    0.713121    0.377468
      6          1           0        2.110329   -1.373445   -0.704568
      7          1           0        2.697539   -1.298207    0.952877
      8          1           0        5.053035   -1.655036    0.139865
      9          1           0        4.462488   -1.730702   -1.526997
     10          1           0        4.000548   -2.987381   -0.366533
     11          6           0        1.995803    1.265447    0.150667
     12          6           0        2.231587    2.768562   -0.001101
     13          6           0        1.011365    3.601155    0.393412
     14          1           0        1.135456    0.972138   -0.466722
     15          1           0        1.722167    1.046965    1.191981
     16          1           0        2.504881    2.983465   -1.042131
     17          1           0        3.092091    3.058704    0.615314
     18          1           0        0.739932    3.415961    1.437743
     19          1           0        0.149386    3.340295   -0.229119
     20          1           0        1.201872    4.672640    0.277279
     21          6           0       -2.056333   -1.156726    0.478082
     22          6           0       -1.352729   -2.336806   -0.192990
     23          6           0       -0.265276   -2.954567    0.686563
     24          1           0       -1.311139   -0.391223    0.734278
     25          1           0       -2.497666   -1.493094    1.426490
     26          1           0       -0.914039   -1.998639   -1.140518
     27          1           0       -2.099710   -3.099507   -0.447791
     28          1           0       -0.691238   -3.318901    1.626998
     29          1           0        0.501171   -2.211778    0.930335
     30          1           0        0.224698   -3.796374    0.187417
     31          6           0       -3.146087   -0.528532   -0.388829
     32          6           0       -3.849691    0.651548    0.282244
     33          6           0       -4.937144    1.269308   -0.597309
     34          1           0       -2.704755   -0.192164   -1.337236
     35          1           0       -3.891282   -1.294035   -0.645023
     36          1           0       -3.102710    1.414248    0.537044
     37          1           0       -4.288382    0.313380    1.229772
     38          1           0       -5.703592    0.526519   -0.841081
     39          1           0       -4.511183    1.633642   -1.537744
     40          1           0       -5.427118    2.111115   -0.098164
 ---------------------------------------------------------------------

 SCF Done:  E(RHF) =  -470.732399968     A.U. after   11 cycles
 E2 =    -0.1584166687D+01 EUMP2 =    -0.47231656665549D+03

 The electronic state is 1-A.
 Alpha  occ. eigenvalues --  -11.21682 -11.21625 -11.21567 -11.21537 -11.21496
 Alpha  occ. eigenvalues --  -11.21421 -11.21357 -11.21287 -11.21146 -11.21097
 Alpha  occ. eigenvalues --  -11.21048 -11.20857  -1.08518  -1.08369  -1.03613
 Alpha  occ. eigenvalues --   -1.03449  -0.96049  -0.95905  -0.87080  -0.86912
 Alpha  occ. eigenvalues --   -0.79745  -0.79478  -0.78381  -0.78143  -0.65172
 Alpha  occ. eigenvalues --   -0.64978  -0.61017  -0.60879  -0.59415  -0.59279
 Alpha  occ. eigenvalues --   -0.57679  -0.57515  -0.55335  -0.55200  -0.52737
 Alpha  occ. eigenvalues --   -0.52599  -0.52513  -0.52291  -0.49987  -0.49923
 Alpha  occ. eigenvalues --   -0.48068  -0.47706  -0.46733  -0.46608  -0.46020
 Alpha  occ. eigenvalues --   -0.45792  -0.45686  -0.45314  -0.43845  -0.43722
 Alpha virt. eigenvalues --    0.20369   0.22975   0.23568   0.24524   0.25418
 Alpha virt. eigenvalues --    0.26194   0.27277   0.27572   0.28333   0.29942
 Alpha virt. eigenvalues --    0.30519   0.31274   0.31585   0.31942   0.32109

 Mulliken charges:
               1
     1  C   -0.297732
     2  C   -0.305122
     3  C   -0.475359
     4  H    0.149710
     5  H    0.149755
     6  H    0.156995
     7  H    0.153827
     8  H    0.155160
     9  H    0.155064
    10  H    0.161004
    11  C   -0.301188
    12  C   -0.299497
    13  C   -0.476044
    14  H    0.150439
    15  H    0.149952
    16  H    0.152258
    17  H    0.152452
    18  H    0.155471
    19  H    0.154768
    20  H    0.160806
    21  C   -0.301187
    22  C   -0.299995
    23  C   -0.482370
    24  H    0.152844
    25  H    0.149330
    26  H    0.150468
    27  H    0.151616
    28  H    0.153591
    29  H    0.165394
    30  H    0.158411
    31  C   -0.297984
    32  C   -0.299964
    33  C   -0.475609
    34  H    0.148596
    35  H    0.149562
    36  H    0.152425
    37  H    0.151902
    38  H    0.155099
    39  H    0.154875
    40  H    0.160277
 Sum of Mulliken charges =  -0.00000

 Dipole moment (field-independent basis, Debye):
    X=              0.0772    Y=              0.0338    Z=              0.0117  Tot=              0.0851
 Quadrupole moment (field-independent basis, Debye-Ang):
   XX=            -85.4542   YY=            -85.3237   ZZ=            -84.0260
   XY=              1.4168   XZ=             -0.1776   YZ=             -0.0917

 Normal termination of Gaussian 16 at Thu May  6 05:31:36 2021.
