 Gaussian 16, Revision A.03,
 Gaussian 16:  EM64L-G16RevA.03 25-Dec-2016

 -------------
 #p 6-31g* mp2
 -------------

 ------------------------------------------------------
 Input file generated by CHIRIPA (05-May-2021 14:51:09)
 ------------------------------------------------------
 Symbolic Z-matrix:
 Charge =  0 Multiplicity = 1

                         Standard orientation:
 ---------------------------------------------------------------------
 Center     Atomic      Atomic             Coordinates (Angstroms)
 Number     Number       Type             X           Y           Z
 ---------------------------------------------------------------------
      1          6           0        4.177800   -0.245576   -0.063428
      2          6           0        4.690357    1.195004   -0.063810
      3          6           0        6.177004    1.293420   -0.407302
      4          1           0        4.761704   -0.835595    0.656209
      5          1           0        4.357056   -0.691430   -1.051596
      6          1           0        4.508933    1.638454    0.923638
      7          1           0        4.105037    1.781707   -0.783391
      8          1           0        6.371287    0.876349   -1.400734
      9          1           0        6.777477    0.732282    0.315994
     10          1           0        6.522406    2.331942   -0.401874
     11          6           0        2.693260   -0.360303    0.278196
     12          6           0        2.180703   -1.800883    0.278578
     13          6           0        0.694055   -1.899299    0.622070
     14          1           0        2.514003    0.085551    1.266364
     15          1           0        2.109355    0.229716   -0.441441
     16          1           0        2.766022   -2.387587    0.998159
     17          1           0        2.362127   -2.244333   -0.708870
     18          1           0        0.093582   -1.338161   -0.101226
     19          1           0        0.499772   -1.482228    1.615502
     20          1           0        0.348653   -2.937821    0.616642
     21          6           0       -3.102937   -0.333055   -0.368772
     22          6           0       -3.847200   -1.610647    0.020868
     23          6           0       -3.169617   -2.874584   -0.509354
     24          1           0       -3.028381   -0.279117   -1.463522
     25          1           0       -2.073703   -0.385867    0.012391
     26          1           0       -4.875135   -1.554837   -0.359725
     27          1           0       -3.920161   -1.661454    1.114812
     28          1           0       -2.149996   -2.957593   -0.119376
     29          1           0       -3.110397   -2.850370   -1.602290
     30          1           0       -3.718255   -3.776069   -0.219214
     31          6           0       -3.768123    0.938935    0.154004
     32          6           0       -3.023859    2.216525   -0.235636
     33          6           0       -3.701443    3.480464    0.294586
     34          1           0       -4.797356    0.991746   -0.227158
     35          1           0       -3.842679    0.884995    1.248754
     36          1           0       -2.950899    2.267334   -1.329579
     37          1           0       -1.995924    2.160716    0.144957
     38          1           0       -3.760664    3.456249    1.387522
     39          1           0       -4.721064    3.563472   -0.095392
     40          1           0       -3.152804    4.381949    0.004446
 ---------------------------------------------------------------------

 SCF Done:  E(RHF) =  -470.732742110     A.U. after   11 cycles
 E2 =    -0.1583313469D+01 EUMP2 =    -0.47231605557929D+03

 The electronic state is 1-A.
 Alpha  occ. eigenvalues --  -11.21649 -11.21622 -11.21568 -11.21512 -11.21441
 Alpha  occ. eigenvalues --  -11.21380 -11.21335 -11.21258 -11.21136 -11.21087
 Alpha  occ. eigenvalues --  -11.21045 -11.20927  -1.08470  -1.08363  -1.03581
 Alpha  occ. eigenvalues --   -1.03455  -0.96034  -0.95908  -0.87060  -0.86926
 Alpha  occ. eigenvalues --   -0.79697  -0.79487  -0.78307  -0.78151  -0.65120
 Alpha  occ. eigenvalues --   -0.64981  -0.61018  -0.60827  -0.59417  -0.59277
 Alpha  occ. eigenvalues --   -0.57689  -0.57484  -0.55321  -0.55205  -0.52777
 Alpha  occ. eigenvalues --   -0.52618  -0.52510  -0.52245  -0.50005  -0.49843
 Alpha  occ. eigenvalues --   -0.48012  -0.47814  -0.46766  -0.46503  -0.45941
 Alpha  occ. eigenvalues --   -0.45757  -0.45696  -0.45358  -0.43802  -0.43714
 Alpha virt. eigenvalues --    0.21971   0.22983   0.23686   0.24636   0.25840
 Alpha virt. eigenvalues --    0.26645   0.27077   0.27196   0.28044   0.29321
 Alpha virt. eigenvalues --    0.29979   0.31067   0.31628   0.31856   0.32108

 Mulliken charges:
               1
     1  C   -0.298319
     2  C   -0.299691
     3  C   -0.475730
     4  H    0.149735
     5  H    0.149712
     6  H    0.151894
     7  H    0.152082
     8  H    0.155255
     9  H    0.155200
    10  H    0.160337
    11  C   -0.298784
    12  C   -0.299650
    13  C   -0.483028
    14  H    0.149308
    15  H    0.149948
    16  H    0.152044
    17  H    0.152508
    18  H    0.161771
    19  H    0.154752
    20  H    0.161900
    21  C   -0.306295
    22  C   -0.298408
    23  C   -0.482617
    24  H    0.148366
    25  H    0.158200
    26  H    0.151335
    27  H    0.151520
    28  H    0.163663
    29  H    0.154031
    30  H    0.159292
    31  C   -0.297509
    32  C   -0.299775
    33  C   -0.475617
    34  H    0.149290
    35  H    0.149473
    36  H    0.151558
    37  H    0.151900
    38  H    0.155147
    39  H    0.155142
    40  H    0.160062
 Sum of Mulliken charges =  -0.00000

 Dipole moment (field-independent basis, Debye):
    X=              0.0632    Y=             -0.0082    Z=              0.0107  Tot=              0.0646
 Quadrupole moment (field-independent basis, Debye-Ang):
   XX=            -85.9266   YY=            -85.9043   ZZ=            -83.2132
   XY=             -0.0005   XZ=              1.0076   YZ=             -0.4218

 Normal termination of Gaussian 16 at Wed May  5 16:39:03 2021.
