 Gaussian 16, Revision A.03,
 Gaussian 16:  EM64L-G16RevA.03 25-Dec-2016

 -------------
 #p 6-31g* mp2
 -------------

 ------------------------------------------------------
 Input file generated by CHIRIPA (05-May-2021 14:51:09)
 ------------------------------------------------------
 Symbolic Z-matrix:
 Charge =  0 Multiplicity = 1

                         Standard orientation:
 ---------------------------------------------------------------------
 Center     Atomic      Atomic             Coordinates (Angstroms)
 Number     Number       Type             X           Y           Z
 ---------------------------------------------------------------------
      1          6           0        1.799700    1.131525    0.210006
      2          6           0        1.359138    2.511940   -0.278199
      3          6           0       -0.070835    2.857657    0.138278
      4          1           0        1.108495    0.373055   -0.182299
      5          1           0        1.716447    1.093765    1.305012
      6          1           0        1.444513    2.547545   -1.371844
      7          1           0        2.051584    3.267193    0.115157
      8          1           0       -0.167023    2.849810    1.228822
      9          1           0       -0.777544    2.126073   -0.266628
     10          1           0       -0.365195    3.848632   -0.221141
     11          6           0        3.227032    0.771548   -0.198491
     12          6           0        3.667594   -0.608867    0.289713
     13          6           0        5.097566   -0.954584   -0.126763
     14          1           0        3.310285    0.809308   -1.293497
     15          1           0        3.918237    1.530019    0.193814
     16          1           0        2.975148   -1.364119   -0.103642
     17          1           0        3.582219   -0.644471    1.383358
     18          1           0        5.804275   -0.223000    0.278142
     19          1           0        5.193755   -0.946737   -1.217307
     20          1           0        5.391926   -1.945558    0.232655
     21          6           0       -1.770632   -1.076817    0.121064
     22          6           0       -1.337129   -2.511303   -0.182763
     23          6           0        0.151380   -2.746367    0.075842
     24          1           0       -1.176835   -0.383757   -0.490506
     25          1           0       -1.538730   -0.845449    1.169914
     26          1           0       -1.571043   -2.740357   -1.230348
     27          1           0       -1.932161   -3.201038    0.429461
     28          1           0        0.396873   -2.544934    1.123582
     29          1           0        0.760042   -2.081634   -0.545658
     30          1           0        0.439671   -3.778220   -0.147827
     31          6           0       -3.256100   -0.826257   -0.132579
     32          6           0       -3.689603    0.608229    0.171249
     33          6           0       -5.178112    0.843294   -0.087357
     34          1           0       -3.488001   -1.057624   -1.181428
     35          1           0       -3.849896   -1.519317    0.478991
     36          1           0       -3.094571    1.297966   -0.440976
     37          1           0       -3.455688    0.837284    1.218834
     38          1           0       -5.786774    0.178562    0.534143
     39          1           0       -5.423605    0.641860   -1.135097
     40          1           0       -5.466403    1.875146    0.136313
 ---------------------------------------------------------------------

 SCF Done:  E(RHF) =  -470.731105632     A.U. after   11 cycles
 E2 =    -0.1585959473D+01 EUMP2 =    -0.47231706510469D+03

 The electronic state is 1-A.
 Alpha  occ. eigenvalues --  -11.21634 -11.21584 -11.21537 -11.21474 -11.21419
 Alpha  occ. eigenvalues --  -11.21360 -11.21314 -11.21239 -11.21088 -11.21061
 Alpha  occ. eigenvalues --  -11.20998 -11.20970  -1.08485  -1.08332  -1.03556
 Alpha  occ. eigenvalues --   -1.03451  -0.96007  -0.95904  -0.87049  -0.86902
 Alpha  occ. eigenvalues --   -0.79688  -0.79498  -0.78501  -0.77928  -0.65291
 Alpha  occ. eigenvalues --   -0.64834  -0.61012  -0.60829  -0.59393  -0.59290
 Alpha  occ. eigenvalues --   -0.57630  -0.57481  -0.55310  -0.55196  -0.52705
 Alpha  occ. eigenvalues --   -0.52620  -0.52496  -0.52273  -0.50027  -0.49820
 Alpha  occ. eigenvalues --   -0.48119  -0.47825  -0.46859  -0.46744  -0.46107
 Alpha  occ. eigenvalues --   -0.45782  -0.45594  -0.44624  -0.43797  -0.43698
 Alpha virt. eigenvalues --    0.21194   0.22515   0.23773   0.24091   0.25123
 Alpha virt. eigenvalues --    0.26292   0.26647   0.27523   0.29224   0.29766
 Alpha virt. eigenvalues --    0.30427   0.31235   0.31619   0.31843   0.31982

 Mulliken charges:
               1
     1  C   -0.306923
     2  C   -0.299228
     3  C   -0.482478
     4  H    0.159332
     5  H    0.148887
     6  H    0.150581
     7  H    0.151630
     8  H    0.155001
     9  H    0.162838
    10  H    0.159338
    11  C   -0.297622
    12  C   -0.306040
    13  C   -0.475196
    14  H    0.148195
    15  H    0.149266
    16  H    0.160134
    17  H    0.151250
    18  H    0.154751
    19  H    0.154563
    20  H    0.160066
    21  C   -0.303528
    22  C   -0.300144
    23  C   -0.479533
    24  H    0.154000
    25  H    0.150723
    26  H    0.151391
    27  H    0.152158
    28  H    0.156884
    29  H    0.158425
    30  H    0.160255
    31  C   -0.298010
    32  C   -0.303342
    33  C   -0.475465
    34  H    0.148943
    35  H    0.149740
    36  H    0.155994
    37  H    0.152609
    38  H    0.155072
    39  H    0.154901
    40  H    0.160581
 Sum of Mulliken charges =  -0.00000

 Dipole moment (field-independent basis, Debye):
    X=             -0.0550    Y=             -0.0449    Z=              0.0212  Tot=              0.0741
 Quadrupole moment (field-independent basis, Debye-Ang):
   XX=            -87.0265   YY=            -84.9251   ZZ=            -83.1471
   XY=              0.8224   XZ=              0.1736   YZ=              0.0519

 Normal termination of Gaussian 16 at Wed May  5 22:57:21 2021.
