 Gaussian 16, Revision A.03,
 Gaussian 16:  EM64L-G16RevA.03 25-Dec-2016

 -------------
 #p 6-31g* mp2
 -------------

 ------------------------------------------------------
 Input file generated by CHIRIPA (05-May-2021 14:57:25)
 ------------------------------------------------------
 Symbolic Z-matrix:
 Charge =  0 Multiplicity = 1

                         Standard orientation:
 ---------------------------------------------------------------------
 Center     Atomic      Atomic             Coordinates (Angstroms)
 Number     Number       Type             X           Y           Z
 ---------------------------------------------------------------------
      1          6           0       -3.720580    1.637358    0.515919
      2          6           0       -3.978344    0.306010    0.858834
      3          6           0       -3.158462   -0.721364    0.382551
      4          6           0       -2.084651   -0.379975   -0.438225
      5          6           0       -1.801904    0.936908   -0.797620
      6          6           0       -2.635097    1.948010   -0.309757
      7          1           0       -4.362654    2.429127    0.890405
      8          1           0       -4.820634    0.061805    1.499893
      9          1           0       -3.335133   -1.760495    0.632371
     10          1           0       -0.954780    1.149276   -1.438477
     11          1           0       -2.432516    2.981068   -0.577710
     12          7           0       -1.209633   -1.458997   -0.948574
     13          8           0       -0.269926   -1.132003   -1.670145
     14          8           0       -1.480069   -2.611295   -0.617351
     15          6           0        2.439297    2.637135   -0.272334
     16          6           0        3.191885    1.672398   -0.950135
     17          6           0        3.083323    0.320337   -0.611469
     18          6           0        2.208520   -0.033267    0.414676
     19          6           0        1.445312    0.904418    1.108614
     20          6           0        1.569945    2.250746    0.753070
     21          1           0        2.529872    3.685222   -0.541974
     22          1           0        3.867834    1.969571   -1.746894
     23          1           0        3.654138   -0.447271   -1.119765
     24          1           0        0.779917    0.577614    1.898467
     25          1           0        0.984237    2.997801    1.281183
     26          7           0        2.085084   -1.461600    0.782141
     27          8           0        1.307269   -1.747320    1.689888
     28          8           0        2.768488   -2.268360    0.155456
 ---------------------------------------------------------------------

 SCF Done:  E(RHF) =  -868.336902867     A.U. after   16 cycles
 E2 =    -0.2604405204D+01 EUMP2 =    -0.87094130807086D+03

 The electronic state is 1-A.
 Alpha  occ. eigenvalues --  -20.60612 -20.60509 -20.60020 -20.59957 -15.85600
 Alpha  occ. eigenvalues --  -15.85046 -11.31131 -11.30675 -11.27769 -11.27708
 Alpha  occ. eigenvalues --  -11.27564 -11.27354 -11.27223 -11.27179 -11.26844
 Alpha  occ. eigenvalues --  -11.26759 -11.26502 -11.26383  -1.59621  -1.59028
 Alpha  occ. eigenvalues --   -1.39172  -1.38593  -1.19351  -1.18905  -1.08714
 Alpha  occ. eigenvalues --   -1.08263  -1.04783  -1.04365  -0.95513  -0.95049
 Alpha  occ. eigenvalues --   -0.86165  -0.85759  -0.82351  -0.81890  -0.77360
 Alpha  occ. eigenvalues --   -0.76875  -0.71850  -0.71323  -0.71224  -0.70456
 Alpha  occ. eigenvalues --   -0.70059  -0.69976  -0.64999  -0.64786  -0.64576
 Alpha  occ. eigenvalues --   -0.64403  -0.62116  -0.61718  -0.55290  -0.54908
 Alpha  occ. eigenvalues --   -0.53204  -0.52914  -0.52544  -0.52474  -0.48593
 Alpha  occ. eigenvalues --   -0.48555  -0.48054  -0.48007  -0.44595  -0.43906
 Alpha  occ. eigenvalues --   -0.37402  -0.36865  -0.36656  -0.35653
 Alpha virt. eigenvalues --    0.05153   0.05715   0.11080   0.11815   0.16503
 Alpha virt. eigenvalues --    0.17208   0.21261   0.21739   0.27067   0.27663
 Alpha virt. eigenvalues --    0.28269   0.28602   0.30583   0.31392   0.32526

 Mulliken charges:
               1
     1  C   -0.171705
     2  C   -0.219772
     3  C   -0.167856
     4  C    0.157530
     5  C   -0.170247
     6  C   -0.223364
     7  H    0.224266
     8  H    0.224122
     9  H    0.279505
    10  H    0.276349
    11  H    0.218912
    12  N    0.487900
    13  O   -0.467608
    14  O   -0.447276
    15  C   -0.175925
    16  C   -0.219255
    17  C   -0.163358
    18  C    0.171215
    19  C   -0.176452
    20  C   -0.222796
    21  H    0.221294
    22  H    0.222398
    23  H    0.278500
    24  H    0.273278
    25  H    0.217607
    26  N    0.491413
    27  O   -0.466462
    28  O   -0.452212
 Sum of Mulliken charges =  -0.00000

 Dipole moment (field-independent basis, Debye):
    X=             -2.5998    Y=              8.2731    Z=              0.4033  Tot=              8.6814
 Quadrupole moment (field-independent basis, Debye-Ang):
   XX=            -86.7662   YY=           -106.6441   ZZ=           -105.1290
   XY=              5.4665   XZ=             -9.8028   YZ=             -1.1217

 Normal termination of Gaussian 16 at Thu May  6 05:07:33 2021.
