 Gaussian 16, Revision A.03,
 Gaussian 16:  EM64L-G16RevA.03 25-Dec-2016

 -------------
 #p 6-31g* mp2
 -------------

 ------------------------------------------------------
 Input file generated by CHIRIPA (05-May-2021 14:53:15)
 ------------------------------------------------------
 Symbolic Z-matrix:
 Charge =  0 Multiplicity = 1

                         Standard orientation:
 ---------------------------------------------------------------------
 Center     Atomic      Atomic             Coordinates (Angstroms)
 Number     Number       Type             X           Y           Z
 ---------------------------------------------------------------------
      1          6           0        3.418919    0.187982    0.257112
      2          6           0        4.363675    1.049065   -0.581909
      3          6           0        4.990855    2.190760    0.218698
      4          1           0        2.626140    0.824126    0.673966
      5          1           0        3.971810   -0.223561    1.112881
      6          1           0        3.809509    1.457740   -1.436602
      7          1           0        5.154189    0.410764   -0.996971
      8          1           0        5.567721    1.798189    1.062330
      9          1           0        4.215401    2.851114    0.620200
     10          1           0        5.662593    2.793539   -0.400403
     11          6           0        2.784108   -0.957561   -0.529319
     12          6           0        1.839352   -1.818644    0.309703
     13          6           0        1.212173   -2.960339   -0.490904
     14          1           0        2.231217   -0.546019   -1.385087
     15          1           0        3.576888   -1.593705   -0.946172
     16          1           0        1.048839   -1.180343    0.724764
     17          1           0        2.393518   -2.227320    1.164396
     18          1           0        1.987627   -3.620694   -0.892406
     19          1           0        0.635307   -2.567768   -1.334536
     20          1           0        0.540435   -3.563118    0.128197
     21          6           0       -2.674155    2.792493   -0.199329
     22          6           0       -2.030986    2.287752    0.935612
     23          6           0       -1.886173    0.908890    1.115379
     24          6           0       -2.398782    0.059712    0.135881
     25          6           0       -3.044550    0.531986   -1.005711
     26          6           0       -3.177997    1.914547   -1.164667
     27          1           0       -2.782235    3.865062   -0.330893
     28          1           0       -1.638714    2.967214    1.686943
     29          1           0       -1.392631    0.491127    1.984463
     30          1           0       -3.425236   -0.170227   -1.737417
     31          1           0       -3.677949    2.303703   -2.047078
     32          7           0       -2.251492   -1.401986    0.315176
     33          8           0       -2.711839   -2.129098   -0.562335
     34          8           0       -1.678488   -1.792874    1.329824
 ---------------------------------------------------------------------

 SCF Done:  E(RHF) =  -669.536230221     A.U. after   15 cycles
 E2 =    -0.2092680872D+01 EUMP2 =    -0.67162891109269D+03

 The electronic state is 1-A.
 Alpha  occ. eigenvalues --  -20.60988 -20.60979 -15.85986 -11.31323 -11.27881
 Alpha  occ. eigenvalues --  -11.27876 -11.27614 -11.26890 -11.26880 -11.21459
 Alpha  occ. eigenvalues --  -11.21121 -11.21046 -11.20851 -11.20679 -11.19840
 Alpha  occ. eigenvalues --   -1.60025  -1.39585  -1.19487  -1.08890  -1.07995
 Alpha  occ. eigenvalues --   -1.04883  -1.02985  -0.95736  -0.95428  -0.86453
 Alpha  occ. eigenvalues --   -0.86282  -0.82565  -0.79100  -0.77783  -0.77588
 Alpha  occ. eigenvalues --   -0.72217  -0.71352  -0.70592  -0.65144  -0.64884
 Alpha  occ. eigenvalues --   -0.64639  -0.62230  -0.60395  -0.58850  -0.56995
 Alpha  occ. eigenvalues --   -0.55385  -0.54754  -0.53212  -0.52973  -0.52071
 Alpha  occ. eigenvalues --   -0.51861  -0.49450  -0.48990  -0.48949  -0.47372
 Alpha  occ. eigenvalues --   -0.46225  -0.45471  -0.45276  -0.44640  -0.43224
 Alpha  occ. eigenvalues --   -0.37462  -0.36482
 Alpha virt. eigenvalues --    0.04873   0.11108   0.16343   0.21214   0.23146
 Alpha virt. eigenvalues --    0.24753   0.26492   0.27305   0.27705   0.28503
 Alpha virt. eigenvalues --    0.28578   0.30580   0.31661   0.32014   0.32709

 Mulliken charges:
               1
     1  C   -0.296317
     2  C   -0.298964
     3  C   -0.474956
     4  H    0.143987
     5  H    0.149634
     6  H    0.150248
     7  H    0.152680
     8  H    0.155568
     9  H    0.151759
    10  H    0.159324
    11  C   -0.297653
    12  C   -0.301304
    13  C   -0.478371
    14  H    0.146000
    15  H    0.148615
    16  H    0.153143
    17  H    0.149824
    18  H    0.148033
    19  H    0.151416
    20  H    0.179980
    21  C   -0.170589
    22  C   -0.218669
    23  C   -0.172245
    24  C    0.158857
    25  C   -0.171002
    26  C   -0.218475
    27  H    0.226181
    28  H    0.224142
    29  H    0.276495
    30  H    0.275960
    31  H    0.224001
    32  N    0.489051
    33  O   -0.458269
    34  O   -0.458082
 Sum of Mulliken charges =  -0.00000

 Dipole moment (field-independent basis, Debye):
    X=             -0.7783    Y=              5.0368    Z=             -0.5771  Tot=              5.1292
 Quadrupole moment (field-independent basis, Debye-Ang):
   XX=            -91.8893   YY=            -94.6549   ZZ=            -91.5807
   XY=            -13.0999   XZ=              3.9792   YZ=              0.6891

 Normal termination of Gaussian 16 at Thu May  6 10:35:06 2021.
