 Gaussian 16, Revision A.03,
 Gaussian 16:  EM64L-G16RevA.03 25-Dec-2016

 -------------
 #p 6-31g* mp2
 -------------

 ------------------------------------------------------
 Input file generated by CHIRIPA (05-May-2021 14:51:10)
 ------------------------------------------------------
 Symbolic Z-matrix:
 Charge =  0 Multiplicity = 1

                         Standard orientation:
 ---------------------------------------------------------------------
 Center     Atomic      Atomic             Coordinates (Angstroms)
 Number     Number       Type             X           Y           Z
 ---------------------------------------------------------------------
      1          6           0       -2.091626   -1.260608    0.385379
      2          6           0       -1.352343   -2.243867   -0.522722
      3          6           0       -0.277622   -3.039688    0.218518
      4          1           0       -1.365593   -0.569094    0.834411
      5          1           0       -2.551284   -1.813943    1.215999
      6          1           0       -0.895378   -1.689013   -1.352141
      7          1           0       -2.080244   -2.933000   -0.969794
      8          1           0       -0.721263   -3.618194    1.035288
      9          1           0        0.470336   -2.367140    0.650768
     10          1           0        0.238325   -3.736426   -0.449475
     11          6           0       -3.169136   -0.457625   -0.341201
     12          6           0       -3.908419    0.525634    0.566901
     13          6           0       -4.983140    1.321454   -0.174340
     14          1           0       -2.709478    0.095710   -1.171821
     15          1           0       -3.895169   -1.149139   -0.790233
     16          1           0       -3.180518    1.214766    1.013972
     17          1           0       -4.365384   -0.029220    1.396319
     18          1           0       -5.731097    0.648906   -0.606590
     19          1           0       -4.539499    1.899961   -0.991110
     20          1           0       -5.499087    2.018192    0.493653
     21          6           0        2.170075    1.371344   -0.352505
     22          6           0        2.042115    2.672252    0.440747
     23          6           0        1.117964    3.687021   -0.233033
     24          1           0        2.545244    1.598876   -1.359690
     25          1           0        1.172310    0.929931   -0.482943
     26          1           0        3.039986    3.110368    0.570842
     27          1           0        1.667389    2.441575    1.446225
     28          1           0        0.110881    3.273499   -0.348730
     29          1           0        1.491277    3.946092   -1.229086
     30          1           0        1.040916    4.609479    0.350914
     31          6           0        3.090686    0.346890    0.308327
     32          6           0        3.218647   -0.954018   -0.484926
     33          6           0        4.142798   -1.968788    0.188855
     34          1           0        4.088452    0.788303    0.438764
     35          1           0        2.715518    0.119357    1.315512
     36          1           0        3.593373   -0.723342   -1.490403
     37          1           0        2.220777   -1.392134   -0.615021
     38          1           0        3.769485   -2.227859    1.184907
     39          1           0        5.149880   -1.555265    0.304551
     40          1           0        4.219846   -2.891246   -0.395092
 ---------------------------------------------------------------------

 SCF Done:  E(RHF) =  -470.733195578     A.U. after   11 cycles
 E2 =    -0.1583507782D+01 EUMP2 =    -0.47231670335950D+03

 The electronic state is 1-A.
 Alpha  occ. eigenvalues --  -11.21669 -11.21647 -11.21642 -11.21546 -11.21468
 Alpha  occ. eigenvalues --  -11.21447 -11.21404 -11.21380 -11.21121 -11.21119
 Alpha  occ. eigenvalues --  -11.21095 -11.21047  -1.08500  -1.08447  -1.03603
 Alpha  occ. eigenvalues --   -1.03525  -0.96044  -0.95987  -0.87061  -0.87001
 Alpha  occ. eigenvalues --   -0.79673  -0.79579  -0.78306  -0.78265  -0.65306
 Alpha  occ. eigenvalues --   -0.64935  -0.61198  -0.60753  -0.59413  -0.59347
 Alpha  occ. eigenvalues --   -0.57639  -0.57606  -0.55428  -0.55187  -0.52722
 Alpha  occ. eigenvalues --   -0.52681  -0.52465  -0.52409  -0.50108  -0.49826
 Alpha  occ. eigenvalues --   -0.48002  -0.47877  -0.46784  -0.46514  -0.45957
 Alpha  occ. eigenvalues --   -0.45785  -0.45774  -0.45582  -0.43838  -0.43802
 Alpha virt. eigenvalues --    0.19109   0.22629   0.23802   0.24590   0.25948
 Alpha virt. eigenvalues --    0.26770   0.27423   0.27719   0.28241   0.29743
 Alpha virt. eigenvalues --    0.30880   0.31379   0.31671   0.31794   0.32165

 Mulliken charges:
               1
     1  C   -0.299328
     2  C   -0.301712
     3  C   -0.479145
     4  H    0.149660
     5  H    0.149945
     6  H    0.152991
     7  H    0.152671
     8  H    0.155791
     9  H    0.158095
    10  H    0.160811
    11  C   -0.298449
    12  C   -0.299706
    13  C   -0.475757
    14  H    0.149617
    15  H    0.149982
    16  H    0.151690
    17  H    0.152069
    18  H    0.155271
    19  H    0.155391
    20  H    0.160460
    21  C   -0.299839
    22  C   -0.299645
    23  C   -0.475603
    24  H    0.150035
    25  H    0.149589
    26  H    0.152340
    27  H    0.151873
    28  H    0.154462
    29  H    0.155382
    30  H    0.160566
    31  C   -0.298672
    32  C   -0.307124
    33  C   -0.475482
    34  H    0.149928
    35  H    0.149143
    36  H    0.151750
    37  H    0.160228
    38  H    0.155331
    39  H    0.155029
    40  H    0.160362
 Sum of Mulliken charges =  -0.00000

 Dipole moment (field-independent basis, Debye):
    X=             -0.0151    Y=             -0.0185    Z=             -0.0062  Tot=              0.0247
 Quadrupole moment (field-independent basis, Debye-Ang):
   XX=            -84.6833   YY=            -85.1455   ZZ=            -84.7757
   XY=              1.9100   XZ=             -1.1177   YZ=              0.2051

 Normal termination of Gaussian 16 at Wed May  5 15:12:50 2021.
