 Gaussian 16, Revision A.03,
 Gaussian 16:  EM64L-G16RevA.03 25-Dec-2016

 -------------
 #p 6-31g* mp2
 -------------

 ------------------------------------------------------
 Input file generated by CHIRIPA (05-May-2021 14:51:10)
 ------------------------------------------------------
 Symbolic Z-matrix:
 Charge =  0 Multiplicity = 1

                         Standard orientation:
 ---------------------------------------------------------------------
 Center     Atomic      Atomic             Coordinates (Angstroms)
 Number     Number       Type             X           Y           Z
 ---------------------------------------------------------------------
      1          6           0        2.312066   -0.192719   -0.557355
      2          6           0        3.553058    0.610327   -0.948560
      3          6           0        3.457007    1.198389   -2.356662
      4          1           0        2.162565   -1.002202   -1.284908
      5          1           0        1.427711    0.455890   -0.625302
      6          1           0        4.434985   -0.039227   -0.878561
      7          1           0        3.699731    1.417875   -0.219883
      8          1           0        2.594771    1.868311   -2.436377
      9          1           0        3.334202    0.402930   -3.098798
     10          1           0        4.354648    1.768456   -2.615747
     11          6           0        2.393079   -0.786967    0.847648
     12          6           0        1.152087   -1.590014    1.238852
     13          6           0        1.248138   -2.178076    2.646955
     14          1           0        3.277434   -1.435577    0.915594
     15          1           0        2.542580    0.022515    1.575200
     16          1           0        1.005414   -2.397562    0.510175
     17          1           0        0.270160   -0.940460    1.168854
     18          1           0        1.370943   -1.382617    3.389090
     19          1           0        2.110374   -2.847998    2.726669
     20          1           0        0.350497   -2.748143    2.906039
     21          6           0       -2.801161   -0.119151   -0.251566
     22          6           0       -2.531623   -0.848118   -1.568358
     23          6           0       -3.436888   -2.064211   -1.766879
     24          1           0       -2.664038   -0.820269    0.583047
     25          1           0       -3.853075    0.197286   -0.224355
     26          1           0       -1.480181   -1.161873   -1.593675
     27          1           0       -2.669218   -0.145135   -2.399921
     28          1           0       -4.489881   -1.764538   -1.767948
     29          1           0       -3.294088   -2.787054   -0.957121
     30          1           0       -3.227239   -2.570362   -2.714359
     31          6           0       -1.903984    1.098838   -0.038727
     32          6           0       -2.173521    1.827805    1.278066
     33          6           0       -1.268258    3.043898    1.476586
     34          1           0       -0.852070    0.782402   -0.065938
     35          1           0       -2.041107    1.799956   -0.873339
     36          1           0       -2.035928    1.124822    2.109629
     37          1           0       -3.224965    2.141560    1.303383
     38          1           0       -1.411057    3.766741    0.666829
     39          1           0       -0.215264    2.744226    1.477656
     40          1           0       -1.477906    3.550049    2.424067
 ---------------------------------------------------------------------

 SCF Done:  E(RHF) =  -470.732778590     A.U. after   11 cycles
 E2 =    -0.1584763780D+01 EUMP2 =    -0.47231754237025D+03

 The electronic state is 1-A.
 Alpha  occ. eigenvalues --  -11.21675 -11.21643 -11.21634 -11.21564 -11.21466
 Alpha  occ. eigenvalues --  -11.21401 -11.21397 -11.21338 -11.21141 -11.21135
 Alpha  occ. eigenvalues --  -11.21080 -11.21049  -1.08530  -1.08412  -1.03583
 Alpha  occ. eigenvalues --   -1.03540  -0.96031  -0.95995  -0.87045  -0.87011
 Alpha  occ. eigenvalues --   -0.79653  -0.79603  -0.78466  -0.78122  -0.65439
 Alpha  occ. eigenvalues --   -0.64813  -0.61021  -0.60891  -0.59398  -0.59359
 Alpha  occ. eigenvalues --   -0.57671  -0.57579  -0.55332  -0.55290  -0.52730
 Alpha  occ. eigenvalues --   -0.52682  -0.52463  -0.52413  -0.49975  -0.49953
 Alpha  occ. eigenvalues --   -0.47969  -0.47929  -0.46779  -0.46654  -0.46414
 Alpha  occ. eigenvalues --   -0.45799  -0.45761  -0.44955  -0.43837  -0.43787
 Alpha virt. eigenvalues --    0.19654   0.22786   0.24012   0.24470   0.25052
 Alpha virt. eigenvalues --    0.26482   0.26691   0.27697   0.28375   0.30706
 Alpha virt. eigenvalues --    0.31035   0.31579   0.31855   0.32047   0.32149

 Mulliken charges:
               1
     1  C   -0.307124
     2  C   -0.299001
     3  C   -0.475905
     4  H    0.149705
     5  H    0.157148
     6  H    0.152067
     7  H    0.151964
     8  H    0.155800
     9  H    0.155229
    10  H    0.160348
    11  C   -0.298012
    12  C   -0.307859
    13  C   -0.475390
    14  H    0.150091
    15  H    0.149327
    16  H    0.152132
    17  H    0.159304
    18  H    0.155354
    19  H    0.155639
    20  H    0.160097
    21  C   -0.298269
    22  C   -0.301121
    23  C   -0.475747
    24  H    0.150099
    25  H    0.149656
    26  H    0.154097
    27  H    0.151666
    28  H    0.155006
    29  H    0.155212
    30  H    0.160116
    31  C   -0.311269
    32  C   -0.299956
    33  C   -0.475822
    34  H    0.160821
    35  H    0.150025
    36  H    0.151999
    37  H    0.152505
    38  H    0.155462
    39  H    0.153946
    40  H    0.160660
 Sum of Mulliken charges =  -0.00000

 Dipole moment (field-independent basis, Debye):
    X=              0.0155    Y=             -0.0009    Z=             -0.0061  Tot=              0.0167
 Quadrupole moment (field-independent basis, Debye-Ang):
   XX=            -84.4769   YY=            -84.7719   ZZ=            -85.4903
   XY=             -1.3580   XZ=              0.0504   YZ=              0.2627

 Normal termination of Gaussian 16 at Wed May  5 23:03:12 2021.
