 Gaussian 16, Revision A.03,
 Gaussian 16:  EM64L-G16RevA.03 25-Dec-2016

 -------------
 #p 6-31g* mp2
 -------------

 ------------------------------------------------------
 Input file generated by CHIRIPA (05-May-2021 14:53:13)
 ------------------------------------------------------
 Symbolic Z-matrix:
 Charge =  0 Multiplicity = 1

                         Standard orientation:
 ---------------------------------------------------------------------
 Center     Atomic      Atomic             Coordinates (Angstroms)
 Number     Number       Type             X           Y           Z
 ---------------------------------------------------------------------
      1          6           0        3.609485   -0.159827   -0.391232
      2          6           0        3.444394   -1.677237   -0.300691
      3          6           0        4.472049   -2.434923   -1.141899
      4          1           0        3.525284    0.149731   -1.441959
      5          1           0        4.623192    0.111793   -0.065631
      6          1           0        2.430842   -1.945785   -0.625052
      7          1           0        3.528807   -1.983197    0.749965
      8          1           0        5.489155   -2.195985   -0.814782
      9          1           0        4.384951   -2.158360   -2.197612
     10          1           0        4.335784   -3.517972   -1.062558
     11          6           0        2.589362    0.611475    0.444333
     12          6           0        2.754452    2.128885    0.353792
     13          6           0        1.726797    2.886570    1.195001
     14          1           0        1.575655    0.339855    0.118732
     15          1           0        2.673563    0.301916    1.495061
     16          1           0        2.670039    2.434845   -0.696864
     17          1           0        3.768005    2.397433    0.678153
     18          1           0        1.813895    2.610008    2.250713
     19          1           0        0.709692    2.647632    0.867883
     20          1           0        1.863063    3.969620    1.115659
     21          6           0       -2.236949   -1.533439    2.098315
     22          6           0       -1.713413   -0.237278    2.049318
     23          6           0       -1.809934    0.523736    0.880520
     24          6           0       -2.439259   -0.045233   -0.225605
     25          6           0       -2.970756   -1.333834   -0.207984
     26          6           0       -2.862845   -2.076622    0.971493
     27          1           0       -2.157545   -2.117533    3.010414
     28          1           0       -1.226804    0.187135    2.922891
     29          1           0       -1.413353    1.529647    0.815062
     30          1           0       -3.450250   -1.729834   -1.094939
     31          1           0       -3.270344   -3.082979    1.006661
     32          7           0       -2.547470    0.750771   -1.468613
     33          8           0       -3.106620    0.226648   -2.429490
     34          8           0       -2.071086    1.883728   -1.458469
 ---------------------------------------------------------------------

 SCF Done:  E(RHF) =  -669.535677542     A.U. after   15 cycles
 E2 =    -0.2091910078D+01 EUMP2 =    -0.67162758762064D+03

 The electronic state is 1-A.
 Alpha  occ. eigenvalues --  -20.60814 -20.60807 -15.85864 -11.31220 -11.27780
 Alpha  occ. eigenvalues --  -11.27771 -11.27514 -11.26799 -11.26785 -11.21685
 Alpha  occ. eigenvalues --  -11.21678 -11.21498 -11.21412 -11.21356 -11.21122
 Alpha  occ. eigenvalues --   -1.59888  -1.39442  -1.19388  -1.08784  -1.08519
 Alpha  occ. eigenvalues --   -1.04787  -1.03640  -0.96106  -0.95621  -0.87128
 Alpha  occ. eigenvalues --   -0.86186  -0.82451  -0.79709  -0.78340  -0.77499
 Alpha  occ. eigenvalues --   -0.72082  -0.71211  -0.70502  -0.65157  -0.65038
 Alpha  occ. eigenvalues --   -0.64779  -0.62174  -0.61008  -0.59462  -0.57716
 Alpha  occ. eigenvalues --   -0.55446  -0.55245  -0.53121  -0.52918  -0.52789
 Alpha  occ. eigenvalues --   -0.52505  -0.50042  -0.48840  -0.48839  -0.48027
 Alpha  occ. eigenvalues --   -0.46719  -0.45883  -0.45787  -0.44845  -0.43884
 Alpha  occ. eigenvalues --   -0.37365  -0.36366
 Alpha virt. eigenvalues --    0.05000   0.11201   0.16513   0.20505   0.22896
 Alpha virt. eigenvalues --    0.23951   0.25691   0.26649   0.27514   0.27871
 Alpha virt. eigenvalues --    0.29254   0.30085   0.31502   0.31683   0.31940

 Mulliken charges:
               1
     1  C   -0.298759
     2  C   -0.299603
     3  C   -0.475827
     4  H    0.153325
     5  H    0.149281
     6  H    0.152715
     7  H    0.149227
     8  H    0.155060
     9  H    0.157179
    10  H    0.159350
    11  C   -0.300347
    12  C   -0.299216
    13  C   -0.480532
    14  H    0.151400
    15  H    0.144689
    16  H    0.159029
    17  H    0.151955
    18  H    0.149451
    19  H    0.154751
    20  H    0.165228
    21  C   -0.170673
    22  C   -0.220018
    23  C   -0.176874
    24  C    0.157684
    25  C   -0.170728
    26  C   -0.218452
    27  H    0.225806
    28  H    0.224760
    29  H    0.284952
    30  H    0.275611
    31  H    0.223592
    32  N    0.487370
    33  O   -0.460087
    34  O   -0.461299
 Sum of Mulliken charges =  -0.00000

 Dipole moment (field-independent basis, Debye):
    X=              0.4026    Y=             -2.7835    Z=              4.3048  Tot=              5.1422
 Quadrupole moment (field-independent basis, Debye-Ang):
   XX=            -96.1238   YY=            -92.2300   ZZ=            -95.9873
   XY=              9.6928   XZ=             -9.0693   YZ=              1.7781

 Normal termination of Gaussian 16 at Thu May  6 02:35:19 2021.
