 Gaussian 16, Revision A.03,
 Gaussian 16:  EM64L-G16RevA.03 25-Dec-2016

 -------------
 #p 6-31g* mp2
 -------------

 ------------------------------------------------------
 Input file generated by CHIRIPA (05-May-2021 14:57:25)
 ------------------------------------------------------
 Symbolic Z-matrix:
 Charge =  0 Multiplicity = 1

                         Standard orientation:
 ---------------------------------------------------------------------
 Center     Atomic      Atomic             Coordinates (Angstroms)
 Number     Number       Type             X           Y           Z
 ---------------------------------------------------------------------
      1          6           0        6.103548   -0.539272    0.031901
      2          6           0        5.228877   -1.601175   -0.220752
      3          6           0        3.850315   -1.382221   -0.299327
      4          6           0        3.378656   -0.082813   -0.119415
      5          6           0        4.224635    0.995870    0.133666
      6          6           0        5.599524    0.753582    0.207993
      7          1           0        7.173021   -0.718425    0.091290
      8          1           0        5.617486   -2.606268   -0.357921
      9          1           0        3.150694   -2.186060   -0.493725
     10          1           0        3.807514    1.986780    0.266050
     11          1           0        6.276449    1.580183    0.404333
     12          7           0        1.921178    0.161335   -0.200351
     13          8           0        1.530751    1.315416   -0.038173
     14          8           0        1.196832   -0.806005   -0.424433
     15          6           0       -2.173836    2.185696    0.258770
     16          6           0       -1.901422    1.078603    1.069115
     17          6           0       -2.695419   -0.069576    0.992960
     18          6           0       -3.758565   -0.076356    0.091314
     19          6           0       -4.055406    1.010692   -0.729356
     20          6           0       -3.248066    2.148272   -0.636301
     21          1           0       -1.551858    3.073512    0.324494
     22          1           0       -1.067822    1.104846    1.765152
     23          1           0       -2.506962   -0.940745    1.608562
     24          1           0       -4.893333    0.954803   -1.413588
     25          1           0       -3.461978    3.006577   -1.266856
     26          7           0       -4.606198   -1.286273    0.001746
     27          8           0       -5.536962   -1.267147   -0.800720
     28          8           0       -4.323759   -2.230821    0.735705
 ---------------------------------------------------------------------

 SCF Done:  E(RHF) =  -868.339470810     A.U. after   16 cycles
 E2 =    -0.2599254954D+01 EUMP2 =    -0.87093872576422D+03

 The electronic state is 1-A.
 Alpha  occ. eigenvalues --  -20.61617 -20.61561 -20.59629 -20.59619 -15.86619
 Alpha  occ. eigenvalues --  -15.84669 -11.31771 -11.29735 -11.28337 -11.28285
 Alpha  occ. eigenvalues --  -11.28008 -11.27287 -11.27252 -11.26329 -11.26212
 Alpha  occ. eigenvalues --  -11.25899 -11.25299 -11.25103  -1.60654  -1.58707
 Alpha  occ. eigenvalues --   -1.40214  -1.38270  -1.19922  -1.17865  -1.09356
 Alpha  occ. eigenvalues --   -1.07303  -1.05290  -1.03233  -0.96226  -0.94197
 Alpha  occ. eigenvalues --   -0.86698  -0.84643  -0.83065  -0.81056  -0.78138
 Alpha  occ. eigenvalues --   -0.76152  -0.72846  -0.71971  -0.71023  -0.70902
 Alpha  occ. eigenvalues --   -0.70021  -0.68970  -0.65576  -0.65288  -0.63523
 Alpha  occ. eigenvalues --   -0.63248  -0.62639  -0.60617  -0.55794  -0.53723
 Alpha  occ. eigenvalues --   -0.53631  -0.53376  -0.51590  -0.51352  -0.49596
 Alpha  occ. eigenvalues --   -0.49532  -0.47668  -0.47628  -0.45667  -0.43744
 Alpha  occ. eigenvalues --   -0.37889  -0.36884  -0.35770  -0.34780
 Alpha virt. eigenvalues --    0.04362   0.06384   0.10773   0.12868   0.15904
 Alpha virt. eigenvalues --    0.17974   0.20948   0.22885   0.26872   0.27815
 Alpha virt. eigenvalues --    0.28743   0.29723   0.30543   0.32031   0.32395

 Mulliken charges:
               1
     1  C   -0.169956
     2  C   -0.218508
     3  C   -0.170546
     4  C    0.157641
     5  C   -0.171104
     6  C   -0.218459
     7  H    0.227688
     8  H    0.226047
     9  H    0.277947
    10  H    0.273457
    11  H    0.224561
    12  N    0.488154
    13  O   -0.469713
    14  O   -0.454712
    15  C   -0.164007
    16  C   -0.201387
    17  C   -0.168240
    18  C    0.157141
    19  C   -0.173091
    20  C   -0.220284
    21  H    0.225353
    22  H    0.223808
    23  H    0.271332
    24  H    0.270061
    25  H    0.217323
    26  N    0.488428
    27  O   -0.465273
    28  O   -0.463662
 Sum of Mulliken charges =  -0.00000

 Dipole moment (field-independent basis, Debye):
    X=              8.7104    Y=              3.3467    Z=              0.6286  Tot=              9.3523
 Quadrupole moment (field-independent basis, Debye-Ang):
   XX=            -92.9947   YY=           -100.3108   ZZ=           -103.6114
   XY=            -20.6259   XZ=              1.6414   YZ=             -0.1861

 Normal termination of Gaussian 16 at Thu May  6 09:53:29 2021.
