 Gaussian 16, Revision A.03,
 Gaussian 16:  EM64L-G16RevA.03 25-Dec-2016

 -------------
 #p 6-31g* mp2
 -------------

 ------------------------------------------------------
 Input file generated by CHIRIPA (05-May-2021 14:57:23)
 ------------------------------------------------------
 Symbolic Z-matrix:
 Charge =  0 Multiplicity = 1

                         Standard orientation:
 ---------------------------------------------------------------------
 Center     Atomic      Atomic             Coordinates (Angstroms)
 Number     Number       Type             X           Y           Z
 ---------------------------------------------------------------------
      1          6           0       -4.825163   -1.682892    0.195122
      2          6           0       -5.174987   -0.382887    0.574766
      3          6           0       -4.311312    0.687144    0.322479
      4          6           0       -3.100311    0.419909   -0.314193
      5          6           0       -2.723372   -0.864149   -0.704581
      6          6           0       -3.602627   -1.918958   -0.442216
      7          1           0       -5.502138   -2.508206    0.395020
      8          1           0       -6.123773   -0.196592    1.069887
      9          1           0       -4.557075    1.703421    0.605674
     10          1           0       -1.770713   -1.018635   -1.196510
     11          1           0       -3.328323   -2.927526   -0.738176
     12          7           0       -2.177730    1.544645   -0.586613
     13          8           0       -1.116629    1.282851   -1.148899
     14          8           0       -2.533181    2.666710   -0.232691
     15          6           0        5.403256   -0.038058   -1.034922
     16          6           0        5.324002    0.471456    0.265323
     17          6           0        4.137353    0.368179    0.997269
     18          6           0        3.044422   -0.253533    0.395381
     19          6           0        3.092121   -0.771050   -0.898138
     20          6           0        4.289026   -0.656595   -1.611485
     21          1           0        6.329058    0.046513   -1.596291
     22          1           0        6.187737    0.952325    0.715628
     23          1           0        4.048412    0.753913    2.005591
     24          1           0        2.214341   -1.245094   -1.320280
     25          1           0        4.347685   -1.053203   -2.621092
     26          7           0        1.782741   -0.368787    1.160414
     27          8           0        0.834024   -0.920998    0.607573
     28          8           0        1.766442    0.095272    2.298405
 ---------------------------------------------------------------------

 SCF Done:  E(RHF) =  -868.338727930     A.U. after   16 cycles
 E2 =    -0.2599646174D+01 EUMP2 =    -0.87093837410423D+03

 The electronic state is 1-A.
 Alpha  occ. eigenvalues --  -20.60402 -20.60382 -20.59855 -20.59827 -15.85439
 Alpha  occ. eigenvalues --  -15.84895 -11.30753 -11.30183 -11.27338 -11.27329
 Alpha  occ. eigenvalues --  -11.27095 -11.26834 -11.26725 -11.26602 -11.26358
 Alpha  occ. eigenvalues --  -11.26349 -11.25852 -11.25791  -1.59439  -1.58906
 Alpha  occ. eigenvalues --   -1.39002  -1.38462  -1.18928  -1.18382  -1.08336
 Alpha  occ. eigenvalues --   -1.07806  -1.04339  -1.03791  -0.95185  -0.94647
 Alpha  occ. eigenvalues --   -0.85741  -0.85198  -0.82034  -0.81494  -0.77082
 Alpha  occ. eigenvalues --   -0.76517  -0.71706  -0.71153  -0.70727  -0.70174
 Alpha  occ. eigenvalues --   -0.70064  -0.69531  -0.64603  -0.64362  -0.64060
 Alpha  occ. eigenvalues --   -0.63826  -0.61698  -0.61141  -0.54864  -0.54350
 Alpha  occ. eigenvalues --   -0.52652  -0.52448  -0.52107  -0.51907  -0.48442
 Alpha  occ. eigenvalues --   -0.48416  -0.47892  -0.47875  -0.44515  -0.43763
 Alpha  occ. eigenvalues --   -0.36904  -0.36382  -0.35931  -0.35370
 Alpha virt. eigenvalues --    0.05466   0.06050   0.11726   0.12277   0.16955
 Alpha virt. eigenvalues --    0.17514   0.21641   0.22316   0.27345   0.27996
 Alpha virt. eigenvalues --    0.28501   0.29394   0.31026   0.31870   0.32567

 Mulliken charges:
               1
     1  C   -0.170503
     2  C   -0.219359
     3  C   -0.170617
     4  C    0.158627
     5  C   -0.158276
     6  C   -0.219388
     7  H    0.222031
     8  H    0.219859
     9  H    0.273037
    10  H    0.278964
    11  H    0.220303
    12  N    0.489822
    13  O   -0.460778
    14  O   -0.464760
    15  C   -0.170582
    16  C   -0.218538
    17  C   -0.170120
    18  C    0.161376
    19  C   -0.165434
    20  C   -0.218397
    21  H    0.224287
    22  H    0.222323
    23  H    0.275154
    24  H    0.272570
    25  H    0.221874
    26  N    0.492962
    27  O   -0.465746
    28  O   -0.460689
 Sum of Mulliken charges =  -0.00000

 Dipole moment (field-independent basis, Debye):
    X=              1.3807    Y=             -3.5487    Z=             -1.7225  Tot=              4.1793
 Quadrupole moment (field-independent basis, Debye-Ang):
   XX=            -56.7608   YY=           -106.7080   ZZ=           -104.7851
   XY=             10.2119   XZ=             -8.3404   YZ=              6.2530

 Normal termination of Gaussian 16 at Thu May  6 00:14:35 2021.
