 Gaussian 16, Revision A.03,
 Gaussian 16:  EM64L-G16RevA.03 25-Dec-2016

 -------------
 #p 6-31g* mp2
 -------------

 ------------------------------------------------------
 Input file generated by CHIRIPA (05-May-2021 14:55:24)
 ------------------------------------------------------
 Symbolic Z-matrix:
 Charge =  0 Multiplicity = 1

                         Standard orientation:
 ---------------------------------------------------------------------
 Center     Atomic      Atomic             Coordinates (Angstroms)
 Number     Number       Type             X           Y           Z
 ---------------------------------------------------------------------
      1          6           0       -0.883156    0.616069    1.819053
      2          6           0       -1.024365   -0.754730    1.579275
      3          6           0       -2.046946   -1.229249    0.752409
      4          6           0       -2.914414   -0.300790    0.179038
      5          6           0       -2.799655    1.071021    0.398707
      6          6           0       -1.769688    1.522970    1.229044
      7          1           0       -0.085922    0.975920    2.462730
      8          1           0       -0.337334   -1.461343    2.036146
      9          1           0       -2.179146   -2.285135    0.549815
     10          1           0       -3.499925    1.751151   -0.070827
     11          1           0       -1.662422    2.588109    1.413480
     12          7           0       -4.000884   -0.791195   -0.698165
     13          8           0       -4.752119    0.047257   -1.191399
     14          8           0       -4.080651   -2.004742   -0.875873
     15          6           0        2.903126    0.491485   -0.840381
     16          6           0        2.130908    1.676544   -0.259608
     17          6           0        0.937187    2.084766   -1.123425
     18          1           0        3.250401    0.747952   -1.850614
     19          1           0        2.220863   -0.362618   -0.951833
     20          1           0        2.814747    2.527733   -0.147994
     21          1           0        1.785595    1.417295    0.749434
     22          1           0        0.232756    1.252863   -1.224985
     23          1           0        1.267755    2.369609   -2.127512
     24          1           0        0.399435    2.933648   -0.689741
     25          6           0        4.099372    0.071627    0.011935
     26          6           0        4.871591   -1.113432   -0.568839
     27          6           0        6.065310   -1.521655    0.294979
     28          1           0        4.781635    0.925729    0.123386
     29          1           0        3.752096   -0.184840    1.022168
     30          1           0        5.216903   -0.854183   -1.577880
     31          1           0        4.187752   -1.964621   -0.680452
     32          1           0        5.734742   -1.806497    1.299066
     33          1           0        6.769741   -0.689751    0.396539
     34          1           0        6.603063   -2.370536   -0.138706
 ---------------------------------------------------------------------

 SCF Done:  E(RHF) =  -669.534455379     A.U. after   15 cycles
 E2 =    -0.2093728295D+01 EUMP2 =    -0.67162818367338D+03

 The electronic state is 1-A.
 Alpha  occ. eigenvalues --  -20.60805 -20.60799 -15.85860 -11.31252 -11.27821
 Alpha  occ. eigenvalues --  -11.27793 -11.27541 -11.26847 -11.26809 -11.22196
 Alpha  occ. eigenvalues --  -11.22055 -11.21937 -11.21864 -11.21490 -11.21456
 Alpha  occ. eigenvalues --   -1.59880  -1.39433  -1.19428  -1.08968  -1.08798
 Alpha  occ. eigenvalues --   -1.04830  -1.04012  -0.96448  -0.95645  -0.87464
 Alpha  occ. eigenvalues --   -0.86219  -0.82479  -0.80088  -0.78768  -0.77518
 Alpha  occ. eigenvalues --   -0.72076  -0.71204  -0.70545  -0.65595  -0.65073
 Alpha  occ. eigenvalues --   -0.64830  -0.62176  -0.61448  -0.59832  -0.58070
 Alpha  occ. eigenvalues --   -0.55815  -0.55338  -0.53287  -0.53007  -0.52866
 Alpha  occ. eigenvalues --   -0.52823  -0.50340  -0.48840  -0.48830  -0.48389
 Alpha  occ. eigenvalues --   -0.47123  -0.46308  -0.46225  -0.44833  -0.44285
 Alpha  occ. eigenvalues --   -0.37350  -0.36393
 Alpha virt. eigenvalues --    0.04986   0.11166   0.16384   0.20255   0.22682
 Alpha virt. eigenvalues --    0.24065   0.25508   0.26362   0.26617   0.28147
 Alpha virt. eigenvalues --    0.28681   0.29774   0.31158   0.31709   0.32056

 Mulliken charges:
               1
     1  C   -0.168258
     2  C   -0.220061
     3  C   -0.171698
     4  C    0.158325
     5  C   -0.171723
     6  C   -0.214091
     7  H    0.226064
     8  H    0.223554
     9  H    0.275804
    10  H    0.276002
    11  H    0.223685
    12  N    0.488097
    13  O   -0.460009
    14  O   -0.460351
    15  C   -0.299024
    16  C   -0.299473
    17  C   -0.474099
    18  H    0.152758
    19  H    0.150715
    20  H    0.152103
    21  H    0.141095
    22  H    0.163109
    23  H    0.156741
    24  H    0.151920
    25  C   -0.297472
    26  C   -0.299952
    27  C   -0.475756
    28  H    0.150592
    29  H    0.143864
    30  H    0.154137
    31  H    0.151834
    32  H    0.153584
    33  H    0.155936
    34  H    0.162050
 Sum of Mulliken charges =  -0.00000

 Dipole moment (field-independent basis, Debye):
    X=              3.8184    Y=              1.7061    Z=              3.0184  Tot=              5.1577
 Quadrupole moment (field-independent basis, Debye-Ang):
   XX=           -117.5477   YY=            -91.3419   ZZ=            -94.2455
   XY=             -7.3260   XZ=             -9.1352   YZ=             -1.5158

 Normal termination of Gaussian 16 at Wed May  5 20:44:42 2021.
