 Gaussian 16, Revision A.03,
 Gaussian 16:  EM64L-G16RevA.03 25-Dec-2016

 -------------
 #p 6-31g* mp2
 -------------

 ------------------------------------------------------
 Input file generated by CHIRIPA (05-May-2021 14:55:22)
 ------------------------------------------------------
 Symbolic Z-matrix:
 Charge =  0 Multiplicity = 1

                         Standard orientation:
 ---------------------------------------------------------------------
 Center     Atomic      Atomic             Coordinates (Angstroms)
 Number     Number       Type             X           Y           Z
 ---------------------------------------------------------------------
      1          6           0        3.146904   -2.177514    0.597766
      2          6           0        2.467527   -1.465752    1.591930
      3          6           0        2.163699   -0.112691    1.414556
      4          6           0        2.555943    0.499865    0.225351
      5          6           0        3.233950   -0.182242   -0.783771
      6          6           0        3.527277   -1.534621   -0.584827
      7          1           0        3.378846   -3.228340    0.743933
      8          1           0        2.170897   -1.962445    2.511361
      9          1           0        1.638742    0.462189    2.167783
     10          1           0        3.516713    0.340149   -1.689625
     11          1           0        4.054995   -2.084883   -1.358629
     12          7           0        2.239852    1.931929    0.026155
     13          8           0        2.596338    2.448575   -1.030553
     14          8           0        1.641600    2.510619    0.930506
     15          6           0       -3.998300    0.038407   -0.410134
     16          6           0       -4.978653   -0.207476    0.737226
     17          6           0       -6.294380    0.551791    0.563534
     18          1           0       -3.794633    1.115339   -0.485522
     19          1           0       -4.471134   -0.257308   -1.356906
     20          1           0       -4.503605    0.087320    1.681705
     21          1           0       -5.179861   -1.283967    0.810012
     22          1           0       -6.793124    0.251214   -0.363563
     23          1           0       -6.113025    1.630293    0.513082
     24          1           0       -6.980387    0.361647    1.394858
     25          6           0       -2.678279   -0.713847   -0.250808
     26          6           0       -1.697926   -0.467964   -1.398168
     27          6           0       -0.382198   -1.227231   -1.224477
     28          1           0       -2.205445   -0.418133    0.695963
     29          1           0       -2.881945   -1.790779   -0.175422
     30          1           0       -1.496718    0.608527   -1.470955
     31          1           0       -2.172974   -0.762761   -2.342647
     32          1           0       -0.563554   -2.305734   -1.174024
     33          1           0        0.116544   -0.926655   -0.297380
     34          1           0        0.303809   -1.037087   -2.055801
 ---------------------------------------------------------------------

 SCF Done:  E(RHF) =  -669.534015672     A.U. after   15 cycles
 E2 =    -0.2094017380D+01 EUMP2 =    -0.67162803305153D+03

 The electronic state is 1-A.
 Alpha  occ. eigenvalues --  -20.60810 -20.60804 -15.85862 -11.31192 -11.27790
 Alpha  occ. eigenvalues --  -11.27778 -11.27562 -11.26838 -11.26826 -11.21468
 Alpha  occ. eigenvalues --  -11.21380 -11.21260 -11.21177 -11.20921 -11.20833
 Alpha  occ. eigenvalues --   -1.59886  -1.39440  -1.19424  -1.08803  -1.08266
 Alpha  occ. eigenvalues --   -1.04827  -1.03368  -0.95840  -0.95629  -0.86851
 Alpha  occ. eigenvalues --   -0.86216  -0.82473  -0.79439  -0.78086  -0.77518
 Alpha  occ. eigenvalues --   -0.72084  -0.71218  -0.70522  -0.65067  -0.64901
 Alpha  occ. eigenvalues --   -0.64822  -0.62169  -0.60805  -0.59204  -0.57456
 Alpha  occ. eigenvalues --   -0.55354  -0.55317  -0.53393  -0.52911  -0.52443
 Alpha  occ. eigenvalues --   -0.52013  -0.49639  -0.48842  -0.48838  -0.47730
 Alpha  occ. eigenvalues --   -0.46427  -0.45615  -0.45541  -0.44847  -0.43628
 Alpha  occ. eigenvalues --   -0.37357  -0.36375
 Alpha virt. eigenvalues --    0.04990   0.11178   0.16481   0.21360   0.23015
 Alpha virt. eigenvalues --    0.24427   0.26769   0.27219   0.27727   0.28120
 Alpha virt. eigenvalues --    0.28300   0.30938   0.31642   0.31845   0.32080

 Mulliken charges:
               1
     1  C   -0.169744
     2  C   -0.213890
     3  C   -0.180647
     4  C    0.165267
     5  C   -0.170040
     6  C   -0.215718
     7  H    0.226087
     8  H    0.224037
     9  H    0.275359
    10  H    0.275571
    11  H    0.223877
    12  N    0.487912
    13  O   -0.460491
    14  O   -0.461189
    15  C   -0.298777
    16  C   -0.299472
    17  C   -0.475790
    18  H    0.153640
    19  H    0.148996
    20  H    0.151754
    21  H    0.150021
    22  H    0.154802
    23  H    0.156927
    24  H    0.159404
    25  C   -0.297342
    26  C   -0.300780
    27  C   -0.480797
    28  H    0.147964
    29  H    0.146632
    30  H    0.157436
    31  H    0.150605
    32  H    0.149472
    33  H    0.161466
    34  H    0.157447
 Sum of Mulliken charges =  -0.00000

 Dipole moment (field-independent basis, Debye):
    X=              1.2421    Y=             -5.0065    Z=              0.7187  Tot=              5.2081
 Quadrupole moment (field-independent basis, Debye-Ang):
   XX=            -89.5358   YY=           -100.1434   ZZ=            -90.3799
   XY=            -12.2196   XZ=             -0.0295   YZ=             -0.4082

 Normal termination of Gaussian 16 at Thu May  6 09:23:38 2021.
