 Gaussian 16, Revision A.03,
 Gaussian 16:  EM64L-G16RevA.03 25-Dec-2016

 -------------
 #p 6-31g* mp2
 -------------

 ------------------------------------------------------
 Input file generated by CHIRIPA (05-May-2021 14:53:13)
 ------------------------------------------------------
 Symbolic Z-matrix:
 Charge =  0 Multiplicity = 1

                         Standard orientation:
 ---------------------------------------------------------------------
 Center     Atomic      Atomic             Coordinates (Angstroms)
 Number     Number       Type             X           Y           Z
 ---------------------------------------------------------------------
      1          6           0        3.322534    0.796642   -0.065199
      2          6           0        2.020233    1.597697   -0.082781
      3          6           0        2.254388    3.107838   -0.033389
      4          1           0        3.890258    1.051686    0.840111
      5          1           0        3.943327    1.100500   -0.919412
      6          1           0        1.401483    1.291428    0.770427
      7          1           0        1.455454    1.340574   -0.988059
      8          1           0        2.850873    3.433467   -0.891744
      9          1           0        2.796595    3.384042    0.876734
     10          1           0        1.310187    3.661158   -0.046904
     11          6           0        3.104886   -0.714637   -0.114116
     12          6           0        4.407186   -1.515693   -0.096533
     13          6           0        4.173032   -3.025834   -0.145925
     14          1           0        2.484092   -1.018496    0.740098
     15          1           0        2.537162   -0.969682   -1.019426
     16          1           0        4.971965   -1.258569    0.808744
     17          1           0        5.025936   -1.209424   -0.949741
     18          1           0        3.630824   -3.302038   -1.056048
     19          1           0        3.576546   -3.351463    0.712429
     20          1           0        5.117232   -3.579154   -0.132410
     21          6           0       -1.532274    2.290265    0.194597
     22          6           0       -2.211009    1.877458   -0.956676
     23          6           0       -2.757182    0.593001   -1.036755
     24          6           0       -2.605302   -0.256544    0.058003
     25          6           0       -1.934553    0.125437    1.218812
     26          6           0       -1.396452    1.414481    1.276759
     27          1           0       -1.111129    3.289845    0.248208
     28          1           0       -2.318021    2.555475   -1.798631
     29          1           0       -3.287481    0.247557   -1.915885
     30          1           0       -1.844014   -0.572879    2.041962
     31          1           0       -0.869846    1.732363    2.172126
     32          7           0       -3.179239   -1.618770   -0.015057
     33          8           0       -3.031810   -2.348279    0.963063
     34          8           0       -3.765651   -1.931179   -1.049058
 ---------------------------------------------------------------------

 SCF Done:  E(RHF) =  -669.533918559     A.U. after   15 cycles
 E2 =    -0.2093746483D+01 EUMP2 =    -0.67162766504208D+03

 The electronic state is 1-A.
 Alpha  occ. eigenvalues --  -20.60772 -20.60766 -15.85826 -11.31197 -11.27775
 Alpha  occ. eigenvalues --  -11.27764 -11.27492 -11.26789 -11.26769 -11.22062
 Alpha  occ. eigenvalues --  -11.21910 -11.21760 -11.21749 -11.21602 -11.21105
 Alpha  occ. eigenvalues --   -1.59847  -1.39401  -1.19379  -1.08839  -1.08706
 Alpha  occ. eigenvalues --   -1.04791  -1.03904  -0.96382  -0.95597  -0.87385
 Alpha  occ. eigenvalues --   -0.86189  -0.82441  -0.79969  -0.78549  -0.77482
 Alpha  occ. eigenvalues --   -0.72045  -0.71170  -0.70514  -0.65428  -0.65030
 Alpha  occ. eigenvalues --   -0.64793  -0.62147  -0.61289  -0.59834  -0.58006
 Alpha  occ. eigenvalues --   -0.55649  -0.55304  -0.53205  -0.52971  -0.52887
 Alpha  occ. eigenvalues --   -0.52756  -0.50293  -0.48808  -0.48799  -0.48255
 Alpha  occ. eigenvalues --   -0.46995  -0.46087  -0.46007  -0.44805  -0.44154
 Alpha  occ. eigenvalues --   -0.37274  -0.36336
 Alpha virt. eigenvalues --    0.05025   0.11189   0.16394   0.20042   0.22838
 Alpha virt. eigenvalues --    0.24190   0.25904   0.26404   0.26871   0.27763
 Alpha virt. eigenvalues --    0.28748   0.29953   0.31135   0.31851   0.32248

 Mulliken charges:
               1
     1  C   -0.298898
     2  C   -0.300578
     3  C   -0.477400
     4  H    0.148633
     5  H    0.149866
     6  H    0.151789
     7  H    0.154610
     8  H    0.159303
     9  H    0.156402
    10  H    0.146988
    11  C   -0.298007
    12  C   -0.300005
    13  C   -0.476063
    14  H    0.149128
    15  H    0.151705
    16  H    0.151306
    17  H    0.151911
    18  H    0.156952
    19  H    0.156653
    20  H    0.160665
    21  C   -0.165401
    22  C   -0.220492
    23  C   -0.170810
    24  C    0.158879
    25  C   -0.171741
    26  C   -0.218340
    27  H    0.227765
    28  H    0.223548
    29  H    0.275598
    30  H    0.275379
    31  H    0.223531
    32  N    0.488083
    33  O   -0.460453
    34  O   -0.460507
 Sum of Mulliken charges =  -0.00000

 Dipole moment (field-independent basis, Debye):
    X=              2.0412    Y=              4.7086    Z=              0.2235  Tot=              5.1369
 Quadrupole moment (field-independent basis, Debye-Ang):
   XX=           -105.4772   YY=            -99.1803   ZZ=            -89.5199
   XY=            -13.7121   XZ=              1.1386   YZ=             -0.9041

 Normal termination of Gaussian 16 at Thu May  6 04:08:41 2021.
