 Gaussian 16, Revision A.03,
 Gaussian 16:  EM64L-G16RevA.03 25-Dec-2016

 -------------
 #p 6-31g* mp2
 -------------

 ------------------------------------------------------
 Input file generated by CHIRIPA (05-May-2021 14:57:23)
 ------------------------------------------------------
 Symbolic Z-matrix:
 Charge =  0 Multiplicity = 1

                         Standard orientation:
 ---------------------------------------------------------------------
 Center     Atomic      Atomic             Coordinates (Angstroms)
 Number     Number       Type             X           Y           Z
 ---------------------------------------------------------------------
      1          6           0       -1.855828   -2.048158    0.029192
      2          6           0       -2.755219   -1.869891   -1.027139
      3          6           0       -3.681659   -0.823172   -1.001867
      4          6           0       -3.680904    0.030383    0.100282
      5          6           0       -2.797622   -0.121154    1.168056
      6          6           0       -1.879857   -1.174760    1.121492
      7          1           0       -1.139516   -2.863950    0.001291
      8          1           0       -2.738842   -2.546645   -1.876716
      9          1           0       -4.389236   -0.662155   -1.806122
     10          1           0       -2.838016    0.569678    2.001445
     11          1           0       -1.182562   -1.310793    1.943271
     12          7           0       -4.657092    1.142143    0.138306
     13          8           0       -4.636107    1.880441    1.120708
     14          8           0       -5.424729    1.254192   -0.815012
     15          6           0        3.075951   -2.321924    0.116294
     16          6           0        2.091598   -1.475943   -0.405133
     17          6           0        2.326673   -0.103129   -0.526251
     18          6           0        3.562947    0.392100   -0.114347
     19          6           0        4.563730   -0.425053    0.409085
     20          6           0        4.306705   -1.794708    0.521026
     21          1           0        2.884813   -3.387131    0.206817
     22          1           0        1.134849   -1.882606   -0.720255
     23          1           0        1.582310    0.574494   -0.926464
     24          1           0        5.507678    0.009612    0.714774
     25          1           0        5.073020   -2.449330    0.926336
     26          7           0        3.823429    1.843765   -0.237712
     27          8           0        4.920850    2.255339    0.132302
     28          8           0        2.925241    2.542518   -0.702083
 ---------------------------------------------------------------------

 SCF Done:  E(RHF) =  -868.336636792     A.U. after   16 cycles
 E2 =    -0.2600441566D+01 EUMP2 =    -0.87093707835761D+03

 The electronic state is 1-A.
 Alpha  occ. eigenvalues --  -20.61133 -20.61127 -20.61118 -20.61109 -15.86192
 Alpha  occ. eigenvalues --  -15.86174 -11.31755 -11.31702 -11.28314 -11.28299
 Alpha  occ. eigenvalues --  -11.28292 -11.28284 -11.28224 -11.28127 -11.27453
 Alpha  occ. eigenvalues --  -11.27422 -11.27394 -11.27331  -1.60206  -1.60185
 Alpha  occ. eigenvalues --   -1.39755  -1.39732  -1.19953  -1.19905  -1.09348
 Alpha  occ. eigenvalues --   -1.09281  -1.05365  -1.05325  -0.96135  -0.96087
 Alpha  occ. eigenvalues --   -0.86774  -0.86725  -0.82968  -0.82887  -0.77944
 Alpha  occ. eigenvalues --   -0.77908  -0.72406  -0.72390  -0.71534  -0.71508
 Alpha  occ. eigenvalues --   -0.71150  -0.71024  -0.65611  -0.65560  -0.65441
 Alpha  occ. eigenvalues --   -0.65273  -0.62696  -0.62658  -0.56033  -0.55809
 Alpha  occ. eigenvalues --   -0.53787  -0.53641  -0.53450  -0.53340  -0.49182
 Alpha  occ. eigenvalues --   -0.49163  -0.49151  -0.49130  -0.45127  -0.45089
 Alpha  occ. eigenvalues --   -0.38043  -0.37896  -0.37037  -0.36833
 Alpha virt. eigenvalues --    0.04520   0.04617   0.10541   0.10805   0.15775
 Alpha virt. eigenvalues --    0.16058   0.19419   0.21734   0.25563   0.26782
 Alpha virt. eigenvalues --    0.27613   0.28777   0.30079   0.31181   0.32037

 Mulliken charges:
               1
     1  C   -0.178069
     2  C   -0.219012
     3  C   -0.170307
     4  C    0.160411
     5  C   -0.170084
     6  C   -0.218026
     7  H    0.217840
     8  H    0.224200
     9  H    0.278133
    10  H    0.279341
    11  H    0.226308
    12  N    0.487980
    13  O   -0.457234
    14  O   -0.458512
    15  C   -0.172622
    16  C   -0.223453
    17  C   -0.171880
    18  C    0.158844
    19  C   -0.170296
    20  C   -0.218342
    21  H    0.222954
    22  H    0.219335
    23  H    0.279304
    24  H    0.277538
    25  H    0.224846
    26  N    0.487849
    27  O   -0.459084
    28  O   -0.457961
 Sum of Mulliken charges =  -0.00000

 Dipole moment (field-independent basis, Debye):
    X=              2.4095    Y=             -8.7806    Z=              0.3494  Tot=              9.1119
 Quadrupole moment (field-independent basis, Debye-Ang):
   XX=           -131.2482   YY=           -110.1854   ZZ=           -101.0376
   XY=             -4.2699   XZ=              6.3817   YZ=              1.5149

 Normal termination of Gaussian 16 at Fri May  7 09:27:53 2021.
