 Gaussian 16, Revision A.03,
 Gaussian 16:  EM64L-G16RevA.03 25-Dec-2016

 -------------
 #p 6-31g* mp2
 -------------

 ------------------------------------------------------
 Input file generated by CHIRIPA (05-May-2021 14:51:12)
 ------------------------------------------------------
 Symbolic Z-matrix:
 Charge =  0 Multiplicity = 1

                         Standard orientation:
 ---------------------------------------------------------------------
 Center     Atomic      Atomic             Coordinates (Angstroms)
 Number     Number       Type             X           Y           Z
 ---------------------------------------------------------------------
      1          6           0       -3.422685    0.840029   -0.050868
      2          6           0       -2.321688    1.528369   -0.858320
      3          6           0       -2.105039    2.983508   -0.441873
      4          1           0       -4.360248    1.400288   -0.169321
      5          1           0       -3.165908    0.882523    1.016679
      6          1           0       -2.579789    1.483372   -1.924141
      7          1           0       -1.386682    0.966298   -0.738085
      8          1           0       -1.823234    3.044069    0.614308
      9          1           0       -3.023120    3.564081   -0.578487
     10          1           0       -1.313673    3.456355   -1.031801
     11          6           0       -3.651030   -0.615229   -0.455601
     12          6           0       -4.752026   -1.303569    0.351851
     13          6           0       -4.968675   -2.758708   -0.064595
     14          1           0       -3.907806   -0.657722   -1.523147
     15          1           0       -2.713467   -1.175488   -0.337148
     16          1           0       -5.687032   -0.741498    0.231616
     17          1           0       -4.493925   -1.258572    1.417673
     18          1           0       -4.050594   -3.339280    0.072019
     19          1           0       -5.250480   -2.819268   -1.120777
     20          1           0       -5.760042   -3.231555    0.525332
     21          6           0        4.023621   -0.664761    0.049789
     22          6           0        5.401786   -0.139962   -0.354233
     23          6           0        6.364441   -1.256910   -0.758604
     24          1           0        4.137363   -1.372127    0.882640
     25          1           0        3.595759   -1.233667   -0.787276
     26          1           0        5.826329    0.428953    0.482853
     27          1           0        5.284731    0.566382   -1.186093
     28          1           0        5.966056   -1.819757   -1.608952
     29          1           0        6.510732   -1.957967    0.069477
     30          1           0        7.343547   -0.859438   -1.043609
     31          6           0        3.050094    0.439961    0.456681
     32          6           0        1.671929   -0.084838    0.860701
     33          6           0        0.709273    1.032109    1.265072
     34          1           0        3.477955    1.008867    1.293744
     35          1           0        2.936352    1.147327   -0.376171
     36          1           0        1.788983   -0.791183    1.692562
     37          1           0        1.247385   -0.653753    0.023615
     38          1           0        0.562983    1.733167    0.436991
     39          1           0        1.107658    1.594958    2.115421
     40          1           0       -0.269832    0.634638    1.550078
 ---------------------------------------------------------------------

 SCF Done:  E(RHF) =  -470.732172889     A.U. after   11 cycles
 E2 =    -0.1583857085D+01 EUMP2 =    -0.47231602997354D+03

 The electronic state is 1-A.
 Alpha  occ. eigenvalues --  -11.21660 -11.21622 -11.21589 -11.21463 -11.21439
 Alpha  occ. eigenvalues --  -11.21379 -11.21377 -11.21314 -11.21086 -11.21078
 Alpha  occ. eigenvalues --  -11.21062 -11.20991  -1.08478  -1.08383  -1.03620
 Alpha  occ. eigenvalues --   -1.03440  -0.96070  -0.95897  -0.87044  -0.86956
 Alpha  occ. eigenvalues --   -0.79646  -0.79542  -0.78278  -0.78209  -0.65225
 Alpha  occ. eigenvalues --   -0.64953  -0.61289  -0.60660  -0.59342  -0.59308
 Alpha  occ. eigenvalues --   -0.57645  -0.57547  -0.55522  -0.55001  -0.52695
 Alpha  occ. eigenvalues --   -0.52637  -0.52430  -0.52360  -0.49946  -0.49879
 Alpha  occ. eigenvalues --   -0.47935  -0.47853  -0.46716  -0.46504  -0.45834
 Alpha  occ. eigenvalues --   -0.45745  -0.45724  -0.45634  -0.43813  -0.43740
 Alpha virt. eigenvalues --    0.20680   0.22995   0.23764   0.24755   0.26041
 Alpha virt. eigenvalues --    0.26371   0.26838   0.27425   0.28083   0.29417
 Alpha virt. eigenvalues --    0.30341   0.31388   0.31732   0.32023   0.32082

 Mulliken charges:
               1
     1  C   -0.299412
     2  C   -0.304897
     3  C   -0.477949
     4  H    0.149712
     5  H    0.149511
     6  H    0.151047
     7  H    0.159736
     8  H    0.158590
     9  H    0.155137
    10  H    0.158388
    11  C   -0.298474
    12  C   -0.299560
    13  C   -0.475704
    14  H    0.149569
    15  H    0.149312
    16  H    0.151996
    17  H    0.151733
    18  H    0.155155
    19  H    0.155146
    20  H    0.160212
    21  C   -0.298329
    22  C   -0.299692
    23  C   -0.475734
    24  H    0.149697
    25  H    0.149607
    26  H    0.151982
    27  H    0.152018
    28  H    0.155241
    29  H    0.155197
    30  H    0.160339
    31  C   -0.298373
    32  C   -0.302219
    33  C   -0.481786
    34  H    0.149829
    35  H    0.149909
    36  H    0.152175
    37  H    0.152164
    38  H    0.161647
    39  H    0.155821
    40  H    0.161260
 Sum of Mulliken charges =  -0.00000

 Dipole moment (field-independent basis, Debye):
    X=              0.0358    Y=              0.0109    Z=              0.0122  Tot=              0.0393
 Quadrupole moment (field-independent basis, Debye-Ang):
   XX=            -85.0154   YY=            -86.3420   ZZ=            -83.5495
   XY=              0.0637   XZ=              0.9498   YZ=             -0.6586

 Normal termination of Gaussian 16 at Wed May  5 23:08:08 2021.
