 Gaussian 16, Revision A.03,
 Gaussian 16:  EM64L-G16RevA.03 25-Dec-2016

 -------------
 #p 6-31g* mp2
 -------------

 ------------------------------------------------------
 Input file generated by CHIRIPA (05-May-2021 14:51:12)
 ------------------------------------------------------
 Symbolic Z-matrix:
 Charge =  0 Multiplicity = 1

                         Standard orientation:
 ---------------------------------------------------------------------
 Center     Atomic      Atomic             Coordinates (Angstroms)
 Number     Number       Type             X           Y           Z
 ---------------------------------------------------------------------
      1          6           0       -2.412801   -1.437612   -0.074702
      2          6           0       -1.424033   -2.062372    0.910183
      3          6           0       -1.277920   -3.572820    0.723114
      4          1           0       -3.392823   -1.919715    0.043946
      5          1           0       -2.081817   -1.650638   -1.100599
      6          1           0       -1.756037   -1.847049    1.933914
      7          1           0       -0.446300   -1.578593    0.789309
      8          1           0       -0.924112   -3.803462   -0.286947
      9          1           0       -2.241291   -4.073444    0.864161
     10          1           0       -0.566417   -3.998842    1.437347
     11          6           0       -2.569681    0.071910    0.099829
     12          6           0       -3.558448    0.696671   -0.885056
     13          6           0       -3.704561    2.207118   -0.697988
     14          1           0       -2.900665    0.284937    1.125725
     15          1           0       -1.589659    0.554014   -0.018819
     16          1           0       -4.536182    0.212892   -0.764183
     17          1           0       -3.226445    0.481348   -1.908788
     18          1           0       -2.741191    2.707742   -0.839034
     19          1           0       -4.058370    2.437761    0.312074
     20          1           0       -4.416065    2.633141   -1.412220
     21          6           0        2.466243   -0.080488   -0.001586
     22          6           0        3.608032   -0.735817   -0.779306
     23          6           0        3.544335   -2.263154   -0.748086
     24          1           0        2.493246   -0.428810    1.039993
     25          1           0        1.507094   -0.417005   -0.418940
     26          1           0        4.564753   -0.397086   -0.361500
     27          1           0        3.578423   -0.385746   -1.819109
     28          1           0        2.604932   -2.618535   -1.183778
     29          1           0        3.596865   -2.629938    0.282113
     30          1           0        4.369810   -2.710967   -1.310150
     31          6           0        2.516239    1.446190   -0.023540
     32          6           0        1.374450    2.101518    0.754179
     33          6           0        1.438147    3.628856    0.722960
     34          1           0        3.475388    1.782707    0.393813
     35          1           0        2.489236    1.794512   -1.065120
     36          1           0        1.404059    1.751448    1.793982
     37          1           0        0.417729    1.762787    0.336373
     38          1           0        1.385617    3.995640   -0.307240
     39          1           0        2.377550    3.984236    1.158652
     40          1           0        0.612672    4.076669    1.285023
 ---------------------------------------------------------------------

 SCF Done:  E(RHF) =  -470.733078744     A.U. after   11 cycles
 E2 =    -0.1584224579D+01 EUMP2 =    -0.47231730332292D+03

 The electronic state is 1-A.
 Alpha  occ. eigenvalues --  -11.21656 -11.21623 -11.21608 -11.21520 -11.21470
 Alpha  occ. eigenvalues --  -11.21407 -11.21389 -11.21330 -11.21109 -11.21095
 Alpha  occ. eigenvalues --  -11.21082 -11.21029  -1.08500  -1.08406  -1.03576
 Alpha  occ. eigenvalues --   -1.03505  -0.96023  -0.95963  -0.87046  -0.86970
 Alpha  occ. eigenvalues --   -0.79673  -0.79540  -0.78447  -0.78100  -0.65272
 Alpha  occ. eigenvalues --   -0.64913  -0.61050  -0.60847  -0.59407  -0.59313
 Alpha  occ. eigenvalues --   -0.57647  -0.57556  -0.55312  -0.55258  -0.52716
 Alpha  occ. eigenvalues --   -0.52649  -0.52483  -0.52360  -0.50044  -0.49840
 Alpha  occ. eigenvalues --   -0.48065  -0.47804  -0.46823  -0.46628  -0.46279
 Alpha  occ. eigenvalues --   -0.45790  -0.45730  -0.45014  -0.43828  -0.43761
 Alpha virt. eigenvalues --    0.20179   0.22554   0.23642   0.24636   0.25410
 Alpha virt. eigenvalues --    0.26637   0.26932   0.27294   0.28609   0.29622
 Alpha virt. eigenvalues --    0.31039   0.31480   0.31648   0.31983   0.32174

 Mulliken charges:
               1
     1  C   -0.297247
     2  C   -0.306720
     3  C   -0.475145
     4  H    0.149691
     5  H    0.148350
     6  H    0.151597
     7  H    0.159327
     8  H    0.154495
     9  H    0.154895
    10  H    0.160386
    11  C   -0.308074
    12  C   -0.298962
    13  C   -0.476018
    14  H    0.149754
    15  H    0.158280
    16  H    0.152151
    17  H    0.151394
    18  H    0.154984
    19  H    0.155344
    20  H    0.160341
    21  C   -0.303178
    22  C   -0.299456
    23  C   -0.475908
    24  H    0.150525
    25  H    0.152955
    26  H    0.152329
    27  H    0.151885
    28  H    0.155130
    29  H    0.155490
    30  H    0.160551
    31  C   -0.297492
    32  C   -0.308866
    33  C   -0.475279
    34  H    0.149931
    35  H    0.149269
    36  H    0.152488
    37  H    0.159761
    38  H    0.154795
    39  H    0.155353
    40  H    0.160893
 Sum of Mulliken charges =  -0.00000

 Dipole moment (field-independent basis, Debye):
    X=              0.0368    Y=              0.0162    Z=              0.0181  Tot=              0.0441
 Quadrupole moment (field-independent basis, Debye-Ang):
   XX=            -83.8952   YY=            -87.2357   ZZ=            -83.6083
   XY=              0.3937   XZ=             -0.0173   YZ=             -0.1854

 Normal termination of Gaussian 16 at Thu May  6 07:05:44 2021.
