 Gaussian 16, Revision A.03,
 Gaussian 16:  EM64L-G16RevA.03 25-Dec-2016

 -------------
 #p 6-31g* mp2
 -------------

 ------------------------------------------------------
 Input file generated by CHIRIPA (05-May-2021 14:55:24)
 ------------------------------------------------------
 Symbolic Z-matrix:
 Charge =  0 Multiplicity = 1

                         Standard orientation:
 ---------------------------------------------------------------------
 Center     Atomic      Atomic             Coordinates (Angstroms)
 Number     Number       Type             X           Y           Z
 ---------------------------------------------------------------------
      1          6           0       -5.462343   -0.571911   -0.735828
      2          6           0       -5.002705    0.743409   -0.859064
      3          6           0       -3.780191    1.123859   -0.297578
      4          6           0       -3.039670    0.158926    0.383468
      5          6           0       -3.470648   -1.159408    0.523271
      6          6           0       -4.696199   -1.517454   -0.046269
      7          1           0       -6.413201   -0.858752   -1.175132
      8          1           0       -5.595593    1.479845   -1.394032
      9          1           0       -3.400555    2.135211   -0.377966
     10          1           0       -2.857399   -1.871240    1.062380
     11          1           0       -5.050665   -2.539675    0.051013
     12          7           0       -1.743842    0.549832    0.982151
     13          8           0       -1.110209   -0.319087    1.577234
     14          8           0       -1.386342    1.717743    0.844980
     15          6           0        3.560249    0.182689   -0.720263
     16          6           0        2.272755   -0.617326   -0.519459
     17          6           0        1.073484    0.002708   -1.237164
     18          1           0        3.406407    1.209260   -0.360500
     19          1           0        3.773563    0.257010   -1.795609
     20          1           0        2.062678   -0.691296    0.555255
     21          1           0        2.429740   -1.642164   -0.879566
     22          1           0        1.257744    0.061769   -2.314735
     23          1           0        0.888596    1.018040   -0.871761
     24          1           0        0.163775   -0.585229   -1.080258
     25          6           0        4.768042   -0.424609   -0.008819
     26          6           0        6.055534    0.375406   -0.209623
     27          6           0        7.254806   -0.244628    0.508082
     28          1           0        4.554726   -0.498930    1.066527
     29          1           0        4.921883   -1.451180   -0.368582
     30          1           0        5.898550    1.400245    0.150484
     31          1           0        6.265612    0.449376   -1.284338
     32          1           0        7.439693   -1.259960    0.142679
     33          1           0        7.070546   -0.303688    1.585654
     34          1           0        8.164514    0.343310    0.351176
 ---------------------------------------------------------------------

 SCF Done:  E(RHF) =  -669.536221383     A.U. after   15 cycles
 E2 =    -0.2092269324D+01 EUMP2 =    -0.67162849070662D+03

 The electronic state is 1-A.
 Alpha  occ. eigenvalues --  -20.60946 -20.60941 -15.85939 -11.31274 -11.27837
 Alpha  occ. eigenvalues --  -11.27830 -11.27573 -11.26841 -11.26831 -11.20924
 Alpha  occ. eigenvalues --  -11.20560 -11.20501 -11.20404 -11.20342 -11.19848
 Alpha  occ. eigenvalues --   -1.59983  -1.39543  -1.19439  -1.08844  -1.07513
 Alpha  occ. eigenvalues --   -1.04835  -1.02594  -0.95690  -0.95074  -0.86236
 Alpha  occ. eigenvalues --   -0.86111  -0.82525  -0.78697  -0.77577  -0.77302
 Alpha  occ. eigenvalues --   -0.72183  -0.71311  -0.70549  -0.65096  -0.64840
 Alpha  occ. eigenvalues --   -0.64133  -0.62183  -0.59966  -0.58474  -0.56679
 Alpha  occ. eigenvalues --   -0.55344  -0.54349  -0.53158  -0.52928  -0.51807
 Alpha  occ. eigenvalues --   -0.51508  -0.49142  -0.48945  -0.48796  -0.47024
 Alpha  occ. eigenvalues --   -0.45742  -0.45017  -0.44813  -0.44607  -0.42881
 Alpha  occ. eigenvalues --   -0.37414  -0.36434
 Alpha virt. eigenvalues --    0.04915   0.11211   0.16376   0.21347   0.23773
 Alpha virt. eigenvalues --    0.25249   0.27267   0.27579   0.28168   0.28419
 Alpha virt. eigenvalues --    0.28845   0.30926   0.32111   0.32388   0.32608

 Mulliken charges:
               1
     1  C   -0.170495
     2  C   -0.218591
     3  C   -0.170359
     4  C    0.158184
     5  C   -0.171560
     6  C   -0.218525
     7  H    0.225946
     8  H    0.223804
     9  H    0.275877
    10  H    0.275915
    11  H    0.223781
    12  N    0.490170
    13  O   -0.458983
    14  O   -0.458657
    15  C   -0.298697
    16  C   -0.300003
    17  C   -0.479310
    18  H    0.152586
    19  H    0.144798
    20  H    0.166969
    21  H    0.144330
    22  H    0.145327
    23  H    0.171618
    24  H    0.150459
    25  C   -0.297972
    26  C   -0.299085
    27  C   -0.475260
    28  H    0.151472
    29  H    0.146888
    30  H    0.152295
    31  H    0.149910
    32  H    0.153682
    33  H    0.155321
    34  H    0.158167
 Sum of Mulliken charges =  -0.00000

 Dipole moment (field-independent basis, Debye):
    X=             -4.8120    Y=             -1.2818    Z=             -1.9287  Tot=              5.3403
 Quadrupole moment (field-independent basis, Debye-Ang):
   XX=            -69.1791   YY=            -90.7270   ZZ=            -96.4159
   XY=              3.2208   XZ=              4.8579   YZ=             -2.1870

 Normal termination of Gaussian 16 at Wed May  5 16:05:22 2021.
