 Gaussian 16, Revision A.03,
 Gaussian 16:  EM64L-G16RevA.03 25-Dec-2016

 -------------
 #p 6-31g* mp2
 -------------

 ------------------------------------------------------
 Input file generated by CHIRIPA (05-May-2021 14:57:25)
 ------------------------------------------------------
 Symbolic Z-matrix:
 Charge =  0 Multiplicity = 1

                         Standard orientation:
 ---------------------------------------------------------------------
 Center     Atomic      Atomic             Coordinates (Angstroms)
 Number     Number       Type             X           Y           Z
 ---------------------------------------------------------------------
      1          6           0        3.387739    0.651295   -1.516879
      2          6           0        3.548576    0.924686   -0.154562
      3          6           0        2.797864    0.234261    0.801625
      4          6           0        1.891308   -0.727435    0.358245
      5          6           0        1.708360   -1.022438   -0.991864
      6          6           0        2.469763   -0.319683   -1.930453
      7          1           0        3.975062    1.192422   -2.252833
      8          1           0        4.260745    1.678231    0.169523
      9          1           0        2.902348    0.425955    1.862641
     10          1           0        0.990594   -1.779177   -1.284398
     11          1           0        2.342755   -0.534094   -2.987781
     12          7           0        1.090904   -1.464883    1.361202
     13          8           0        0.298848   -2.307438    0.944808
     14          8           0        1.270760   -1.186376    2.544723
     15          6           0       -3.320935   -1.372285   -1.069687
     16          6           0       -3.662026   -0.801019    0.160693
     17          6           0       -2.949930    0.295283    0.656264
     18          6           0       -1.897766    0.797137   -0.108185
     19          6           0       -1.533785    0.249954   -1.337574
     20          6           0       -2.259775   -0.845903   -1.813582
     21          1           0       -3.879505   -2.223745   -1.447060
     22          1           0       -4.485666   -1.207724    0.740565
     23          1           0       -3.192686    0.756934    1.605667
     24          1           0       -0.707772    0.677397   -1.892924
     25          1           0       -1.992647   -1.287522   -2.769438
     26          7           0       -1.136548    1.957508    0.406099
     27          8           0       -0.213784    2.381053   -0.286543
     28          8           0       -1.477084    2.421489    1.492098
 ---------------------------------------------------------------------

 SCF Done:  E(RHF) =  -868.337265257     A.U. after   16 cycles
 E2 =    -0.2604201047D+01 EUMP2 =    -0.87094146630369D+03

 The electronic state is 1-A.
 Alpha  occ. eigenvalues --  -20.60568 -20.60566 -20.60551 -20.60549 -15.85602
 Alpha  occ. eigenvalues --  -15.85597 -11.30824 -11.30803 -11.27512 -11.27448
 Alpha  occ. eigenvalues --  -11.27360 -11.27355 -11.27161 -11.27131 -11.26501
 Alpha  occ. eigenvalues --  -11.26452 -11.26302 -11.26296  -1.59646  -1.59634
 Alpha  occ. eigenvalues --   -1.39194  -1.39191  -1.19036  -1.18963  -1.08442
 Alpha  occ. eigenvalues --   -1.08401  -1.04496  -1.04326  -0.95324  -0.95244
 Alpha  occ. eigenvalues --   -0.85861  -0.85776  -0.82171  -0.82102  -0.77236
 Alpha  occ. eigenvalues --   -0.77160  -0.71840  -0.71826  -0.71195  -0.70752
 Alpha  occ. eigenvalues --   -0.70217  -0.70062  -0.64704  -0.64660  -0.64450
 Alpha  occ. eigenvalues --   -0.64428  -0.61889  -0.61685  -0.54939  -0.54910
 Alpha  occ. eigenvalues --   -0.52902  -0.52692  -0.52471  -0.52359  -0.48601
 Alpha  occ. eigenvalues --   -0.48590  -0.48577  -0.48572  -0.44616  -0.44595
 Alpha  occ. eigenvalues --   -0.37175  -0.36804  -0.36336  -0.35468
 Alpha virt. eigenvalues --    0.04872   0.05777   0.11115   0.12217   0.16711
 Alpha virt. eigenvalues --    0.16880   0.21212   0.22139   0.26783   0.28107
 Alpha virt. eigenvalues --    0.28641   0.28896   0.30758   0.31517   0.32653

 Mulliken charges:
               1
     1  C   -0.164618
     2  C   -0.211635
     3  C   -0.161795
     4  C    0.156516
     5  C   -0.175121
     6  C   -0.221976
     7  H    0.225314
     8  H    0.225128
     9  H    0.277710
    10  H    0.270351
    11  H    0.217431
    12  N    0.486517
    13  O   -0.464692
    14  O   -0.458226
    15  C   -0.164005
    16  C   -0.214100
    17  C   -0.163971
    18  C    0.154135
    19  C   -0.172473
    20  C   -0.218971
    21  H    0.225226
    22  H    0.224365
    23  H    0.276891
    24  H    0.271953
    25  H    0.216553
    26  N    0.486870
    27  O   -0.465159
    28  O   -0.458219
 Sum of Mulliken charges =  -0.00000

 Dipole moment (field-independent basis, Debye):
    X=              0.1483    Y=             -1.3802    Z=             -5.0553  Tot=              5.2424
 Quadrupole moment (field-independent basis, Debye-Ang):
   XX=            -81.0865   YY=           -115.3068   ZZ=           -101.8722
   XY=             10.7407   XZ=             -2.9250   YZ=              4.7523

 Normal termination of Gaussian 16 at Fri May  7 04:59:53 2021.
