 Gaussian 16, Revision A.03,
 Gaussian 16:  EM64L-G16RevA.03 25-Dec-2016

 -------------
 #p 6-31g* mp2
 -------------

 ------------------------------------------------------
 Input file generated by CHIRIPA (05-May-2021 14:57:27)
 ------------------------------------------------------
 Symbolic Z-matrix:
 Charge =  0 Multiplicity = 1

                         Standard orientation:
 ---------------------------------------------------------------------
 Center     Atomic      Atomic             Coordinates (Angstroms)
 Number     Number       Type             X           Y           Z
 ---------------------------------------------------------------------
      1          6           0        3.359359    2.649777    0.546455
      2          6           0        2.186950    2.072622    0.047585
      3          6           0        2.143811    0.710989   -0.266488
      4          6           0        3.296658   -0.047306   -0.068443
      5          6           0        4.479825    0.498590    0.426940
      6          6           0        4.500043    1.862307    0.734209
      7          1           0        3.383967    3.708336    0.787792
      8          1           0        1.299567    2.681750   -0.099243
      9          1           0        1.249466    0.238464   -0.654155
     10          1           0        5.348473   -0.134232    0.562604
     11          1           0        5.411945    2.307839    1.121485
     12          7           0        3.263122   -1.489910   -0.397337
     13          8           0        4.292238   -2.136345   -0.213824
     14          8           0        2.208354   -1.946871   -0.832409
     15          6           0       -2.113748   -2.360825    0.507209
     16          6           0       -1.737859   -1.592650   -0.599650
     17          6           0       -2.389362   -0.388433   -0.882410
     18          6           0       -3.417079    0.019371   -0.033421
     19          6           0       -3.814562   -0.723782    1.076993
     20          6           0       -3.149076   -1.924708    1.340528
     21          1           0       -1.602213   -3.295011    0.719396
     22          1           0       -0.934162   -1.928874   -1.248549
     23          1           0       -2.118634    0.225849   -1.732576
     24          1           0       -4.619435   -0.362588    1.705592
     25          1           0       -3.443121   -2.519231    2.200833
     26          7           0       -4.114199    1.292480   -0.322591
     27          8           0       -5.016489    1.629781    0.440782
     28          8           0       -3.745112    1.928935   -1.307140
 ---------------------------------------------------------------------

 SCF Done:  E(RHF) =  -868.340196581     A.U. after   16 cycles
 E2 =    -0.2599077529D+01 EUMP2 =    -0.87093927410974D+03

 The electronic state is 1-A.
 Alpha  occ. eigenvalues --  -20.61472 -20.61415 -20.60868 -20.60853 -15.86490
 Alpha  occ. eigenvalues --  -15.85909 -11.31589 -11.31139 -11.28134 -11.28113
 Alpha  occ. eigenvalues --  -11.27785 -11.27674 -11.27670 -11.27250 -11.27073
 Alpha  occ. eigenvalues --  -11.27036 -11.26633 -11.26487  -1.60509  -1.59944
 Alpha  occ. eigenvalues --   -1.40076  -1.39501  -1.19729  -1.19268  -1.09166
 Alpha  occ. eigenvalues --   -1.08655  -1.05091  -1.04641  -0.96051  -0.95529
 Alpha  occ. eigenvalues --   -0.86500  -0.86012  -0.82898  -0.82364  -0.77988
 Alpha  occ. eigenvalues --   -0.77447  -0.72729  -0.72125  -0.71816  -0.71271
 Alpha  occ. eigenvalues --   -0.70833  -0.70314  -0.65387  -0.65085  -0.64893
 Alpha  occ. eigenvalues --   -0.64561  -0.62460  -0.61957  -0.55587  -0.55051
 Alpha  occ. eigenvalues --   -0.53434  -0.53204  -0.52954  -0.52674  -0.49483
 Alpha  occ. eigenvalues --   -0.49432  -0.48896  -0.48863  -0.45539  -0.44939
 Alpha  occ. eigenvalues --   -0.37685  -0.37193  -0.36685  -0.36258
 Alpha virt. eigenvalues --    0.04540   0.05023   0.10967   0.11405   0.16102
 Alpha virt. eigenvalues --    0.16461   0.20564   0.21979   0.25926   0.27448
 Alpha virt. eigenvalues --    0.28528   0.29029   0.30464   0.31366   0.32489

 Mulliken charges:
               1
     1  C   -0.169997
     2  C   -0.219556
     3  C   -0.170339
     4  C    0.157668
     5  C   -0.170805
     6  C   -0.218573
     7  H    0.228546
     8  H    0.229396
     9  H    0.270328
    10  H    0.275720
    11  H    0.224868
    12  N    0.491421
    13  O   -0.456836
    14  O   -0.473233
    15  C   -0.171573
    16  C   -0.224872
    17  C   -0.180198
    18  C    0.158534
    19  C   -0.172129
    20  C   -0.218776
    21  H    0.232976
    22  H    0.243422
    23  H    0.271822
    24  H    0.274589
    25  H    0.223740
    26  N    0.487863
    27  O   -0.460367
    28  O   -0.463637
 Sum of Mulliken charges =  -0.00000

 Dipole moment (field-independent basis, Debye):
    X=              2.7726    Y=              0.5270    Z=              2.2692  Tot=              3.6214
 Quadrupole moment (field-independent basis, Debye-Ang):
   XX=           -115.0431   YY=           -105.8449   ZZ=           -102.5692
   XY=             33.0389   XZ=             -0.8011   YZ=             -0.9339

 Normal termination of Gaussian 16 at Thu May  6 08:24:12 2021.
