 Gaussian 16, Revision A.03,
 Gaussian 16:  EM64L-G16RevA.03 25-Dec-2016

 -------------
 #p 6-31g* mp2
 -------------

 ------------------------------------------------------
 Input file generated by CHIRIPA (05-May-2021 14:53:12)
 ------------------------------------------------------
 Symbolic Z-matrix:
 Charge =  0 Multiplicity = 1

                         Standard orientation:
 ---------------------------------------------------------------------
 Center     Atomic      Atomic             Coordinates (Angstroms)
 Number     Number       Type             X           Y           Z
 ---------------------------------------------------------------------
      1          6           0        2.803040   -0.694401   -0.285902
      2          6           0        1.853186   -0.512956   -1.470317
      3          6           0        0.633445   -1.431932   -1.396075
      4          1           0        3.132993   -1.741523   -0.245749
      5          1           0        2.255100   -0.503342    0.647186
      6          1           0        2.403105   -0.702951   -2.400966
      7          1           0        1.525606    0.533898   -1.507769
      8          1           0        0.060117   -1.238210   -0.483733
      9          1           0        0.942602   -2.482086   -1.382005
     10          1           0       -0.032135   -1.285662   -2.252503
     11          6           0        4.027242    0.217443   -0.345887
     12          6           0        4.977096    0.035998    0.838528
     13          6           0        6.196836    0.954973    0.764286
     14          1           0        4.575182    0.026383   -1.278975
     15          1           0        3.697289    1.264565   -0.386040
     16          1           0        5.304676   -1.010857    0.875980
     17          1           0        4.427177    0.225992    1.769177
     18          1           0        5.887680    2.005128    0.750216
     19          1           0        6.770164    0.761252   -0.148056
     20          1           0        6.862417    0.808704    1.620713
     21          6           0       -2.625563   -2.250786    0.898457
     22          6           0       -2.437252   -1.262861    1.870600
     23          6           0       -2.458827    0.090588    1.520948
     24          6           0       -2.672189    0.421922    0.183793
     25          6           0       -2.863004   -0.539150   -0.807783
     26          6           0       -2.837464   -1.886421   -0.435280
     27          1           0       -2.607263   -3.299779    1.178951
     28          1           0       -2.272480   -1.542901    2.907169
     29          1           0       -2.315865    0.875899    2.253251
     30          1           0       -3.025076   -0.229105   -1.832977
     31          1           0       -2.984005   -2.651509   -1.192387
     32          7           0       -2.697129    1.851487   -0.198464
     33          8           0       -2.886944    2.117314   -1.383345
     34          8           0       -2.526389    2.679085    0.694042
 ---------------------------------------------------------------------

 SCF Done:  E(RHF) =  -669.534395181     A.U. after   15 cycles
 E2 =    -0.2093181937D+01 EUMP2 =    -0.67162757711863D+03

 The electronic state is 1-A.
 Alpha  occ. eigenvalues --  -20.60803 -20.60798 -15.85857 -11.31217 -11.27815
 Alpha  occ. eigenvalues --  -11.27749 -11.27519 -11.26831 -11.26748 -11.21597
 Alpha  occ. eigenvalues --  -11.21561 -11.21413 -11.21325 -11.21094 -11.21034
 Alpha  occ. eigenvalues --   -1.59880  -1.39433  -1.19408  -1.08793  -1.08421
 Alpha  occ. eigenvalues --   -1.04806  -1.03525  -0.95992  -0.95623  -0.87015
 Alpha  occ. eigenvalues --   -0.86193  -0.82455  -0.79598  -0.78235  -0.77505
 Alpha  occ. eigenvalues --   -0.72074  -0.71206  -0.70501  -0.65055  -0.65045
 Alpha  occ. eigenvalues --   -0.64796  -0.62149  -0.60948  -0.59366  -0.57604
 Alpha  occ. eigenvalues --   -0.55431  -0.55293  -0.53373  -0.52886  -0.52610
 Alpha  occ. eigenvalues --   -0.52233  -0.49821  -0.48833  -0.48830  -0.47892
 Alpha  occ. eigenvalues --   -0.46585  -0.45771  -0.45691  -0.44838  -0.43801
 Alpha  occ. eigenvalues --   -0.37384  -0.36322
 Alpha virt. eigenvalues --    0.05028   0.11211   0.16476   0.21262   0.22865
 Alpha virt. eigenvalues --    0.24247   0.26634   0.26848   0.27510   0.28061
 Alpha virt. eigenvalues --    0.28374   0.30914   0.31370   0.31560   0.31998

 Mulliken charges:
               1
     1  C   -0.297957
     2  C   -0.300656
     3  C   -0.478223
     4  H    0.147348
     5  H    0.148335
     6  H    0.151402
     7  H    0.156471
     8  H    0.163258
     9  H    0.149453
    10  H    0.154772
    11  C   -0.298765
    12  C   -0.299462
    13  C   -0.475839
    14  H    0.149619
    15  H    0.152680
    16  H    0.150566
    17  H    0.151278
    18  H    0.156717
    19  H    0.155215
    20  H    0.159721
    21  C   -0.171481
    22  C   -0.218778
    23  C   -0.172907
    24  C    0.158519
    25  C   -0.168589
    26  C   -0.214474
    27  H    0.226026
    28  H    0.223805
    29  H    0.275698
    30  H    0.275238
    31  H    0.223876
    32  N    0.488080
    33  O   -0.460265
    34  O   -0.460683
 Sum of Mulliken charges =  -0.00000

 Dipole moment (field-independent basis, Debye):
    X=              0.0224    Y=             -5.0087    Z=              1.3604  Tot=              5.1902
 Quadrupole moment (field-independent basis, Debye-Ang):
   XX=            -96.5636   YY=            -99.1949   ZZ=            -89.6212
   XY=             13.2780   XZ=             -3.0410   YZ=              1.2397

 Normal termination of Gaussian 16 at Thu May  6 07:20:55 2021.
