 Gaussian 16, Revision A.03,
 Gaussian 16:  EM64L-G16RevA.03 25-Dec-2016

 -------------
 #p 6-31g* mp2
 -------------

 ------------------------------------------------------
 Input file generated by CHIRIPA (05-May-2021 14:53:11)
 ------------------------------------------------------
 Symbolic Z-matrix:
 Charge =  0 Multiplicity = 1

                         Standard orientation:
 ---------------------------------------------------------------------
 Center     Atomic      Atomic             Coordinates (Angstroms)
 Number     Number       Type             X           Y           Z
 ---------------------------------------------------------------------
      1          6           0        3.544903    0.979892   -0.303844
      2          6           0        3.130427    1.912584    0.834700
      3          6           0        3.014774    3.371346    0.391493
      4          1           0        4.506571    1.317304   -0.714080
      5          1           0        2.812228    1.059469   -1.118859
      6          1           0        3.862919    1.830238    1.647898
      7          1           0        2.169727    1.572800    1.242400
      8          1           0        2.269713    3.474354   -0.404041
      9          1           0        3.972525    3.733256    0.003761
     10          1           0        2.717427    4.020564    1.220926
     11          6           0        3.664773   -0.481827    0.123633
     12          6           0        4.079249   -1.414518   -1.014911
     13          6           0        4.194901   -2.873280   -0.571704
     14          1           0        4.397448   -0.561404    0.938648
     15          1           0        2.703105   -0.819238    0.533869
     16          1           0        5.039948   -1.074735   -1.422611
     17          1           0        3.346757   -1.332173   -1.828109
     18          1           0        3.237151   -3.235190   -0.183972
     19          1           0        4.939963   -2.976289    0.223830
     20          1           0        4.492249   -3.522499   -1.401137
     21          6           0       -0.534833   -0.855826    0.921070
     22          6           0       -1.684870   -1.328215    1.561994
     23          6           0       -2.954110   -0.968314    1.099337
     24          6           0       -3.036842   -0.130628   -0.011846
     25          6           0       -1.909711    0.356385   -0.671911
     26          6           0       -0.650719   -0.016514   -0.191875
     27          1           0        0.447162   -1.140454    1.287223
     28          1           0       -1.597899   -1.980170    2.426538
     29          1           0       -3.860914   -1.319587    1.576552
     30          1           0       -2.028306    1.004865   -1.531461
     31          1           0        0.240687    0.351863   -0.691613
     32          7           0       -4.375104    0.257263   -0.510838
     33          8           0       -4.421061    0.996466   -1.491708
     34          8           0       -5.352737   -0.185256    0.088368
 ---------------------------------------------------------------------

 SCF Done:  E(RHF) =  -669.535266592     A.U. after   15 cycles
 E2 =    -0.2092586120D+01 EUMP2 =    -0.67162785271157D+03

 The electronic state is 1-A.
 Alpha  occ. eigenvalues --  -20.60763 -20.60758 -15.85817 -11.31190 -11.27759
 Alpha  occ. eigenvalues --  -11.27755 -11.27485 -11.26771 -11.26761 -11.22650
 Alpha  occ. eigenvalues --  -11.22588 -11.22568 -11.22501 -11.21945 -11.21845
 Alpha  occ. eigenvalues --   -1.59839  -1.39392  -1.19362  -1.09533  -1.08753
 Alpha  occ. eigenvalues --   -1.04766  -1.04484  -0.96939  -0.95591  -0.87945
 Alpha  occ. eigenvalues --   -0.86164  -0.82426  -0.80548  -0.79362  -0.77470
 Alpha  occ. eigenvalues --   -0.72036  -0.71162  -0.70502  -0.66283  -0.65008
 Alpha  occ. eigenvalues --   -0.64683  -0.62132  -0.61853  -0.60296  -0.58548
 Alpha  occ. eigenvalues --   -0.56253  -0.55287  -0.53567  -0.53347  -0.53091
 Alpha  occ. eigenvalues --   -0.52854  -0.50878  -0.48861  -0.48790  -0.48787
 Alpha  occ. eigenvalues --   -0.47599  -0.46862  -0.46823  -0.44796  -0.44783
 Alpha  occ. eigenvalues --   -0.37337  -0.36367
 Alpha virt. eigenvalues --    0.05059   0.11206   0.16541   0.17780   0.22509
 Alpha virt. eigenvalues --    0.23339   0.24639   0.25166   0.26901   0.28398
 Alpha virt. eigenvalues --    0.29995   0.30657   0.31059   0.31150   0.31521

 Mulliken charges:
               1
     1  C   -0.301359
     2  C   -0.302918
     3  C   -0.475452
     4  H    0.156412
     5  H    0.144617
     6  H    0.155447
     7  H    0.148617
     8  H    0.154223
     9  H    0.158014
    10  H    0.164365
    11  C   -0.303630
    12  C   -0.299861
    13  C   -0.475901
    14  H    0.154829
    15  H    0.140668
    16  H    0.156473
    17  H    0.151826
    18  H    0.152124
    19  H    0.157098
    20  H    0.164674
    21  C   -0.177606
    22  C   -0.218764
    23  C   -0.170767
    24  C    0.158601
    25  C   -0.171851
    26  C   -0.224733
    27  H    0.232654
    28  H    0.223951
    29  H    0.275608
    30  H    0.275873
    31  H    0.229515
    32  N    0.488026
    33  O   -0.460397
    34  O   -0.460378
 Sum of Mulliken charges =  -0.00000

 Dipole moment (field-independent basis, Debye):
    X=              4.9537    Y=             -1.3241    Z=              1.7462  Tot=              5.4168
 Quadrupole moment (field-independent basis, Debye-Ang):
   XX=           -120.8611   YY=            -94.2220   ZZ=            -92.4697
   XY=              5.2803   XZ=             -7.1114   YZ=             -2.1831

 Normal termination of Gaussian 16 at Thu May  6 00:54:39 2021.
