 Gaussian 16, Revision A.03,
 Gaussian 16:  EM64L-G16RevA.03 25-Dec-2016

 -------------
 #p 6-31g* mp2
 -------------

 ------------------------------------------------------
 Input file generated by CHIRIPA (05-May-2021 14:53:11)
 ------------------------------------------------------
 Symbolic Z-matrix:
 Charge =  0 Multiplicity = 1

                         Standard orientation:
 ---------------------------------------------------------------------
 Center     Atomic      Atomic             Coordinates (Angstroms)
 Number     Number       Type             X           Y           Z
 ---------------------------------------------------------------------
      1          6           0       -3.182807   -0.150597    0.481860
      2          6           0       -4.073982   -1.185362   -0.205928
      3          6           0       -4.233304   -2.466348    0.613515
      4          1           0       -2.194849   -0.593253    0.668780
      5          1           0       -3.607466    0.092786    1.465641
      6          1           0       -3.648517   -1.425691   -1.188698
      7          1           0       -5.059873   -0.740129   -0.391406
      8          1           0       -4.679169   -2.246700    1.588994
      9          1           0       -3.259794   -2.936158    0.787171
     10          1           0       -4.874123   -3.192220    0.103298
     11          6           0       -3.013932    1.135509   -0.325073
     12          6           0       -2.122757    2.170274    0.362716
     13          6           0       -1.963435    3.451259   -0.456728
     14          1           0       -2.589273    0.892126   -1.308854
     15          1           0       -4.001890    1.578165   -0.511993
     16          1           0       -1.136866    1.725040    0.548193
     17          1           0       -2.548222    2.410603    1.345486
     18          1           0       -2.936945    3.921069   -0.630384
     19          1           0       -1.517570    3.231611   -1.432207
     20          1           0       -1.322616    4.177131    0.053489
     21          6           0        3.397029    1.907634    0.335714
     22          6           0        4.188387    0.768651    0.517354
     23          6           0        3.657889   -0.506498    0.300297
     24          6           0        2.326203   -0.606348   -0.099621
     25          6           0        1.512323    0.509452   -0.289031
     26          6           0        2.063874    1.774634   -0.066191
     27          1           0        3.817309    2.894328    0.506576
     28          1           0        5.224050    0.868921    0.829432
     29          1           0        4.248091   -1.405021    0.433474
     30          1           0        0.483263    0.377669   -0.600621
     31          1           0        1.446942    2.657425   -0.208035
     32          7           0        1.753446   -1.951015   -0.332472
     33          8           0        0.577408   -2.012111   -0.684381
     34          8           0        2.491401   -2.918408   -0.158661
 ---------------------------------------------------------------------

 SCF Done:  E(RHF) =  -669.535680445     A.U. after   15 cycles
 E2 =    -0.2092821367D+01 EUMP2 =    -0.67162850181188D+03

 The electronic state is 1-A.
 Alpha  occ. eigenvalues --  -20.60885 -20.60876 -15.85924 -11.31240 -11.27808
 Alpha  occ. eigenvalues --  -11.27781 -11.27534 -11.26817 -11.26785 -11.22109
 Alpha  occ. eigenvalues --  -11.21768 -11.21521 -11.21165 -11.21096 -11.20465
 Alpha  occ. eigenvalues --   -1.59948  -1.39504  -1.19411  -1.08813  -1.08458
 Alpha  occ. eigenvalues --   -1.04811  -1.03548  -0.95999  -0.95657  -0.87022
 Alpha  occ. eigenvalues --   -0.86203  -0.82494  -0.79690  -0.78158  -0.77535
 Alpha  occ. eigenvalues --   -0.72145  -0.71264  -0.70534  -0.65199  -0.65037
 Alpha  occ. eigenvalues --   -0.64777  -0.62201  -0.60865  -0.59456  -0.57574
 Alpha  occ. eigenvalues --   -0.55319  -0.55265  -0.53143  -0.52901  -0.52733
 Alpha  occ. eigenvalues --   -0.52400  -0.49947  -0.48896  -0.48894  -0.47962
 Alpha  occ. eigenvalues --   -0.46735  -0.45703  -0.45557  -0.44889  -0.43779
 Alpha  occ. eigenvalues --   -0.37388  -0.36387
 Alpha virt. eigenvalues --    0.04931   0.11222   0.16375   0.19041   0.22996
 Alpha virt. eigenvalues --    0.23771   0.25729   0.26723   0.27465   0.28437
 Alpha virt. eigenvalues --    0.30497   0.30853   0.31331   0.31674   0.32301

 Mulliken charges:
               1
     1  C   -0.302692
     2  C   -0.299000
     3  C   -0.477964
     4  H    0.160271
     5  H    0.147416
     6  H    0.157368
     7  H    0.148192
     8  H    0.151453
     9  H    0.165437
    10  H    0.159548
    11  C   -0.300257
    12  C   -0.306036
    13  C   -0.478308
    14  H    0.150012
    15  H    0.151094
    16  H    0.145400
    17  H    0.156449
    18  H    0.161334
    19  H    0.152488
    20  H    0.155482
    21  C   -0.170907
    22  C   -0.218484
    23  C   -0.170759
    24  C    0.157802
    25  C   -0.175139
    26  C   -0.221913
    27  H    0.226070
    28  H    0.223691
    29  H    0.275653
    30  H    0.280715
    31  H    0.228816
    32  N    0.488681
    33  O   -0.462616
    34  O   -0.459296
 Sum of Mulliken charges =  -0.00000

 Dipole moment (field-independent basis, Debye):
    X=              2.0090    Y=              4.6037    Z=              0.8201  Tot=              5.0894
 Quadrupole moment (field-independent basis, Debye-Ang):
   XX=            -80.7586   YY=           -100.9235   ZZ=            -95.5354
   XY=              7.4120   XZ=              2.8064   YZ=             -0.8533

 Normal termination of Gaussian 16 at Wed May  5 21:41:56 2021.
