 Gaussian 16, Revision A.03,
 Gaussian 16:  EM64L-G16RevA.03 25-Dec-2016

 -------------
 #p 6-31g* mp2
 -------------

 ------------------------------------------------------
 Input file generated by CHIRIPA (05-May-2021 14:57:21)
 ------------------------------------------------------
 Symbolic Z-matrix:
 Charge =  0 Multiplicity = 1

                         Standard orientation:
 ---------------------------------------------------------------------
 Center     Atomic      Atomic             Coordinates (Angstroms)
 Number     Number       Type             X           Y           Z
 ---------------------------------------------------------------------
      1          6           0        3.572795   -2.348894   -0.514209
      2          6           0        2.214762   -2.014155   -0.528972
      3          6           0        1.809217   -0.685590   -0.370870
      4          6           0        2.792882    0.287191   -0.199432
      5          6           0        4.153679   -0.014724   -0.180207
      6          6           0        4.536220   -1.349871   -0.340180
      7          1           0        3.878897   -3.383511   -0.637753
      8          1           0        1.464353   -2.787921   -0.663944
      9          1           0        0.764716   -0.398568   -0.378314
     10          1           0        4.878547    0.778602   -0.043758
     11          1           0        5.591604   -1.606912   -0.328297
     12          7           0        2.375726    1.697167   -0.031066
     13          8           0        3.261902    2.535617    0.118365
     14          8           0        1.170481    1.937159   -0.051719
     15          6           0       -4.069624    0.146945   -1.978716
     16          6           0       -4.184621   -1.023931   -1.222179
     17          6           0       -3.519753   -1.146768    0.001507
     18          6           0       -2.744850   -0.074315    0.440439
     19          6           0       -2.610550    1.105130   -0.290427
     20          6           0       -3.284339    1.205870   -1.511250
     21          1           0       -4.589574    0.233784   -2.928193
     22          1           0       -4.793790   -1.847918   -1.582739
     23          1           0       -3.591375   -2.041862    0.607392
     24          1           0       -1.995995    1.909545    0.095132
     25          1           0       -3.193206    2.116378   -2.096669
     26          7           0       -2.036262   -0.192661    1.734385
     27          8           0       -1.359739    0.766504    2.099019
     28          8           0       -2.170810   -1.242343    2.359446
 ---------------------------------------------------------------------

 SCF Done:  E(RHF) =  -868.338389449     A.U. after   16 cycles
 E2 =    -0.2600568522D+01 EUMP2 =    -0.87093895797074D+03

 The electronic state is 1-A.
 Alpha  occ. eigenvalues --  -20.60591 -20.60497 -20.60483 -20.60453 -15.85585
 Alpha  occ. eigenvalues --  -15.85520 -11.30988 -11.30845 -11.27640 -11.27424
 Alpha  occ. eigenvalues --  -11.27420 -11.27403 -11.27336 -11.27173 -11.26636
 Alpha  occ. eigenvalues --  -11.26489 -11.26444 -11.26425  -1.59637  -1.59527
 Alpha  occ. eigenvalues --   -1.39174  -1.39083  -1.19176  -1.19018  -1.08574
 Alpha  occ. eigenvalues --   -1.08423  -1.04548  -1.04425  -0.95390  -0.95264
 Alpha  occ. eigenvalues --   -0.85946  -0.85827  -0.82196  -0.82106  -0.77281
 Alpha  occ. eigenvalues --   -0.77101  -0.71849  -0.71713  -0.71006  -0.70812
 Alpha  occ. eigenvalues --   -0.70241  -0.70140  -0.64805  -0.64690  -0.64523
 Alpha  occ. eigenvalues --   -0.64441  -0.61853  -0.61778  -0.55064  -0.54944
 Alpha  occ. eigenvalues --   -0.52933  -0.52742  -0.52610  -0.52521  -0.48592
 Alpha  occ. eigenvalues --   -0.48583  -0.48503  -0.48441  -0.44673  -0.44359
 Alpha  occ. eigenvalues --   -0.37200  -0.36996  -0.36158  -0.36016
 Alpha virt. eigenvalues --    0.05244   0.05409   0.11433   0.11638   0.16681
 Alpha virt. eigenvalues --    0.16931   0.21547   0.21754   0.27308   0.27593
 Alpha virt. eigenvalues --    0.28223   0.28722   0.30837   0.31375   0.32298

 Mulliken charges:
               1
     1  C   -0.170500
     2  C   -0.217679
     3  C   -0.165961
     4  C    0.159252
     5  C   -0.170657
     6  C   -0.218656
     7  H    0.224562
     8  H    0.222798
     9  H    0.271555
    10  H    0.274836
    11  H    0.222366
    12  N    0.491638
    13  O   -0.461369
    14  O   -0.463893
    15  C   -0.171202
    16  C   -0.220017
    17  C   -0.174433
    18  C    0.148291
    19  C   -0.171515
    20  C   -0.220606
    21  H    0.224901
    22  H    0.221423
    23  H    0.273013
    24  H    0.294932
    25  H    0.226967
    26  N    0.484844
    27  O   -0.448305
    28  O   -0.466587
 Sum of Mulliken charges =  -0.00000

 Dipole moment (field-independent basis, Debye):
    X=             -0.9652    Y=             -4.2752    Z=             -5.0888  Tot=              6.7160
 Quadrupole moment (field-independent basis, Debye-Ang):
   XX=            -78.7610   YY=           -103.7265   ZZ=           -110.1470
   XY=            -11.7539   XZ=             10.0125   YZ=              0.9850

 Normal termination of Gaussian 16 at Thu May  6 09:40:04 2021.
