 Gaussian 16, Revision A.03,
 Gaussian 16:  EM64L-G16RevA.03 25-Dec-2016

 -------------
 #p 6-31g* mp2
 -------------

 ------------------------------------------------------
 Input file generated by CHIRIPA (05-May-2021 14:55:25)
 ------------------------------------------------------
 Symbolic Z-matrix:
 Charge =  0 Multiplicity = 1

                         Standard orientation:
 ---------------------------------------------------------------------
 Center     Atomic      Atomic             Coordinates (Angstroms)
 Number     Number       Type             X           Y           Z
 ---------------------------------------------------------------------
      1          6           0       -5.851314    1.497509    0.388837
      2          6           0       -4.691272    2.016737   -0.195310
      3          6           0       -3.588236    1.192602   -0.437506
      4          6           0       -3.680101   -0.152034   -0.081409
      5          6           0       -4.821869   -0.699023    0.502078
      6          6           0       -5.912802    0.143672    0.735056
      7          1           0       -6.703478    2.144926    0.573400
      8          1           0       -4.640690    3.067753   -0.465219
      9          1           0       -2.677809    1.568392   -0.888420
     10          1           0       -4.842468   -1.750846    0.760271
     11          1           0       -6.812409   -0.262311    1.188849
     12          7           0       -2.518773   -1.034334   -0.332932
     13          8           0       -2.624886   -2.215484   -0.010035
     14          8           0       -1.524400   -0.528024   -0.848209
     15          6           0        5.646230   -0.065366    0.368793
     16          6           0        6.682037    0.905076   -0.199829
     17          6           0        8.058842    0.745174    0.445641
     18          1           0        5.564539    0.089573    1.453351
     19          1           0        6.001748   -1.095237    0.226081
     20          1           0        6.324032    1.932763   -0.057328
     21          1           0        6.761132    0.747939   -1.283189
     22          1           0        8.441051   -0.269127    0.291652
     23          1           0        8.001467    0.922430    1.524479
     24          1           0        8.783875    1.448526    0.024356
     25          6           0        4.264814    0.082314   -0.266509
     26          6           0        3.229008   -0.888127    0.302114
     27          6           0        1.852202   -0.728225   -0.343356
     28          1           0        3.909297    1.112186   -0.123796
     29          1           0        4.346505   -0.072625   -1.351067
     30          1           0        3.149913   -0.730990    1.385474
     31          1           0        3.587013   -1.915815    0.159612
     32          1           0        1.909577   -0.905481   -1.422194
     33          1           0        1.469994    0.286076   -0.189367
     34          1           0        1.127169   -1.431578    0.077929
 ---------------------------------------------------------------------

 SCF Done:  E(RHF) =  -669.535664164     A.U. after   15 cycles
 E2 =    -0.2090993501D+01 EUMP2 =    -0.67162665766455D+03

 The electronic state is 1-A.
 Alpha  occ. eigenvalues --  -20.60888 -20.60861 -15.85905 -11.31259 -11.27825
 Alpha  occ. eigenvalues --  -11.27821 -11.27567 -11.26839 -11.26829 -11.21066
 Alpha  occ. eigenvalues --  -11.20698 -11.20633 -11.20500 -11.20378 -11.19308
 Alpha  occ. eigenvalues --   -1.59940  -1.39494  -1.19430  -1.08829  -1.07609
 Alpha  occ. eigenvalues --   -1.04830  -1.02596  -0.95670  -0.95000  -0.86231
 Alpha  occ. eigenvalues --   -0.86004  -0.82496  -0.78690  -0.77551  -0.77379
 Alpha  occ. eigenvalues --   -0.72116  -0.71257  -0.70538  -0.65083  -0.64833
 Alpha  occ. eigenvalues --   -0.64257  -0.62177  -0.60011  -0.58447  -0.56608
 Alpha  occ. eigenvalues --   -0.55334  -0.54315  -0.53162  -0.52923  -0.51661
 Alpha  occ. eigenvalues --   -0.51433  -0.48988  -0.48877  -0.48839  -0.46982
 Alpha  occ. eigenvalues --   -0.45777  -0.44966  -0.44895  -0.44789  -0.42781
 Alpha  occ. eigenvalues --   -0.37410  -0.36433
 Alpha virt. eigenvalues --    0.04974   0.11222   0.16462   0.21351   0.23604
 Alpha virt. eigenvalues --    0.25267   0.27254   0.27410   0.28131   0.28274
 Alpha virt. eigenvalues --    0.29068   0.30917   0.32196   0.32431   0.32644

 Mulliken charges:
               1
     1  C   -0.170696
     2  C   -0.218552
     3  C   -0.170909
     4  C    0.158005
     5  C   -0.170739
     6  C   -0.218578
     7  H    0.225836
     8  H    0.223689
     9  H    0.275834
    10  H    0.275763
    11  H    0.223668
    12  N    0.489573
    13  O   -0.460469
    14  O   -0.458479
    15  C   -0.297232
    16  C   -0.298851
    17  C   -0.475193
    18  H    0.147926
    19  H    0.148777
    20  H    0.150329
    21  H    0.151274
    22  H    0.154798
    23  H    0.154222
    24  H    0.158357
    25  C   -0.296846
    26  C   -0.302694
    27  C   -0.466898
    28  H    0.146391
    29  H    0.148434
    30  H    0.146958
    31  H    0.149040
    32  H    0.152896
    33  H    0.149944
    34  H    0.174423
 Sum of Mulliken charges =  -0.00000

 Dipole moment (field-independent basis, Debye):
    X=             -4.4464    Y=              3.0538    Z=              0.8391  Tot=              5.4590
 Quadrupole moment (field-independent basis, Debye-Ang):
   XX=            -66.3676   YY=            -92.4941   ZZ=            -94.6475
   XY=             -9.1245   XZ=             -4.8649   YZ=             -1.5947

 Normal termination of Gaussian 16 at Thu May  6 17:42:57 2021.
