 Gaussian 16, Revision A.03,
 Gaussian 16:  EM64L-G16RevA.03 25-Dec-2016

 -------------
 #p 6-31g* mp2
 -------------

 ------------------------------------------------------
 Input file generated by CHIRIPA (05-May-2021 14:51:12)
 ------------------------------------------------------
 Symbolic Z-matrix:
 Charge =  0 Multiplicity = 1

                         Standard orientation:
 ---------------------------------------------------------------------
 Center     Atomic      Atomic             Coordinates (Angstroms)
 Number     Number       Type             X           Y           Z
 ---------------------------------------------------------------------
      1          6           0        3.440297    1.148343    0.153140
      2          6           0        2.436289    2.205560   -0.307561
      3          6           0        2.761944    3.601576    0.224307
      4          1           0        3.463418    1.127707    1.251313
      5          1           0        4.447175    1.441180   -0.175249
      6          1           0        1.431417    1.910117    0.020405
      7          1           0        2.415415    2.223549   -1.404765
      8          1           0        3.752805    3.921316   -0.114164
      9          1           0        2.763216    3.606103    1.319103
     10          1           0        2.031603    4.341749   -0.117169
     11          6           0        3.128158   -0.252428   -0.370441
     12          6           0        4.132166   -1.309645    0.090259
     13          6           0        3.806511   -2.705661   -0.441608
     14          1           0        2.121281   -0.545264   -0.042052
     15          1           0        3.105037   -0.231791   -1.468614
     16          1           0        4.153040   -1.327634    1.187464
     17          1           0        5.137039   -1.014202   -0.237706
     18          1           0        3.805239   -2.710187   -1.536404
     19          1           0        2.815650   -3.025401   -0.103137
     20          1           0        4.536852   -3.445834   -0.100133
     21          6           0       -2.707669   -0.889809   -0.127523
     22          6           0       -1.570995   -0.998383    0.889418
     23          6           0       -0.424924   -1.885653    0.402523
     24          1           0       -3.089672   -1.895619   -0.349709
     25          1           0       -2.309479   -0.491236   -1.070911
     26          1           0       -1.971478   -1.395334    1.831044
     27          1           0       -1.191781    0.007818    1.109354
     28          1           0        0.001775   -1.489562   -0.524645
     29          1           0       -0.782353   -2.900686    0.201145
     30          1           0        0.376770   -1.949315    1.144880
     31          6           0       -3.860787   -0.006106    0.344825
     32          6           0       -4.997460    0.102467   -0.672117
     33          6           0       -6.143531    0.989738   -0.185222
     34          1           0       -4.258976   -0.404680    1.288212
     35          1           0       -3.478784    0.999704    0.567011
     36          1           0       -5.376675   -0.903733   -0.892053
     37          1           0       -4.596978    0.499419   -1.613742
     38          1           0       -5.786103    2.004771    0.016157
     39          1           0       -6.570230    0.593647    0.741946
     40          1           0       -6.945226    1.053399   -0.927579
 ---------------------------------------------------------------------

 SCF Done:  E(RHF) =  -470.732574179     A.U. after   11 cycles
 E2 =    -0.1583551794D+01 EUMP2 =    -0.47231612597280D+03

 The electronic state is 1-A.
 Alpha  occ. eigenvalues --  -11.21689 -11.21627 -11.21602 -11.21524 -11.21450
 Alpha  occ. eigenvalues --  -11.21389 -11.21330 -11.21199 -11.21145 -11.21090
 Alpha  occ. eigenvalues --  -11.21072 -11.20979  -1.08485  -1.08366  -1.03595
 Alpha  occ. eigenvalues --   -1.03478  -0.96050  -0.95920  -0.87078  -0.86934
 Alpha  occ. eigenvalues --   -0.79700  -0.79514  -0.78304  -0.78164  -0.65183
 Alpha  occ. eigenvalues --   -0.64958  -0.61017  -0.60876  -0.59433  -0.59266
 Alpha  occ. eigenvalues --   -0.57647  -0.57544  -0.55440  -0.55122  -0.52772
 Alpha  occ. eigenvalues --   -0.52623  -0.52462  -0.52352  -0.50104  -0.49778
 Alpha  occ. eigenvalues --   -0.47974  -0.47860  -0.46788  -0.46522  -0.45884
 Alpha  occ. eigenvalues --   -0.45774  -0.45695  -0.45440  -0.43793  -0.43721
 Alpha virt. eigenvalues --    0.20909   0.22982   0.23754   0.24228   0.26190
 Alpha virt. eigenvalues --    0.26699   0.27179   0.27404   0.27883   0.29503
 Alpha virt. eigenvalues --    0.30132   0.31164   0.31750   0.31888   0.32043

 Mulliken charges:
               1
     1  C   -0.297279
     2  C   -0.300188
     3  C   -0.475589
     4  H    0.149035
     5  H    0.149171
     6  H    0.151187
     7  H    0.151733
     8  H    0.155389
     9  H    0.155192
    10  H    0.159907
    11  C   -0.309349
    12  C   -0.298768
    13  C   -0.478819
    14  H    0.163602
    15  H    0.147920
    16  H    0.150853
    17  H    0.151426
    18  H    0.154731
    19  H    0.159115
    20  H    0.159678
    21  C   -0.298786
    22  C   -0.301638
    23  C   -0.480844
    24  H    0.149972
    25  H    0.150312
    26  H    0.152482
    27  H    0.152179
    28  H    0.159947
    29  H    0.156431
    30  H    0.160567
    31  C   -0.298364
    32  C   -0.299714
    33  C   -0.475744
    34  H    0.149594
    35  H    0.149737
    36  H    0.152014
    37  H    0.152090
    38  H    0.155250
    39  H    0.155203
    40  H    0.160369
 Sum of Mulliken charges =  -0.00000

 Dipole moment (field-independent basis, Debye):
    X=             -0.0685    Y=             -0.0289    Z=             -0.0027  Tot=              0.0744
 Quadrupole moment (field-independent basis, Debye-Ang):
   XX=            -85.3213   YY=            -85.6218   ZZ=            -84.0759
   XY=              0.9457   XZ=             -0.4807   YZ=             -0.9551

 Normal termination of Gaussian 16 at Wed May  5 23:11:06 2021.
