 Gaussian 16, Revision A.03,
 Gaussian 16:  EM64L-G16RevA.03 25-Dec-2016

 -------------
 #p 6-31g* mp2
 -------------

 ------------------------------------------------------
 Input file generated by CHIRIPA (05-May-2021 14:57:24)
 ------------------------------------------------------
 Symbolic Z-matrix:
 Charge =  0 Multiplicity = 1

                         Standard orientation:
 ---------------------------------------------------------------------
 Center     Atomic      Atomic             Coordinates (Angstroms)
 Number     Number       Type             X           Y           Z
 ---------------------------------------------------------------------
      1          6           0       -3.711356    1.971824   -1.243741
      2          6           0       -4.524365    1.345848   -0.293113
      3          6           0       -4.130106    0.140331    0.294965
      4          6           0       -2.911101   -0.413763   -0.092717
      5          6           0       -2.079064    0.185709   -1.036983
      6          6           0       -2.493448    1.390781   -1.611992
      7          1           0       -4.025442    2.908126   -1.695498
      8          1           0       -5.470723    1.794799   -0.005202
      9          1           0       -4.740084   -0.365635    1.033438
     10          1           0       -1.141118   -0.286011   -1.303733
     11          1           0       -1.860018    1.874683   -2.349997
     12          7           0       -2.483064   -1.689754    0.522937
     13          8           0       -1.404534   -2.157495    0.164289
     14          8           0       -3.234204   -2.197975    1.352478
     15          6           0        1.957995    1.964617    1.682943
     16          6           0        3.061676    2.279240    0.883303
     17          6           0        3.636988    1.311371    0.054574
     18          6           0        3.080610    0.033202    0.050256
     19          6           0        1.981383   -0.311019    0.835435
     20          6           0        1.422316    0.672769    1.656502
     21          1           0        1.517388    2.722664    2.323744
     22          1           0        3.479788    3.281679    0.901801
     23          1           0        4.491773    1.527804   -0.574646
     24          1           0        1.586680   -1.319004    0.795532
     25          1           0        0.565220    0.425585    2.276447
     26          7           0        3.681068   -0.999864   -0.823027
     27          8           0        3.172246   -2.118583   -0.808708
     28          8           0        4.649159   -0.671300   -1.505289
 ---------------------------------------------------------------------

 SCF Done:  E(RHF) =  -868.338826942     A.U. after   16 cycles
 E2 =    -0.2599708004D+01 EUMP2 =    -0.87093853494620D+03

 The electronic state is 1-A.
 Alpha  occ. eigenvalues --  -20.61324 -20.61298 -20.60482 -20.60445 -15.86348
 Alpha  occ. eigenvalues --  -15.85519 -11.31611 -11.30926 -11.28178 -11.28137
 Alpha  occ. eigenvalues --  -11.27893 -11.27576 -11.27360 -11.27320 -11.27164
 Alpha  occ. eigenvalues --  -11.27128 -11.26606 -11.26491  -1.60386  -1.59549
 Alpha  occ. eigenvalues --   -1.39939  -1.39094  -1.19778  -1.19128  -1.09194
 Alpha  occ. eigenvalues --   -1.08527  -1.05153  -1.04513  -0.96039  -0.95336
 Alpha  occ. eigenvalues --   -0.86558  -0.85913  -0.82865  -0.82151  -0.77930
 Alpha  occ. eigenvalues --   -0.77174  -0.72558  -0.71741  -0.71706  -0.70889
 Alpha  occ. eigenvalues --   -0.70870  -0.70210  -0.65424  -0.65146  -0.64765
 Alpha  occ. eigenvalues --   -0.64504  -0.62492  -0.61813  -0.55660  -0.55044
 Alpha  occ. eigenvalues --   -0.53512  -0.53242  -0.52874  -0.52578  -0.49322
 Alpha  occ. eigenvalues --   -0.49309  -0.48509  -0.48474  -0.45361  -0.44488
 Alpha  occ. eigenvalues --   -0.37770  -0.37162  -0.36772  -0.36110
 Alpha virt. eigenvalues --    0.04542   0.05326   0.10882   0.11487   0.16047
 Alpha virt. eigenvalues --    0.16782   0.21042   0.21708   0.26956   0.27404
 Alpha virt. eigenvalues --    0.27920   0.28709   0.30658   0.31192   0.31955

 Mulliken charges:
               1
     1  C   -0.170949
     2  C   -0.219098
     3  C   -0.171746
     4  C    0.154899
     5  C   -0.171301
     6  C   -0.219115
     7  H    0.226644
     8  H    0.224275
     9  H    0.275903
    10  H    0.278990
    11  H    0.225967
    12  N    0.487520
    13  O   -0.462521
    14  O   -0.458165
    15  C   -0.171885
    16  C   -0.220216
    17  C   -0.172292
    18  C    0.155234
    19  C   -0.177688
    20  C   -0.222694
    21  H    0.223653
    22  H    0.221224
    23  H    0.274172
    24  H    0.294410
    25  H    0.226032
    26  N    0.486991
    27  O   -0.454493
    28  O   -0.463751
 Sum of Mulliken charges =  -0.00000

 Dipole moment (field-independent basis, Debye):
    X=             -3.7967    Y=              7.9863    Z=              0.8867  Tot=              8.8872
 Quadrupole moment (field-independent basis, Debye-Ang):
   XX=           -104.1983   YY=           -107.0857   ZZ=           -103.2824
   XY=              0.7831   XZ=             12.2484   YZ=             -0.7100

 Normal termination of Gaussian 16 at Thu May  6 14:41:22 2021.
