 Gaussian 16, Revision A.03,
 Gaussian 16:  EM64L-G16RevA.03 25-Dec-2016

 -------------
 #p 6-31g* mp2
 -------------

 ------------------------------------------------------
 Input file generated by CHIRIPA (05-May-2021 14:53:14)
 ------------------------------------------------------
 Symbolic Z-matrix:
 Charge =  0 Multiplicity = 1

                         Standard orientation:
 ---------------------------------------------------------------------
 Center     Atomic      Atomic             Coordinates (Angstroms)
 Number     Number       Type             X           Y           Z
 ---------------------------------------------------------------------
      1          6           0       -4.584314    0.088461    0.327012
      2          6           0       -5.975880    0.140780   -0.304487
      3          6           0       -6.841774    1.264746    0.265356
      4          1           0       -4.686186   -0.040040    1.413315
      5          1           0       -4.082480    1.053640    0.172136
      6          1           0       -6.474409   -0.824682   -0.149671
      7          1           0       -5.870680    0.268979   -1.389436
      8          1           0       -6.369149    2.237936    0.097645
      9          1           0       -6.976308    1.138061    1.344454
     10          1           0       -7.832163    1.283860   -0.200073
     11          6           0       -3.706864   -1.029992   -0.232341
     12          6           0       -2.315298   -1.082311    0.399158
     13          6           0       -1.449403   -2.206277   -0.170685
     14          1           0       -4.208697   -1.995171   -0.077465
     15          1           0       -3.604991   -0.901491   -1.318644
     16          1           0       -2.420498   -1.210510    1.484107
     17          1           0       -1.816768   -0.116849    0.244342
     18          1           0       -1.314869   -2.079592   -1.249783
     19          1           0       -1.922029   -3.179467   -0.002974
     20          1           0       -0.459014   -2.225391    0.294744
     21          6           0        5.219590   -1.178673    0.188018
     22          6           0        3.939083   -1.705599   -0.009896
     23          6           0        2.834281   -0.858202   -0.135907
     24          6           0        3.047240    0.517292   -0.058733
     25          6           0        4.310653    1.072691    0.137758
     26          6           0        5.400969    0.206348    0.261084
     27          1           0        6.072201   -1.844310    0.284863
     28          1           0        3.795239   -2.780814   -0.067045
     29          1           0        1.832023   -1.239297   -0.289737
     30          1           0        4.422616    2.148843    0.190463
     31          1           0        6.394283    0.618378    0.414722
     32          7           0        1.885303    1.424421   -0.190714
     33          8           0        2.099454    2.632581   -0.119123
     34          8           0        0.782428    0.910093   -0.363251
 ---------------------------------------------------------------------

 SCF Done:  E(RHF) =  -669.536004458     A.U. after   15 cycles
 E2 =    -0.2091625702D+01 EUMP2 =    -0.67162763016036D+03

 The electronic state is 1-A.
 Alpha  occ. eigenvalues --  -20.60898 -20.60890 -15.85939 -11.31241 -11.27810
 Alpha  occ. eigenvalues --  -11.27781 -11.27546 -11.26816 -11.26800 -11.21019
 Alpha  occ. eigenvalues --  -11.20697 -11.20680 -11.20639 -11.20596 -11.20544
 Alpha  occ. eigenvalues --   -1.59963  -1.39519  -1.19411  -1.08820  -1.07718
 Alpha  occ. eigenvalues --   -1.04805  -1.02876  -0.95671  -0.95382  -0.86422
 Alpha  occ. eigenvalues --   -0.86201  -0.82501  -0.78933  -0.77583  -0.77482
 Alpha  occ. eigenvalues --   -0.72173  -0.71278  -0.70524  -0.65072  -0.64815
 Alpha  occ. eigenvalues --   -0.64327  -0.62170  -0.60244  -0.58758  -0.56986
 Alpha  occ. eigenvalues --   -0.55314  -0.54670  -0.53140  -0.52929  -0.52095
 Alpha  occ. eigenvalues --   -0.51806  -0.49328  -0.48917  -0.48909  -0.47259
 Alpha  occ. eigenvalues --   -0.45923  -0.45096  -0.45031  -0.44800  -0.43150
 Alpha  occ. eigenvalues --   -0.37393  -0.36406
 Alpha virt. eigenvalues --    0.04961   0.11234   0.16463   0.20702   0.23464
 Alpha virt. eigenvalues --    0.24223   0.26708   0.27371   0.27767   0.28352
 Alpha virt. eigenvalues --    0.29335   0.30859   0.31501   0.32009   0.32552

 Mulliken charges:
               1
     1  C   -0.299008
     2  C   -0.299175
     3  C   -0.475524
     4  H    0.147716
     5  H    0.155396
     6  H    0.149557
     7  H    0.151726
     8  H    0.156600
     9  H    0.154078
    10  H    0.158218
    11  C   -0.298178
    12  C   -0.308402
    13  C   -0.474136
    14  H    0.144558
    15  H    0.149793
    16  H    0.146667
    17  H    0.181823
    18  H    0.156097
    19  H    0.150540
    20  H    0.149801
    21  C   -0.170336
    22  C   -0.221023
    23  C   -0.176965
    24  C    0.156051
    25  C   -0.170032
    26  C   -0.218951
    27  H    0.225837
    28  H    0.224226
    29  H    0.286688
    30  H    0.275623
    31  H    0.223597
    32  N    0.493247
    33  O   -0.459373
    34  O   -0.466735
 Sum of Mulliken charges =  -0.00000

 Dipole moment (field-independent basis, Debye):
    X=              4.2352    Y=             -3.0068    Z=              0.4339  Tot=              5.2121
 Quadrupole moment (field-independent basis, Debye-Ang):
   XX=            -69.4142   YY=            -95.8120   ZZ=            -95.3238
   XY=             -4.6464   XZ=              1.6737   YZ=              0.2913

 Normal termination of Gaussian 16 at Thu May  6 17:06:41 2021.
