 Gaussian 16, Revision A.03,
 Gaussian 16:  EM64L-G16RevA.03 25-Dec-2016

 -------------
 #p 6-31g* mp2
 -------------

 ------------------------------------------------------
 Input file generated by CHIRIPA (05-May-2021 14:55:23)
 ------------------------------------------------------
 Symbolic Z-matrix:
 Charge =  0 Multiplicity = 1

                         Standard orientation:
 ---------------------------------------------------------------------
 Center     Atomic      Atomic             Coordinates (Angstroms)
 Number     Number       Type             X           Y           Z
 ---------------------------------------------------------------------
      1          6           0       -2.322318    2.608485   -0.028290
      2          6           0       -1.608606    1.617359   -0.710058
      3          6           0       -2.095196    0.308231   -0.772992
      4          6           0       -3.304274    0.024000   -0.140036
      5          6           0       -4.038521    0.989512    0.546955
      6          6           0       -3.532863    2.291956    0.596938
      7          1           0       -1.936917    3.622851    0.015569
      8          1           0       -0.668205    1.860300   -1.196545
      9          1           0       -1.563099   -0.478451   -1.293973
     10          1           0       -4.973054    0.716994    1.022140
     11          1           0       -4.089283    3.059645    1.127123
     12          7           0       -3.829498   -1.358378   -0.199806
     13          8           0       -4.897151   -1.583169    0.366077
     14          8           0       -3.163571   -2.190918   -0.811406
     15          6           0        4.851200   -0.317925    0.382997
     16          6           0        5.760235    0.459001   -0.569906
     17          6           0        7.222634    0.458752   -0.123608
     18          1           0        4.929030    0.116041    1.389258
     19          1           0        5.211774   -1.353016    0.460254
     20          1           0        5.397236    1.491955   -0.646417
     21          1           0        5.680085    0.023255   -1.574057
     22          1           0        7.607421   -0.564542   -0.065234
     23          1           0        7.322965    0.912502    0.867676
     24          1           0        7.854711    1.019729   -0.819053
     25          6           0        3.386140   -0.326764   -0.049723
     26          6           0        2.477105   -1.103691    0.903180
     27          6           0        1.014706   -1.103442    0.456882
     28          1           0        3.025566    0.708326   -0.126980
     29          1           0        3.308309   -0.760731   -1.055985
     30          1           0        2.557254   -0.667945    1.907331
     31          1           0        2.840103   -2.136646    0.979691
     32          1           0        0.914374   -1.557193   -0.534402
     33          1           0        0.629917   -0.080148    0.398508
     34          1           0        0.382628   -1.664418    1.152327
 ---------------------------------------------------------------------

 SCF Done:  E(RHF) =  -669.534958428     A.U. after   15 cycles
 E2 =    -0.2092160773D+01 EUMP2 =    -0.67162711920082D+03

 The electronic state is 1-A.
 Alpha  occ. eigenvalues --  -20.60726 -20.60721 -15.85780 -11.31131 -11.27732
 Alpha  occ. eigenvalues --  -11.27693 -11.27485 -11.26734 -11.26715 -11.21883
 Alpha  occ. eigenvalues --  -11.21847 -11.21743 -11.21645 -11.21318 -11.21300
 Alpha  occ. eigenvalues --   -1.59801  -1.39355  -1.19328  -1.08729  -1.08721
 Alpha  occ. eigenvalues --   -1.04740  -1.03798  -0.96264  -0.95552  -0.87288
 Alpha  occ. eigenvalues --   -0.86125  -0.82393  -0.79881  -0.78556  -0.77421
 Alpha  occ. eigenvalues --   -0.71999  -0.71125  -0.70437  -0.65360  -0.64981
 Alpha  occ. eigenvalues --   -0.64735  -0.62092  -0.61197  -0.59610  -0.57869
 Alpha  occ. eigenvalues --   -0.55577  -0.55242  -0.53240  -0.52912  -0.52804
 Alpha  occ. eigenvalues --   -0.52539  -0.50194  -0.48759  -0.48752  -0.48184
 Alpha  occ. eigenvalues --   -0.46901  -0.46091  -0.46017  -0.44763  -0.44051
 Alpha  occ. eigenvalues --   -0.37318  -0.36260
 Alpha virt. eigenvalues --    0.05088   0.11247   0.16471   0.20944   0.22648
 Alpha virt. eigenvalues --    0.24031   0.25911   0.26191   0.27293   0.28013
 Alpha virt. eigenvalues --    0.29189   0.29717   0.31541   0.31724   0.32152

 Mulliken charges:
               1
     1  C   -0.171366
     2  C   -0.221362
     3  C   -0.165215
     4  C    0.156303
     5  C   -0.170786
     6  C   -0.219003
     7  H    0.225364
     8  H    0.223898
     9  H    0.279337
    10  H    0.275479
    11  H    0.223175
    12  N    0.488070
    13  O   -0.460827
    14  O   -0.460316
    15  C   -0.298336
    16  C   -0.299634
    17  C   -0.475846
    18  H    0.149966
    19  H    0.151613
    20  H    0.149970
    21  H    0.152323
    22  H    0.156363
    23  H    0.155315
    24  H    0.160536
    25  C   -0.297942
    26  C   -0.300428
    27  C   -0.482079
    28  H    0.143614
    29  H    0.149752
    30  H    0.152416
    31  H    0.155236
    32  H    0.154155
    33  H    0.151918
    34  H    0.168336
 Sum of Mulliken charges =  -0.00000

 Dipole moment (field-independent basis, Debye):
    X=              1.8840    Y=              4.7972    Z=              0.2463  Tot=              5.1598
 Quadrupole moment (field-independent basis, Debye-Ang):
   XX=           -105.1737   YY=            -93.9312   ZZ=            -93.7128
   XY=            -17.8543   XZ=             -3.6698   YZ=              0.5962

 Normal termination of Gaussian 16 at Wed May  5 20:44:19 2021.
