 Gaussian 16, Revision A.03,
 Gaussian 16:  EM64L-G16RevA.03 25-Dec-2016

 -------------
 #p 6-31g* mp2
 -------------

 ------------------------------------------------------
 Input file generated by CHIRIPA (05-May-2021 14:51:08)
 ------------------------------------------------------
 Symbolic Z-matrix:
 Charge =  0 Multiplicity = 1

                         Standard orientation:
 ---------------------------------------------------------------------
 Center     Atomic      Atomic             Coordinates (Angstroms)
 Number     Number       Type             X           Y           Z
 ---------------------------------------------------------------------
      1          6           0       -3.992534    0.774998   -0.137490
      2          6           0       -3.425553    2.119958    0.318142
      3          6           0       -4.428492    3.264635    0.171097
      4          1           0       -4.309415    0.854279   -1.186417
      5          1           0       -4.896014    0.549320    0.445767
      6          1           0       -2.522630    2.342378   -0.264845
      7          1           0       -3.109809    2.037410    1.366049
      8          1           0       -5.326281    3.069053    0.766347
      9          1           0       -4.735765    3.375753   -0.873813
     10          1           0       -4.002456    4.216743    0.502523
     11          6           0       -3.001693   -0.379170    0.003425
     12          6           0       -3.568674   -1.724130   -0.452207
     13          6           0       -2.565736   -2.868807   -0.305162
     14          1           0       -2.098213   -0.153492   -0.579832
     15          1           0       -2.684813   -0.458452    1.052351
     16          1           0       -3.884418   -1.641582   -1.500114
     17          1           0       -4.471597   -1.946550    0.130780
     18          1           0       -2.258462   -2.979925    0.739748
     19          1           0       -1.667946   -2.673225   -0.900412
     20          1           0       -2.991771   -3.820915   -0.636588
     21          6           0        4.078884    0.216035    0.338367
     22          6           0        4.700895    1.144669   -0.705051
     23          6           0        5.863496    1.966182   -0.147138
     24          1           0        3.730782    0.814406    1.191434
     25          1           0        4.853781   -0.459720    0.726033
     26          1           0        3.924748    1.817548   -1.091637
     27          1           0        5.047383    0.544038   -1.555818
     28          1           0        6.657723    1.308917    0.221382
     29          1           0        5.528709    2.589662    0.688201
     30          1           0        6.293309    2.623053   -0.909793
     31          6           0        2.915343   -0.611862   -0.204302
     32          6           0        2.293333   -1.540497    0.839117
     33          6           0        1.130731   -2.362010    0.281203
     34          1           0        2.140446    0.063892   -0.591968
     35          1           0        3.263446   -1.210233   -1.057369
     36          1           0        1.946844   -0.939866    1.689884
     37          1           0        3.069479   -2.213375    1.225702
     38          1           0        1.465518   -2.985490   -0.554136
     39          1           0        0.336505   -1.704745   -0.087317
     40          1           0        0.700918   -3.018881    1.043858
 ---------------------------------------------------------------------

 SCF Done:  E(RHF) =  -470.732540939     A.U. after   11 cycles
 E2 =    -0.1583025833D+01 EUMP2 =    -0.47231556677189D+03

 The electronic state is 1-A.
 Alpha  occ. eigenvalues --  -11.21626 -11.21590 -11.21564 -11.21535 -11.21424
 Alpha  occ. eigenvalues --  -11.21381 -11.21364 -11.21322 -11.21090 -11.21062
 Alpha  occ. eigenvalues --  -11.20953 -11.20927  -1.08439  -1.08396  -1.03544
 Alpha  occ. eigenvalues --   -1.03463  -0.96022  -0.95884  -0.87079  -0.86864
 Alpha  occ. eigenvalues --   -0.79701  -0.79447  -0.78281  -0.78182  -0.65082
 Alpha  occ. eigenvalues --   -0.65018  -0.60972  -0.60850  -0.59349  -0.59303
 Alpha  occ. eigenvalues --   -0.57628  -0.57522  -0.55309  -0.55178  -0.52800
 Alpha  occ. eigenvalues --   -0.52648  -0.52433  -0.52174  -0.49977  -0.49833
 Alpha  occ. eigenvalues --   -0.48040  -0.47726  -0.46681  -0.46519  -0.45871
 Alpha  occ. eigenvalues --   -0.45742  -0.45711  -0.45495  -0.43775  -0.43731
 Alpha virt. eigenvalues --    0.21745   0.23119   0.23511   0.24928   0.25742
 Alpha virt. eigenvalues --    0.26727   0.26787   0.27467   0.27918   0.29422
 Alpha virt. eigenvalues --    0.29743   0.31281   0.31408   0.31978   0.32284

 Mulliken charges:
               1
     1  C   -0.298213
     2  C   -0.299617
     3  C   -0.475703
     4  H    0.149758
     5  H    0.149816
     6  H    0.151525
     7  H    0.151873
     8  H    0.155294
     9  H    0.155264
    10  H    0.160225
    11  C   -0.299592
    12  C   -0.300012
    13  C   -0.478430
    14  H    0.149331
    15  H    0.149916
    16  H    0.151548
    17  H    0.151553
    18  H    0.155538
    19  H    0.161339
    20  H    0.159215
    21  C   -0.298193
    22  C   -0.299602
    23  C   -0.475686
    24  H    0.149670
    25  H    0.149528
    26  H    0.151770
    27  H    0.151854
    28  H    0.155180
    29  H    0.155178
    30  H    0.160170
    31  C   -0.298278
    32  C   -0.300351
    33  C   -0.478054
    34  H    0.148988
    35  H    0.149406
    36  H    0.151704
    37  H    0.151384
    38  H    0.153967
    39  H    0.159689
    40  H    0.161045
 Sum of Mulliken charges =  -0.00000

 Dipole moment (field-independent basis, Debye):
    X=             -0.0170    Y=             -0.0152    Z=             -0.0010  Tot=              0.0229
 Quadrupole moment (field-independent basis, Debye-Ang):
   XX=            -85.5011   YY=            -85.5118   ZZ=            -83.8730
   XY=             -0.4479   XZ=             -0.7693   YZ=             -0.0851

 Normal termination of Gaussian 16 at Wed May  5 16:36:34 2021.
