 Gaussian 16, Revision A.03,
 Gaussian 16:  EM64L-G16RevA.03 25-Dec-2016

 -------------
 #p 6-31g* mp2
 -------------

 ------------------------------------------------------
 Input file generated by CHIRIPA (05-May-2021 14:55:22)
 ------------------------------------------------------
 Symbolic Z-matrix:
 Charge =  0 Multiplicity = 1

                         Standard orientation:
 ---------------------------------------------------------------------
 Center     Atomic      Atomic             Coordinates (Angstroms)
 Number     Number       Type             X           Y           Z
 ---------------------------------------------------------------------
      1          6           0        3.857882    1.916084    0.032924
      2          6           0        2.459322    1.932677    0.016355
      3          6           0        1.735335    0.736974   -0.009815
      4          6           0        2.445348   -0.462647   -0.018805
      5          6           0        3.838401   -0.512018   -0.002781
      6          6           0        4.541752    0.695940    0.023320
      7          1           0        4.412277    2.849695    0.053226
      8          1           0        1.925569    2.878773    0.023760
      9          1           0        0.652292    0.720844   -0.023069
     10          1           0        4.342545   -1.470764   -0.010726
     11          1           0        5.627859    0.680016    0.036143
     12          7           0        1.689819   -1.734972   -0.046473
     13          8           0        2.338919   -2.778643   -0.053916
     14          8           0        0.462840   -1.664457   -0.060192
     15          6           0       -3.532167   -0.319117   -0.315226
     16          6           0       -3.332025   -1.563862    0.549956
     17          6           0       -3.822511   -2.842064   -0.130791
     18          1           0       -4.598110   -0.219156   -0.561640
     19          1           0       -3.002390   -0.454519   -1.268324
     20          1           0       -3.860877   -1.425580    1.501697
     21          1           0       -2.266463   -1.660765    0.794499
     22          1           0       -3.287176   -3.007372   -1.071371
     23          1           0       -4.890650   -2.770851   -0.360155
     24          1           0       -3.669856   -3.719595    0.505209
     25          6           0       -3.046696    0.966676    0.351692
     26          6           0       -3.246838    2.211421   -0.513490
     27          6           0       -2.756353    3.489624    0.167256
     28          1           0       -3.576475    1.102077    1.304790
     29          1           0       -1.980755    0.866715    0.598106
     30          1           0       -4.312401    2.308325   -0.758033
     31          1           0       -2.717986    2.073139   -1.465230
     32          1           0       -1.688213    3.418410    0.396621
     33          1           0       -3.291688    3.654932    1.107836
     34          1           0       -2.909008    4.367155   -0.468743
 ---------------------------------------------------------------------

 SCF Done:  E(RHF) =  -669.536122061     A.U. after   15 cycles
 E2 =    -0.2092009003D+01 EUMP2 =    -0.67162813106350D+03

 The electronic state is 1-A.
 Alpha  occ. eigenvalues --  -20.60966 -20.60949 -15.86002 -11.31300 -11.27863
 Alpha  occ. eigenvalues --  -11.27858 -11.27593 -11.26865 -11.26854 -11.21614
 Alpha  occ. eigenvalues --  -11.21358 -11.21174 -11.20734 -11.20471 -11.20031
 Alpha  occ. eigenvalues --   -1.60024  -1.39581  -1.19467  -1.08874  -1.08001
 Alpha  occ. eigenvalues --   -1.04861  -1.03044  -0.95721  -0.95552  -0.86576
 Alpha  occ. eigenvalues --   -0.86262  -0.82559  -0.79197  -0.77753  -0.77553
 Alpha  occ. eigenvalues --   -0.72234  -0.71337  -0.70579  -0.65131  -0.64885
 Alpha  occ. eigenvalues --   -0.64610  -0.62208  -0.60415  -0.59002  -0.57116
 Alpha  occ. eigenvalues --   -0.55366  -0.54860  -0.53192  -0.52953  -0.52264
 Alpha  occ. eigenvalues --   -0.51962  -0.49523  -0.48984  -0.48974  -0.47489
 Alpha  occ. eigenvalues --   -0.46247  -0.45270  -0.45167  -0.44854  -0.43308
 Alpha  occ. eigenvalues --   -0.37444  -0.36460
 Alpha virt. eigenvalues --    0.04905   0.11189   0.16403   0.19076   0.22950
 Alpha virt. eigenvalues --    0.24530   0.25661   0.26936   0.27653   0.28342
 Alpha virt. eigenvalues --    0.29618   0.31182   0.31903   0.32344   0.32622

 Mulliken charges:
               1
     1  C   -0.170228
     2  C   -0.221315
     3  C   -0.175936
     4  C    0.156215
     5  C   -0.169810
     6  C   -0.218901
     7  H    0.226202
     8  H    0.224799
     9  H    0.284099
    10  H    0.275862
    11  H    0.223869
    12  N    0.493832
    13  O   -0.458544
    14  O   -0.467956
    15  C   -0.296464
    16  C   -0.309429
    17  C   -0.474419
    18  H    0.146014
    19  H    0.152263
    20  H    0.144731
    21  H    0.178573
    22  H    0.159541
    23  H    0.148261
    24  H    0.160623
    25  C   -0.301941
    26  C   -0.300293
    27  C   -0.472914
    28  H    0.149765
    29  H    0.147933
    30  H    0.154131
    31  H    0.150427
    32  H    0.143378
    33  H    0.157621
    34  H    0.160011
 Sum of Mulliken charges =  -0.00000

 Dipole moment (field-independent basis, Debye):
    X=              2.8225    Y=              4.3302    Z=              0.0884  Tot=              5.1696
 Quadrupole moment (field-independent basis, Debye-Ang):
   XX=            -77.7390   YY=            -99.1677   ZZ=            -95.7014
   XY=              6.9412   XZ=             -0.2348   YZ=             -0.4472

 Normal termination of Gaussian 16 at Wed May  5 17:30:15 2021.
