 Gaussian 16, Revision A.03,
 Gaussian 16:  EM64L-G16RevA.03 25-Dec-2016

 -------------
 #p 6-31g* mp2
 -------------

 ------------------------------------------------------
 Input file generated by CHIRIPA (05-May-2021 14:53:13)
 ------------------------------------------------------
 Symbolic Z-matrix:
 Charge =  0 Multiplicity = 1

                         Standard orientation:
 ---------------------------------------------------------------------
 Center     Atomic      Atomic             Coordinates (Angstroms)
 Number     Number       Type             X           Y           Z
 ---------------------------------------------------------------------
      1          6           0        2.805947    0.927905   -0.119635
      2          6           0        3.108933    2.399395   -0.404067
      3          6           0        1.844613    3.234206   -0.609932
      4          1           0        2.222252    0.512661   -0.952592
      5          1           0        2.169669    0.857756    0.773463
      6          1           0        3.745591    2.466667   -1.295558
      7          1           0        3.692139    2.811134    0.429575
      8          1           0        1.209048    3.196852    0.280721
      9          1           0        1.262804    2.850429   -1.454214
     10          1           0        2.084375    4.282819   -0.811885
     11          6           0        4.059832    0.080435    0.088435
     12          6           0        3.756846   -1.391055    0.372867
     13          6           0        5.021166   -2.225866    0.578732
     14          1           0        4.696110    0.150584   -0.804663
     15          1           0        4.643527    0.495679    0.921392
     16          1           0        3.173640   -1.802794   -0.460775
     17          1           0        3.120188   -1.458328    1.264359
     18          1           0        5.602975   -1.842089    1.423015
     19          1           0        5.656731   -2.188512   -0.311921
     20          1           0        4.781404   -3.274480    0.780685
     21          6           0       -4.820156    0.861449    0.479219
     22          6           0       -4.860373   -0.362532   -0.196633
     23          6           0       -3.681898   -1.066770   -0.460822
     24          6           0       -2.475230   -0.515243   -0.032963
     25          6           0       -2.402466    0.701990    0.642564
     26          6           0       -3.593495    1.388874    0.895925
     27          1           0       -5.740500    1.401777    0.680242
     28          1           0       -5.811582   -0.774545   -0.521426
     29          1           0       -3.684182   -2.016317   -0.982139
     30          1           0       -1.439161    1.087328    0.953973
     31          1           0       -3.559239    2.339224    1.421001
     32          7           0       -1.220987   -1.251602   -0.306917
     33          8           0       -0.170654   -0.744282    0.080462
     34          8           0       -1.311995   -2.322137   -0.903833
 ---------------------------------------------------------------------

 SCF Done:  E(RHF) =  -669.535577834     A.U. after   15 cycles
 E2 =    -0.2091979207D+01 EUMP2 =    -0.67162755704092D+03

 The electronic state is 1-A.
 Alpha  occ. eigenvalues --  -20.60905 -20.60893 -15.85929 -11.31264 -11.27831
 Alpha  occ. eigenvalues --  -11.27825 -11.27569 -11.26839 -11.26828 -11.20798
 Alpha  occ. eigenvalues --  -11.20634 -11.20234 -11.20166 -11.19996 -11.19994
 Alpha  occ. eigenvalues --   -1.59969  -1.39524  -1.19435  -1.08839  -1.07288
 Alpha  occ. eigenvalues --   -1.04832  -1.02543  -0.95682  -0.95017  -0.86232
 Alpha  occ. eigenvalues --   -0.86054  -0.82521  -0.78580  -0.77609  -0.76963
 Alpha  occ. eigenvalues --   -0.72136  -0.71283  -0.70543  -0.65089  -0.64835
 Alpha  occ. eigenvalues --   -0.63938  -0.62179  -0.59962  -0.58402  -0.56592
 Alpha  occ. eigenvalues --   -0.55337  -0.54333  -0.53164  -0.52924  -0.51774
 Alpha  occ. eigenvalues --   -0.51448  -0.49027  -0.48926  -0.48904  -0.46901
 Alpha  occ. eigenvalues --   -0.45600  -0.45041  -0.44517  -0.44336  -0.42735
 Alpha  occ. eigenvalues --   -0.37415  -0.36433
 Alpha virt. eigenvalues --    0.04948   0.11219   0.16432   0.20931   0.23515
 Alpha virt. eigenvalues --    0.24750   0.26589   0.27573   0.28120   0.29001
 Alpha virt. eigenvalues --    0.29218   0.30971   0.31693   0.32540   0.32740

 Mulliken charges:
               1
     1  C   -0.295436
     2  C   -0.299497
     3  C   -0.472848
     4  H    0.161927
     5  H    0.153205
     6  H    0.149450
     7  H    0.147576
     8  H    0.146636
     9  H    0.155579
    10  H    0.156484
    11  C   -0.299550
    12  C   -0.297395
    13  C   -0.475713
    14  H    0.144611
    15  H    0.143047
    16  H    0.162710
    17  H    0.155142
    18  H    0.150260
    19  H    0.151613
    20  H    0.158988
    21  C   -0.170598
    22  C   -0.218634
    23  C   -0.170735
    24  C    0.157334
    25  C   -0.170995
    26  C   -0.218662
    27  H    0.225909
    28  H    0.223669
    29  H    0.275673
    30  H    0.276496
    31  H    0.223953
    32  N    0.493212
    33  O   -0.463376
    34  O   -0.460036
 Sum of Mulliken charges =  -0.00000

 Dipole moment (field-independent basis, Debye):
    X=             -4.6991    Y=              2.4102    Z=              0.9174  Tot=              5.3602
 Quadrupole moment (field-independent basis, Debye-Ang):
   XX=            -73.9959   YY=            -96.4285   ZZ=            -93.5938
   XY=             -1.7926   XZ=             -1.3128   YZ=              1.7982

 Normal termination of Gaussian 16 at Wed May  5 20:12:05 2021.
