 Gaussian 16, Revision A.03,
 Gaussian 16:  EM64L-G16RevA.03 25-Dec-2016

 -------------
 #p 6-31g* mp2
 -------------

 ------------------------------------------------------
 Input file generated by CHIRIPA (05-May-2021 14:57:22)
 ------------------------------------------------------
 Symbolic Z-matrix:
 Charge =  0 Multiplicity = 1

                         Standard orientation:
 ---------------------------------------------------------------------
 Center     Atomic      Atomic             Coordinates (Angstroms)
 Number     Number       Type             X           Y           Z
 ---------------------------------------------------------------------
      1          6           0       -3.856921    2.115502    0.928853
      2          6           0       -4.438221    1.555586   -0.213559
      3          6           0       -4.035159    0.297636   -0.671437
      4          6           0       -3.043723   -0.375681    0.040594
      5          6           0       -2.445514    0.155628    1.182148
      6          6           0       -2.864173    1.414971    1.621839
      7          1           0       -4.176088    3.093248    1.277480
      8          1           0       -5.209418    2.097348   -0.753738
      9          1           0       -4.468376   -0.159258   -1.552907
     10          1           0       -1.679023   -0.408439    1.699582
     11          1           0       -2.410967    1.847354    2.509360
     12          7           0       -2.608763   -1.708153   -0.434514
     13          8           0       -1.733384   -2.281074    0.210552
     14          8           0       -3.151456   -2.154394   -1.442974
     15          6           0        3.342271   -2.234477    0.655522
     16          6           0        4.366172   -1.316091    0.909916
     17          6           0        4.251241    0.011005    0.485471
     18          6           0        3.093477    0.387183   -0.193765
     19          6           0        2.056019   -0.504359   -0.462323
     20          6           0        2.192490   -1.826398   -0.028579
     21          1           0        3.439919   -3.263433    0.988853
     22          1           0        5.260237   -1.630199    1.440981
     23          1           0        5.028628    0.742696    0.669091
     24          1           0        1.176668   -0.161614   -0.994006
     25          1           0        1.395712   -2.537458   -0.227541
     26          7           0        2.960403    1.789445   -0.648028
     27          8           0        1.930366    2.095844   -1.244502
     28          8           0        3.888656    2.555585   -0.399004
 ---------------------------------------------------------------------

 SCF Done:  E(RHF) =  -868.340374468     A.U. after   16 cycles
 E2 =    -0.2598629876D+01 EUMP2 =    -0.87093900434407D+03

 The electronic state is 1-A.
 Alpha  occ. eigenvalues --  -20.61396 -20.61329 -20.60555 -20.60550 -15.86388
 Alpha  occ. eigenvalues --  -15.85597 -11.31409 -11.30777 -11.27947 -11.27923
 Alpha  occ. eigenvalues --  -11.27593 -11.27329 -11.27223 -11.26945 -11.26863
 Alpha  occ. eigenvalues --  -11.26853 -11.26332 -11.26059  -1.60431  -1.59636
 Alpha  occ. eigenvalues --   -1.39994  -1.39193  -1.19542  -1.18902  -1.09000
 Alpha  occ. eigenvalues --   -1.08328  -1.04893  -1.04245  -0.95893  -0.95203
 Alpha  occ. eigenvalues --   -0.86311  -0.85651  -0.82743  -0.82018  -0.77832
 Alpha  occ. eigenvalues --   -0.77096  -0.72620  -0.71820  -0.71739  -0.70959
 Alpha  occ. eigenvalues --   -0.70646  -0.70003  -0.65201  -0.64893  -0.64533
 Alpha  occ. eigenvalues --   -0.64194  -0.62253  -0.61570  -0.55399  -0.54752
 Alpha  occ. eigenvalues --   -0.53232  -0.52985  -0.52625  -0.52288  -0.49389
 Alpha  occ. eigenvalues --   -0.49337  -0.48586  -0.48556  -0.45470  -0.44640
 Alpha  occ. eigenvalues --   -0.37489  -0.36885  -0.36472  -0.35849
 Alpha virt. eigenvalues --    0.04645   0.05384   0.11165   0.11803   0.16204
 Alpha virt. eigenvalues --    0.16939   0.21311   0.22083   0.27237   0.27746
 Alpha virt. eigenvalues --    0.28424   0.28753   0.30968   0.31680   0.32446

 Mulliken charges:
               1
     1  C   -0.168269
     2  C   -0.217598
     3  C   -0.169807
     4  C    0.156697
     5  C   -0.171251
     6  C   -0.216086
     7  H    0.228182
     8  H    0.225157
     9  H    0.275725
    10  H    0.273436
    11  H    0.225649
    12  N    0.488628
    13  O   -0.471606
    14  O   -0.456421
    15  C   -0.172607
    16  C   -0.218611
    17  C   -0.173513
    18  C    0.157584
    19  C   -0.175446
    20  C   -0.222810
    21  H    0.226443
    22  H    0.221376
    23  H    0.272994
    24  H    0.273999
    25  H    0.245393
    26  N    0.487841
    27  O   -0.462625
    28  O   -0.462455
 Sum of Mulliken charges =  -0.00000

 Dipole moment (field-independent basis, Debye):
    X=             -1.3950    Y=             -0.2559    Z=              3.2664  Tot=              3.5610
 Quadrupole moment (field-independent basis, Debye-Ang):
   XX=            -87.0359   YY=           -112.8776   ZZ=           -102.6635
   XY=            -29.1224   XZ=              4.5629   YZ=              1.6335

 Normal termination of Gaussian 16 at Wed May  5 19:22:20 2021.
