 Gaussian 16, Revision A.03,
 Gaussian 16:  EM64L-G16RevA.03 25-Dec-2016

 -------------
 #p 6-31g* mp2
 -------------

 ------------------------------------------------------
 Input file generated by CHIRIPA (05-May-2021 14:57:22)
 ------------------------------------------------------
 Symbolic Z-matrix:
 Charge =  0 Multiplicity = 1

                         Standard orientation:
 ---------------------------------------------------------------------
 Center     Atomic      Atomic             Coordinates (Angstroms)
 Number     Number       Type             X           Y           Z
 ---------------------------------------------------------------------
      1          6           0        6.422861   -1.606433    0.057375
      2          6           0        6.677108   -0.288932   -0.337683
      3          6           0        5.646619    0.655463   -0.365248
      4          6           0        4.368078    0.246118    0.010332
      5          6           0        4.083140   -1.059039    0.408659
      6          6           0        5.128970   -1.986611    0.428631
      7          1           0        7.229328   -2.333527    0.075838
      8          1           0        7.680981    0.009146   -0.626531
      9          1           0        5.815543    1.682047   -0.666922
     10          1           0        3.072104   -1.326392    0.691054
     11          1           0        4.928593   -3.009106    0.735874
     12          7           0        3.269026    1.237002   -0.014830
     13          8           0        2.151347    0.851221    0.320736
     14          8           0        3.546078    2.380675   -0.369642
     15          6           0       -2.064878    0.349588    0.069334
     16          6           0       -2.965126    1.383784    0.345941
     17          6           0       -4.343751    1.155636    0.302474
     18          6           0       -4.789392   -0.124611   -0.022582
     19          6           0       -3.917577   -1.175557   -0.303191
     20          6           0       -2.543134   -0.924536   -0.253780
     21          1           0       -0.995553    0.535702    0.105409
     22          1           0       -2.596561    2.374284    0.597166
     23          1           0       -5.062862    1.938144    0.512187
     24          1           0       -4.315054   -2.152405   -0.550573
     25          1           0       -1.846313   -1.729607   -0.469061
     26          7           0       -6.246667   -0.378248   -0.071745
     27          8           0       -6.613889   -1.515039   -0.360694
     28          8           0       -6.994065    0.564546    0.179600
 ---------------------------------------------------------------------

 SCF Done:  E(RHF) =  -868.340180747     A.U. after   16 cycles
 E2 =    -0.2598032233D+01 EUMP2 =    -0.87093821298013D+03

 The electronic state is 1-A.
 Alpha  occ. eigenvalues --  -20.61855 -20.61799 -20.60189 -20.60182 -15.86868
 Alpha  occ. eigenvalues --  -15.85239 -11.31972 -11.30429 -11.28534 -11.28484
 Alpha  occ. eigenvalues --  -11.28185 -11.27467 -11.27440 -11.27032 -11.26986
 Alpha  occ. eigenvalues --  -11.26483 -11.25944 -11.25856  -1.60886  -1.59269
 Alpha  occ. eigenvalues --   -1.40451  -1.38828  -1.20115  -1.18577  -1.09554
 Alpha  occ. eigenvalues --   -1.07959  -1.05481  -1.03971  -0.96435  -0.94826
 Alpha  occ. eigenvalues --   -0.86890  -0.85351  -0.83283  -0.81683  -0.78360
 Alpha  occ. eigenvalues --   -0.76796  -0.73109  -0.72186  -0.71458  -0.71218
 Alpha  occ. eigenvalues --   -0.70593  -0.69548  -0.65773  -0.65478  -0.64210
 Alpha  occ. eigenvalues --   -0.63958  -0.62835  -0.61337  -0.55980  -0.54286
 Alpha  occ. eigenvalues --   -0.53820  -0.53569  -0.52298  -0.52047  -0.49868
 Alpha  occ. eigenvalues --   -0.49812  -0.48224  -0.48199  -0.45911  -0.44273
 Alpha  occ. eigenvalues --   -0.38072  -0.37072  -0.36485  -0.35602
 Alpha virt. eigenvalues --    0.04160   0.05758   0.10587   0.12070   0.15705
 Alpha virt. eigenvalues --    0.17313   0.20717   0.22384   0.26670   0.27488
 Alpha virt. eigenvalues --    0.28096   0.29310   0.30409   0.31612   0.32214

 Mulliken charges:
               1
     1  C   -0.169789
     2  C   -0.218381
     3  C   -0.170123
     4  C    0.157867
     5  C   -0.170412
     6  C   -0.218260
     7  H    0.228287
     8  H    0.226000
     9  H    0.276955
    10  H    0.272043
    11  H    0.225157
    12  N    0.493552
    13  O   -0.474973
    14  O   -0.455463
    15  C   -0.179310
    16  C   -0.220943
    17  C   -0.171632
    18  C    0.156960
    19  C   -0.171777
    20  C   -0.220829
    21  H    0.250720
    22  H    0.226590
    23  H    0.273442
    24  H    0.272033
    25  H    0.219327
    26  N    0.488316
    27  O   -0.463231
    28  O   -0.462126
 Sum of Mulliken charges =  -0.00000

 Dipole moment (field-independent basis, Debye):
    X=              9.6203    Y=             -2.5020    Z=              0.2575  Tot=              9.9437
 Quadrupole moment (field-independent basis, Debye-Ang):
   XX=           -118.7943   YY=            -99.9394   ZZ=           -105.6902
   XY=            -18.2240   XZ=             -2.1214   YZ=             -0.0532

 Normal termination of Gaussian 16 at Fri May  7 01:42:56 2021.
