 Gaussian 16, Revision A.03,
 Gaussian 16:  EM64L-G16RevA.03 25-Dec-2016

 -------------
 #p 6-31g* mp2
 -------------

 ------------------------------------------------------
 Input file generated by CHIRIPA (05-May-2021 14:55:23)
 ------------------------------------------------------
 Symbolic Z-matrix:
 Charge =  0 Multiplicity = 1

                         Standard orientation:
 ---------------------------------------------------------------------
 Center     Atomic      Atomic             Coordinates (Angstroms)
 Number     Number       Type             X           Y           Z
 ---------------------------------------------------------------------
      1          6           0        2.796950   -2.227711   -0.137521
      2          6           0        2.297977   -1.595689    1.006198
      3          6           0        2.303041   -0.201224    1.106158
      4          6           0        2.816857    0.533595    0.038767
      5          6           0        3.321048   -0.066832   -1.113869
      6          6           0        3.305995   -1.462615   -1.192045
      7          1           0        2.789137   -3.311477   -0.206711
      8          1           0        1.902032   -2.187333    1.826704
      9          1           0        1.922974    0.313896    1.980011
     10          1           0        3.709272    0.549715   -1.915473
     11          1           0        3.694156   -1.950744   -2.081486
     12          7           0        2.827505    2.010550    0.133060
     13          8           0        3.285643    2.635329   -0.821088
     14          8           0        2.377511    2.515442    1.159328
     15          6           0       -4.284841   -0.150591   -0.294700
     16          6           0       -4.669178    1.267736    0.127934
     17          6           0       -6.035147    1.695144   -0.409880
     18          1           0       -4.284209   -0.212026   -1.391591
     19          1           0       -5.054232   -0.851739    0.057185
     20          1           0       -3.898587    1.965832   -0.223447
     21          1           0       -4.668707    1.325852    1.223944
     22          1           0       -6.819251    1.021886   -0.048628
     23          1           0       -6.044756    1.665502   -1.504242
     24          1           0       -6.289972    2.712136   -0.095791
     25          6           0       -2.921821   -0.592258    0.235240
     26          6           0       -2.537484   -2.010585   -0.187395
     27          6           0       -1.171515   -2.437993    0.350419
     28          1           0       -2.152430    0.108889   -0.116646
     29          1           0       -2.922452   -0.530824    1.332131
     30          1           0       -2.537954   -2.068701   -1.283404
     31          1           0       -3.308075   -2.708682    0.163987
     32          1           0       -1.161905   -2.408351    1.444782
     33          1           0       -0.387410   -1.764734   -0.010833
     34          1           0       -0.916690   -3.454985    0.036331
 ---------------------------------------------------------------------

 SCF Done:  E(RHF) =  -669.534861865     A.U. after   15 cycles
 E2 =    -0.2092198860D+01 EUMP2 =    -0.67162706072576D+03

 The electronic state is 1-A.
 Alpha  occ. eigenvalues --  -20.60785 -20.60780 -15.85838 -11.31211 -11.27760
 Alpha  occ. eigenvalues --  -11.27740 -11.27483 -11.26790 -11.26750 -11.21868
 Alpha  occ. eigenvalues --  -11.21561 -11.21528 -11.21462 -11.21426 -11.21018
 Alpha  occ. eigenvalues --   -1.59861  -1.39413  -1.19381  -1.08773  -1.08547
 Alpha  occ. eigenvalues --   -1.04782  -1.03670  -0.96142  -0.95601  -0.87179
 Alpha  occ. eigenvalues --   -0.86161  -0.82432  -0.79749  -0.78344  -0.77478
 Alpha  occ. eigenvalues --   -0.72054  -0.71185  -0.70467  -0.65178  -0.65022
 Alpha  occ. eigenvalues --   -0.64771  -0.62119  -0.61075  -0.59522  -0.57755
 Alpha  occ. eigenvalues --   -0.55473  -0.55263  -0.53334  -0.52883  -0.52805
 Alpha  occ. eigenvalues --   -0.52387  -0.50052  -0.48814  -0.48810  -0.48050
 Alpha  occ. eigenvalues --   -0.46758  -0.45894  -0.45796  -0.44817  -0.43930
 Alpha  occ. eigenvalues --   -0.37323  -0.36318
 Alpha virt. eigenvalues --    0.05042   0.11239   0.16534   0.21105   0.22763
 Alpha virt. eigenvalues --    0.24174   0.26188   0.26810   0.27434   0.28119
 Alpha virt. eigenvalues --    0.28528   0.30189   0.31483   0.31839   0.32099

 Mulliken charges:
               1
     1  C   -0.170479
     2  C   -0.215293
     3  C   -0.172452
     4  C    0.158403
     5  C   -0.171801
     6  C   -0.218533
     7  H    0.226143
     8  H    0.225720
     9  H    0.275874
    10  H    0.275507
    11  H    0.223528
    12  N    0.488023
    13  O   -0.460484
    14  O   -0.460196
    15  C   -0.298418
    16  C   -0.300302
    17  C   -0.475880
    18  H    0.149788
    19  H    0.148889
    20  H    0.154997
    21  H    0.152161
    22  H    0.154343
    23  H    0.155186
    24  H    0.161545
    25  C   -0.298940
    26  C   -0.299036
    27  C   -0.481857
    28  H    0.152228
    29  H    0.148905
    30  H    0.152383
    31  H    0.151514
    32  H    0.148859
    33  H    0.165634
    34  H    0.154042
 Sum of Mulliken charges =  -0.00000

 Dipole moment (field-independent basis, Debye):
    X=             -0.0178    Y=             -5.1467    Z=             -0.3483  Tot=              5.1585
 Quadrupole moment (field-independent basis, Debye-Ang):
   XX=            -95.5050   YY=           -101.2694   ZZ=            -90.2105
   XY=            -14.4545   XZ=             -3.7475   YZ=             -0.7901

 Normal termination of Gaussian 16 at Thu May  6 04:43:00 2021.
