 Gaussian 16, Revision A.03,
 Gaussian 16:  EM64L-G16RevA.03 25-Dec-2016

 -------------
 #p 6-31g* mp2
 -------------

 ------------------------------------------------------
 Input file generated by CHIRIPA (05-May-2021 14:51:09)
 ------------------------------------------------------
 Symbolic Z-matrix:
 Charge =  0 Multiplicity = 1

                         Standard orientation:
 ---------------------------------------------------------------------
 Center     Atomic      Atomic             Coordinates (Angstroms)
 Number     Number       Type             X           Y           Z
 ---------------------------------------------------------------------
      1          6           0       -2.995688   -0.150286   -0.207630
      2          6           0       -2.562902   -1.591664   -0.478021
      3          6           0       -1.049051   -1.734120   -0.638504
      4          1           0       -2.650975    0.489951   -1.031167
      5          1           0       -2.494093    0.211548    0.700596
      6          1           0       -3.066232   -1.951137   -1.384693
      7          1           0       -2.908852   -2.228577    0.346162
      8          1           0       -0.532599   -1.401566    0.267744
      9          1           0       -0.690873   -1.122550   -1.472945
     10          1           0       -0.761699   -2.772487   -0.831073
     11          6           0       -4.506350    0.008251   -0.044859
     12          6           0       -4.939136    1.449628    0.225532
     13          6           0       -6.452987    1.592084    0.386015
     14          1           0       -5.007945   -0.353584   -0.953084
     15          1           0       -4.851063   -0.631987    0.778678
     16          1           0       -4.593186    2.086541   -0.598650
     17          1           0       -4.435806    1.809101    1.132204
     18          1           0       -6.811165    0.980514    1.220456
     19          1           0       -6.969439    1.259530   -0.520233
     20          1           0       -6.740339    2.630451    0.578584
     21          6           0        4.130117    0.588756   -0.288078
     22          6           0        4.245219    1.949499    0.399755
     23          6           0        5.006217    2.974648   -0.441520
     24          1           0        5.137587    0.209654   -0.507694
     25          1           0        3.626313    0.716524   -1.256196
     26          1           0        4.747420    1.818994    1.366904
     27          1           0        3.237362    2.325319    0.617931
     28          1           0        4.504273    3.134185   -1.401312
     29          1           0        6.022911    2.624983   -0.648084
     30          1           0        5.076688    3.940137    0.069092
     31          6           0        3.371920   -0.446720    0.540567
     32          6           0        3.256820   -1.807463   -0.147266
     33          6           0        2.495822   -2.832613    0.694009
     34          1           0        3.875725   -0.574488    1.508685
     35          1           0        2.364451   -0.067617    0.760183
     36          1           0        4.264676   -2.183283   -0.365443
     37          1           0        2.754618   -1.676959   -1.114417
     38          1           0        1.479128   -2.482947    0.900572
     39          1           0        2.997765   -2.992149    1.653801
     40          1           0        2.425349   -3.798102    0.183397
 ---------------------------------------------------------------------

 SCF Done:  E(RHF) =  -470.732967364     A.U. after   11 cycles
 E2 =    -0.1582767601D+01 EUMP2 =    -0.47231573496449D+03

 The electronic state is 1-A.
 Alpha  occ. eigenvalues --  -11.21649 -11.21629 -11.21566 -11.21500 -11.21447
 Alpha  occ. eigenvalues --  -11.21386 -11.21350 -11.21288 -11.21136 -11.21092
 Alpha  occ. eigenvalues --  -11.21045 -11.20903  -1.08473  -1.08365  -1.03584
 Alpha  occ. eigenvalues --   -1.03448  -0.96052  -0.95885  -0.87081  -0.86893
 Alpha  occ. eigenvalues --   -0.79665  -0.79500  -0.78287  -0.78180  -0.65117
 Alpha  occ. eigenvalues --   -0.64987  -0.61062  -0.60794  -0.59396  -0.59272
 Alpha  occ. eigenvalues --   -0.57643  -0.57515  -0.55476  -0.55075  -0.52734
 Alpha  occ. eigenvalues --   -0.52593  -0.52471  -0.52294  -0.50137  -0.49681
 Alpha  occ. eigenvalues --   -0.48008  -0.47788  -0.46773  -0.46435  -0.45854
 Alpha  occ. eigenvalues --   -0.45769  -0.45688  -0.45577  -0.43815  -0.43715
 Alpha virt. eigenvalues --    0.21410   0.22971   0.23682   0.24820   0.26012
 Alpha virt. eigenvalues --    0.26522   0.27346   0.27516   0.27885   0.29127
 Alpha virt. eigenvalues --    0.30182   0.31184   0.31638   0.32041   0.32150

 Mulliken charges:
               1
     1  C   -0.298612
     2  C   -0.299988
     3  C   -0.478715
     4  H    0.149539
     5  H    0.149513
     6  H    0.152161
     7  H    0.152369
     8  H    0.156904
     9  H    0.154980
    10  H    0.162621
    11  C   -0.298311
    12  C   -0.299688
    13  C   -0.475735
    14  H    0.149648
    15  H    0.149816
    16  H    0.151923
    17  H    0.151964
    18  H    0.155261
    19  H    0.155229
    20  H    0.160344
    21  C   -0.298174
    22  C   -0.299636
    23  C   -0.475654
    24  H    0.149540
    25  H    0.149474
    26  H    0.151789
    27  H    0.151895
    28  H    0.155095
    29  H    0.155122
    30  H    0.160102
    31  C   -0.299008
    32  C   -0.299489
    33  C   -0.480444
    34  H    0.149161
    35  H    0.149774
    36  H    0.151304
    37  H    0.152935
    38  H    0.162361
    39  H    0.153638
    40  H    0.158991
 Sum of Mulliken charges =  -0.00000

 Dipole moment (field-independent basis, Debye):
    X=             -0.0554    Y=             -0.0056    Z=             -0.0131  Tot=              0.0572
 Quadrupole moment (field-independent basis, Debye-Ang):
   XX=            -85.5674   YY=            -85.5300   ZZ=            -83.8410
   XY=             -0.3534   XZ=              0.8473   YZ=              0.1204

 Normal termination of Gaussian 16 at Wed May  5 16:37:24 2021.
