 Gaussian 16, Revision A.03,
 Gaussian 16:  EM64L-G16RevA.03 25-Dec-2016

 -------------
 #p 6-31g* mp2
 -------------

 ------------------------------------------------------
 Input file generated by CHIRIPA (05-May-2021 14:51:13)
 ------------------------------------------------------
 Symbolic Z-matrix:
 Charge =  0 Multiplicity = 1

                         Standard orientation:
 ---------------------------------------------------------------------
 Center     Atomic      Atomic             Coordinates (Angstroms)
 Number     Number       Type             X           Y           Z
 ---------------------------------------------------------------------
      1          6           0        4.283179   -0.585970   -0.335394
      2          6           0        5.219896    0.584688   -0.035218
      3          6           0        6.499385    0.547445   -0.871468
      4          1           0        4.815364   -1.529440   -0.152124
      5          1           0        4.024772   -0.575214   -1.403339
      6          1           0        5.475354    0.572538    1.032119
      7          1           0        4.685357    1.525482   -0.219041
      8          1           0        6.262560    0.583024   -1.939761
      9          1           0        7.057046   -0.375335   -0.681492
     10          1           0        7.154487    1.393326   -0.640844
     11          6           0        2.999708   -0.562622    0.492788
     12          6           0        2.062991   -1.733280    0.192612
     13          6           0        0.783501   -1.696038    1.028862
     14          1           0        3.258114   -0.573379    1.560732
     15          1           0        2.467522    0.380848    0.309517
     16          1           0        2.597529   -2.674075    0.376434
     17          1           0        1.807532   -1.721130   -0.874726
     18          1           0        0.225841   -0.773257    0.838886
     19          1           0        1.020326   -1.731616    2.097155
     20          1           0        0.128399   -2.541918    0.798238
     21          6           0       -3.335070    1.246398   -0.273239
     22          6           0       -2.205126    1.689613    0.656692
     23          6           0       -1.602310    3.035970    0.254539
     24          1           0       -2.952834    1.186153   -1.301447
     25          1           0       -4.120659    2.014667   -0.276326
     26          1           0       -1.422533    0.920094    0.659093
     27          1           0       -2.590047    1.748624    1.682835
     28          1           0       -2.366123    3.820153    0.270283
     29          1           0       -1.191974    2.986915   -0.759275
     30          1           0       -0.796454    3.333633    0.932665
     31          6           0       -3.947817   -0.097806    0.115846
     32          6           0       -5.077760   -0.541020   -0.814086
     33          6           0       -5.680576   -1.887377   -0.411933
     34          1           0       -3.162228   -0.866074    0.118932
     35          1           0       -4.330052   -0.037560    1.144053
     36          1           0       -4.692838   -0.600032   -1.840228
     37          1           0       -5.860354    0.228499   -0.816487
     38          1           0       -6.090912   -1.838322    0.601881
     39          1           0       -4.916764   -2.671560   -0.427677
     40          1           0       -6.486432   -2.185041   -1.090057
 ---------------------------------------------------------------------

 SCF Done:  E(RHF) =  -470.733367849     A.U. after   11 cycles
 E2 =    -0.1582645300D+01 EUMP2 =    -0.47231601314944D+03

 The electronic state is 1-A.
 Alpha  occ. eigenvalues --  -11.21635 -11.21611 -11.21596 -11.21586 -11.21424
 Alpha  occ. eigenvalues --  -11.21392 -11.21365 -11.21329 -11.21103 -11.21090
 Alpha  occ. eigenvalues --  -11.21078 -11.21056  -1.08452  -1.08420  -1.03559
 Alpha  occ. eigenvalues --   -1.03521  -0.96004  -0.95973  -0.87028  -0.86983
 Alpha  occ. eigenvalues --   -0.79654  -0.79555  -0.78279  -0.78214  -0.65131
 Alpha  occ. eigenvalues --   -0.65014  -0.61053  -0.60840  -0.59379  -0.59335
 Alpha  occ. eigenvalues --   -0.57635  -0.57562  -0.55318  -0.55244  -0.52702
 Alpha  occ. eigenvalues --   -0.52669  -0.52459  -0.52374  -0.50045  -0.49852
 Alpha  occ. eigenvalues --   -0.48043  -0.47819  -0.46800  -0.46488  -0.45877
 Alpha  occ. eigenvalues --   -0.45756  -0.45744  -0.45515  -0.43806  -0.43777
 Alpha virt. eigenvalues --    0.21195   0.23123   0.23761   0.24599   0.25673
 Alpha virt. eigenvalues --    0.26825   0.27073   0.27471   0.28090   0.29211
 Alpha virt. eigenvalues --    0.30142   0.31651   0.31663   0.31915   0.31937

 Mulliken charges:
               1
     1  C   -0.298306
     2  C   -0.299722
     3  C   -0.475719
     4  H    0.149707
     5  H    0.149476
     6  H    0.151965
     7  H    0.152109
     8  H    0.155181
     9  H    0.155177
    10  H    0.160327
    11  C   -0.298453
    12  C   -0.299156
    13  C   -0.484325
    14  H    0.149698
    15  H    0.149678
    16  H    0.152167
    17  H    0.151594
    18  H    0.162634
    19  H    0.155947
    20  H    0.160136
    21  C   -0.297485
    22  C   -0.309307
    23  C   -0.475311
    24  H    0.149193
    25  H    0.149549
    26  H    0.160291
    27  H    0.152428
    28  H    0.155477
    29  H    0.154580
    30  H    0.160251
    31  C   -0.299093
    32  C   -0.299653
    33  C   -0.475668
    34  H    0.150670
    35  H    0.149731
    36  H    0.151795
    37  H    0.151854
    38  H    0.155219
    39  H    0.155218
    40  H    0.160145
 Sum of Mulliken charges =  -0.00000

 Dipole moment (field-independent basis, Debye):
    X=              0.0080    Y=             -0.0030    Z=              0.0139  Tot=              0.0164
 Quadrupole moment (field-independent basis, Debye-Ang):
   XX=            -85.3432   YY=            -85.2107   ZZ=            -84.1944
   XY=             -1.2168   XZ=              0.5158   YZ=              0.0970

 Normal termination of Gaussian 16 at Wed May  5 23:12:15 2021.
