 Gaussian 16, Revision A.03,
 Gaussian 16:  EM64L-G16RevA.03 25-Dec-2016

 -------------
 #p 6-31g* mp2
 -------------

 ------------------------------------------------------
 Input file generated by CHIRIPA (05-May-2021 14:57:24)
 ------------------------------------------------------
 Symbolic Z-matrix:
 Charge =  0 Multiplicity = 1

                         Standard orientation:
 ---------------------------------------------------------------------
 Center     Atomic      Atomic             Coordinates (Angstroms)
 Number     Number       Type             X           Y           Z
 ---------------------------------------------------------------------
      1          6           0       -2.806806    1.806076    1.048183
      2          6           0       -4.159600    2.054844    0.794046
      3          6           0       -4.981490    1.049146    0.276731
      4          6           0       -4.414985   -0.199287    0.024187
      5          6           0       -3.070836   -0.478014    0.266803
      6          6           0       -2.267692    0.542669    0.784216
      7          1           0       -2.175624    2.593147    1.450084
      8          1           0       -4.580999    3.035067    0.998079
      9          1           0       -6.032017    1.214491    0.070644
     10          1           0       -2.679389   -1.465218    0.053225
     11          1           0       -1.217435    0.346617    0.980603
     12          7           0       -5.275161   -1.271906   -0.523523
     13          8           0       -4.751902   -2.363276   -0.737413
     14          8           0       -6.456337   -1.000945   -0.728557
     15          6           0        2.703158    1.865602   -0.824268
     16          6           0        2.197530    0.707834   -0.223906
     17          6           0        3.058150   -0.319804    0.173387
     18          6           0        4.425005   -0.155677   -0.045834
     19          6           0        4.959251    0.985852   -0.641472
     20          6           0        4.079977    2.000678   -1.030770
     21          1           0        2.027362    2.658919   -1.129789
     22          1           0        1.128727    0.600199   -0.062287
     23          1           0        2.693600   -1.226684    0.640388
     24          1           0        6.029466    1.064351   -0.789447
     25          1           0        4.475474    2.898707   -1.496787
     26          7           0        5.345980   -1.236810    0.370530
     27          8           0        6.546146   -1.067903    0.166306
     28          8           0        4.850234   -2.232637    0.893217
 ---------------------------------------------------------------------

 SCF Done:  E(RHF) =  -868.336558841     A.U. after   16 cycles
 E2 =    -0.2599437668D+01 EUMP2 =    -0.87093599650991D+03

 The electronic state is 1-A.
 Alpha  occ. eigenvalues --  -20.61244 -20.61239 -20.61193 -20.61187 -15.86306
 Alpha  occ. eigenvalues --  -15.86253 -11.31819 -11.31741 -11.28463 -11.28400
 Alpha  occ. eigenvalues --  -11.28382 -11.28309 -11.28242 -11.28136 -11.27589
 Alpha  occ. eigenvalues --  -11.27492 -11.27428 -11.27337  -1.60318  -1.60266
 Alpha  occ. eigenvalues --   -1.39867  -1.39816  -1.20029  -1.19942  -1.09402
 Alpha  occ. eigenvalues --   -1.09316  -1.05468  -1.05376  -0.96202  -0.96124
 Alpha  occ. eigenvalues --   -0.86879  -0.86758  -0.83046  -0.82960  -0.78075
 Alpha  occ. eigenvalues --   -0.77969  -0.72520  -0.72468  -0.71644  -0.71591
 Alpha  occ. eigenvalues --   -0.71140  -0.71052  -0.65692  -0.65668  -0.65602
 Alpha  occ. eigenvalues --   -0.65267  -0.62900  -0.62635  -0.55984  -0.55869
 Alpha  occ. eigenvalues --   -0.53784  -0.53702  -0.53678  -0.53348  -0.49296
 Alpha  occ. eigenvalues --   -0.49265  -0.49235  -0.49215  -0.45239  -0.45194
 Alpha  occ. eigenvalues --   -0.38025  -0.37928  -0.37068  -0.36979
 Alpha virt. eigenvalues --    0.04503   0.04572   0.10509   0.10664   0.15896
 Alpha virt. eigenvalues --    0.16016   0.18177   0.21819   0.24434   0.27506
 Alpha virt. eigenvalues --    0.27802   0.28390   0.29467   0.31527   0.31737

 Mulliken charges:
               1
     1  C   -0.171777
     2  C   -0.218477
     3  C   -0.169431
     4  C    0.159002
     5  C   -0.170159
     6  C   -0.224395
     7  H    0.225006
     8  H    0.225436
     9  H    0.277964
    10  H    0.277322
    11  H    0.219810
    12  N    0.487999
    13  O   -0.458644
    14  O   -0.458634
    15  C   -0.171598
    16  C   -0.222351
    17  C   -0.171119
    18  C    0.159099
    19  C   -0.169751
    20  C   -0.218257
    21  H    0.225602
    22  H    0.218677
    23  H    0.275587
    24  H    0.277690
    25  H    0.225317
    26  N    0.488085
    27  O   -0.458678
    28  O   -0.459323
 Sum of Mulliken charges =  -0.00000

 Dipole moment (field-independent basis, Debye):
    X=             -0.2514    Y=              7.5945    Z=              0.4136  Tot=              7.6100
 Quadrupole moment (field-independent basis, Debye-Ang):
   XX=           -152.6656   YY=           -104.7670   ZZ=           -105.6280
   XY=             -0.3337   XZ=            -16.5053   YZ=             -1.3017

 Normal termination of Gaussian 16 at Thu May  6 03:29:16 2021.
