 Gaussian 16, Revision A.03,
 Gaussian 16:  EM64L-G16RevA.03 25-Dec-2016

 -------------
 #p 6-31g* mp2
 -------------

 ------------------------------------------------------
 Input file generated by CHIRIPA (05-May-2021 14:53:14)
 ------------------------------------------------------
 Symbolic Z-matrix:
 Charge =  0 Multiplicity = 1

                         Standard orientation:
 ---------------------------------------------------------------------
 Center     Atomic      Atomic             Coordinates (Angstroms)
 Number     Number       Type             X           Y           Z
 ---------------------------------------------------------------------
      1          6           0        4.370950   -0.407558    0.614423
      2          6           0        2.935795   -0.530599    0.101416
      3          6           0        1.935863   -0.849485    1.213280
      4          1           0        4.658096   -1.345074    1.109959
      5          1           0        4.412428    0.377305    1.382319
      6          1           0        2.897310   -1.314046   -0.666272
      7          1           0        2.652098    0.407250   -0.393125
      8          1           0        1.944817   -0.064385    1.976261
      9          1           0        2.191422   -1.795462    1.701561
     10          1           0        0.916227   -0.933030    0.824407
     11          6           0        5.382217   -0.088972   -0.485382
     12          6           0        6.817372    0.034069    0.027625
     13          6           0        7.817303    0.352955   -1.084239
     14          1           0        5.340739   -0.873834   -1.253278
     15          1           0        5.095071    0.848544   -0.980918
     16          1           0        7.101068   -0.903780    0.522166
     17          1           0        6.855857    0.817516    0.795313
     18          1           0        7.561745    1.298932   -1.572520
     19          1           0        7.808349   -0.432145   -1.847220
     20          1           0        8.836940    0.436500   -0.695366
     21          6           0       -2.290583    2.153425    0.416814
     22          6           0       -3.577546    2.369933   -0.086543
     23          6           0       -4.427916    1.291754   -0.349127
     24          6           0       -3.956706    0.004523   -0.095575
     25          6           0       -2.679833   -0.243593    0.405744
     26          6           0       -1.846615    0.849651    0.660921
     27          1           0       -1.636658    2.996832    0.617918
     28          1           0       -3.925007    3.381375   -0.277077
     29          1           0       -5.428970    1.430776   -0.738974
     30          1           0       -2.361606   -1.263300    0.585600
     31          1           0       -0.847638    0.678510    1.051818
     32          7           0       -4.847874   -1.144871   -0.369640
     33          8           0       -4.408981   -2.269255   -0.137753
     34          8           0       -5.968391   -0.899620   -0.811150
 ---------------------------------------------------------------------

 SCF Done:  E(RHF) =  -669.535480767     A.U. after   15 cycles
 E2 =    -0.2090901431D+01 EUMP2 =    -0.67162638219799D+03

 The electronic state is 1-A.
 Alpha  occ. eigenvalues --  -20.60726 -20.60721 -15.85779 -11.31140 -11.27708
 Alpha  occ. eigenvalues --  -11.27696 -11.27441 -11.26726 -11.26660 -11.22362
 Alpha  occ. eigenvalues --  -11.22106 -11.21997 -11.21981 -11.21843 -11.21397
 Alpha  occ. eigenvalues --   -1.59802  -1.39355  -1.19307  -1.09002  -1.08703
 Alpha  occ. eigenvalues --   -1.04711  -1.04141  -0.96611  -0.95541  -0.87636
 Alpha  occ. eigenvalues --   -0.86105  -0.82375  -0.80205  -0.78778  -0.77423
 Alpha  occ. eigenvalues --   -0.71997  -0.71124  -0.70421  -0.65632  -0.64960
 Alpha  occ. eigenvalues --   -0.64734  -0.62122  -0.61521  -0.59978  -0.58195
 Alpha  occ. eigenvalues --   -0.55892  -0.55213  -0.53422  -0.53068  -0.53018
 Alpha  occ. eigenvalues --   -0.52661  -0.50532  -0.48755  -0.48753  -0.48515
 Alpha  occ. eigenvalues --   -0.47220  -0.46329  -0.46232  -0.44762  -0.44386
 Alpha  occ. eigenvalues --   -0.37290  -0.36310
 Alpha virt. eigenvalues --    0.05104   0.11333   0.16566   0.20114   0.22533
 Alpha virt. eigenvalues --    0.23745   0.25983   0.26112   0.26920   0.27765
 Alpha virt. eigenvalues --    0.28752   0.30698   0.30935   0.31401   0.31844

 Mulliken charges:
               1
     1  C   -0.299051
     2  C   -0.299490
     3  C   -0.481704
     4  H    0.151949
     5  H    0.149072
     6  H    0.156572
     7  H    0.150435
     8  H    0.153092
     9  H    0.162593
    10  H    0.154618
    11  C   -0.298731
    12  C   -0.300066
    13  C   -0.476000
    14  H    0.151324
    15  H    0.149381
    16  H    0.153037
    17  H    0.151807
    18  H    0.155172
    19  H    0.156185
    20  H    0.161398
    21  C   -0.171878
    22  C   -0.218365
    23  C   -0.171271
    24  C    0.158734
    25  C   -0.173292
    26  C   -0.224589
    27  H    0.225484
    28  H    0.223116
    29  H    0.275413
    30  H    0.275350
    31  H    0.232706
    32  N    0.488118
    33  O   -0.460468
    34  O   -0.460651
 Sum of Mulliken charges =  -0.00000

 Dipole moment (field-independent basis, Debye):
    X=              3.3629    Y=              4.0087    Z=              0.9519  Tot=              5.3183
 Quadrupole moment (field-independent basis, Debye-Ang):
   XX=           -117.3797   YY=            -92.0735   ZZ=            -95.7440
   XY=            -19.2539   XZ=             -2.3275   YZ=             -1.2178

 Normal termination of Gaussian 16 at Thu May  6 13:45:27 2021.
