 Gaussian 16, Revision A.03,
 Gaussian 16:  EM64L-G16RevA.03 25-Dec-2016

 -------------
 #p 6-31g* mp2
 -------------

 ------------------------------------------------------
 Input file generated by CHIRIPA (05-May-2021 14:55:20)
 ------------------------------------------------------
 Symbolic Z-matrix:
 Charge =  0 Multiplicity = 1

                         Standard orientation:
 ---------------------------------------------------------------------
 Center     Atomic      Atomic             Coordinates (Angstroms)
 Number     Number       Type             X           Y           Z
 ---------------------------------------------------------------------
      1          6           0       -1.843664    1.052661   -0.635507
      2          6           0       -2.950291    1.825165   -0.267896
      3          6           0       -4.171470    1.216470    0.036669
      4          6           0       -4.250931   -0.173335   -0.036934
      5          6           0       -3.166343   -0.970302   -0.399980
      6          6           0       -1.955026   -0.340151   -0.700261
      7          1           0       -0.898853    1.533843   -0.870436
      8          1           0       -2.866718    2.907036   -0.216767
      9          1           0       -5.044040    1.790426    0.324095
     10          1           0       -3.280343   -2.046708   -0.442094
     11          1           0       -1.097268   -0.942613   -0.985455
     12          7           0       -5.538519   -0.829090    0.283228
     13          8           0       -5.582613   -2.055248    0.210908
     14          8           0       -6.479255   -0.104496    0.600429
     15          6           0        5.625769   -0.504595   -0.056693
     16          6           0        7.099972   -0.237752    0.249093
     17          6           0        8.000049   -1.423589   -0.099402
     18          1           0        5.297131   -1.392445    0.500680
     19          1           0        5.517742   -0.747203   -1.122933
     20          1           0        7.204999    0.005635    1.314151
     21          1           0        7.425088    0.649679   -0.308923
     22          1           0        7.924849   -1.664288   -1.164769
     23          1           0        7.703511   -2.311991    0.467526
     24          1           0        9.049538   -1.211227    0.127175
     25          6           0        4.713357    0.671657    0.286326
     26          6           0        3.239154    0.404814   -0.019460
     27          6           0        2.339077    1.590650    0.329035
     28          1           0        4.821384    0.914265    1.352566
     29          1           0        5.041996    1.559508   -0.271046
     30          1           0        2.914038   -0.482616    0.538556
     31          1           0        3.134126    0.161427   -1.084518
     32          1           0        2.635617    2.479053   -0.237893
     33          1           0        2.414277    1.831351    1.394403
     34          1           0        1.289589    1.378290    0.102459
 ---------------------------------------------------------------------

 SCF Done:  E(RHF) =  -669.535510346     A.U. after   15 cycles
 E2 =    -0.2090792605D+01 EUMP2 =    -0.67162630295171D+03

 The electronic state is 1-A.
 Alpha  occ. eigenvalues --  -20.60749 -20.60744 -15.85803 -11.31171 -11.27736
 Alpha  occ. eigenvalues --  -11.27733 -11.27459 -11.26755 -11.26743 -11.22512
 Alpha  occ. eigenvalues --  -11.22181 -11.22087 -11.22066 -11.21937 -11.21460
 Alpha  occ. eigenvalues --   -1.59825  -1.39378  -1.19341  -1.09101  -1.08736
 Alpha  occ. eigenvalues --   -1.04744  -1.04233  -0.96691  -0.95571  -0.87711
 Alpha  occ. eigenvalues --   -0.86140  -0.82404  -0.80305  -0.78878  -0.77449
 Alpha  occ. eigenvalues --   -0.72020  -0.71148  -0.70473  -0.65723  -0.64993
 Alpha  occ. eigenvalues --   -0.64750  -0.62091  -0.61616  -0.60128  -0.58303
 Alpha  occ. eigenvalues --   -0.55956  -0.55292  -0.53381  -0.53130  -0.53015
 Alpha  occ. eigenvalues --   -0.52834  -0.50612  -0.48782  -0.48775  -0.48614
 Alpha  occ. eigenvalues --   -0.47321  -0.46429  -0.46327  -0.44783  -0.44481
 Alpha  occ. eigenvalues --   -0.37314  -0.36348
 Alpha virt. eigenvalues --    0.05061   0.11293   0.16482   0.20020   0.22435
 Alpha virt. eigenvalues --    0.23856   0.26019   0.26169   0.26774   0.27445
 Alpha virt. eigenvalues --    0.28527   0.30426   0.30748   0.31436   0.32276

 Mulliken charges:
               1
     1  C   -0.174212
     2  C   -0.219163
     3  C   -0.170966
     4  C    0.158589
     5  C   -0.171007
     6  C   -0.220039
     7  H    0.231276
     8  H    0.223872
     9  H    0.275544
    10  H    0.275565
    11  H    0.223726
    12  N    0.488051
    13  O   -0.460477
    14  O   -0.460424
    15  C   -0.298831
    16  C   -0.300158
    17  C   -0.476073
    18  H    0.150535
    19  H    0.149687
    20  H    0.152887
    21  H    0.152462
    22  H    0.155499
    23  H    0.155868
    24  H    0.161697
    25  C   -0.298950
    26  C   -0.300117
    27  C   -0.479751
    28  H    0.151604
    29  H    0.150725
    30  H    0.153351
    31  H    0.150450
    32  H    0.156953
    33  H    0.161051
    34  H    0.150775
 Sum of Mulliken charges =  -0.00000

 Dipole moment (field-independent basis, Debye):
    X=              4.7364    Y=              2.3121    Z=             -1.0872  Tot=              5.3815
 Quadrupole moment (field-independent basis, Debye-Ang):
   XX=           -132.7460   YY=            -92.0819   ZZ=            -94.4971
   XY=            -12.1631   XZ=              4.3881   YZ=              0.5660

 Normal termination of Gaussian 16 at Thu May  6 17:26:05 2021.
