 Gaussian 16, Revision A.03,
 Gaussian 16:  EM64L-G16RevA.03 25-Dec-2016

 -------------
 #p 6-31g* mp2
 -------------

 ------------------------------------------------------
 Input file generated by CHIRIPA (05-May-2021 14:53:14)
 ------------------------------------------------------
 Symbolic Z-matrix:
 Charge =  0 Multiplicity = 1

                         Standard orientation:
 ---------------------------------------------------------------------
 Center     Atomic      Atomic             Coordinates (Angstroms)
 Number     Number       Type             X           Y           Z
 ---------------------------------------------------------------------
      1          6           0       -3.817803    0.438419   -0.312765
      2          6           0       -5.239263    0.998580   -0.252298
      3          6           0       -5.463109    2.150057   -1.233006
      4          1           0       -3.103106    1.245697   -0.101921
      5          1           0       -3.609411    0.095744   -1.335771
      6          1           0       -5.445398    1.338828    0.770617
      7          1           0       -5.950669    0.189833   -0.463122
      8          1           0       -5.284453    1.820298   -2.261570
      9          1           0       -4.776311    2.975821   -1.020821
     10          1           0       -6.485743    2.535396   -1.173063
     11          6           0       -3.578554   -0.713333    0.661891
     12          6           0       -2.157094   -1.273494    0.601424
     13          6           0       -1.933248   -2.424970    1.582133
     14          1           0       -3.786946   -0.370657    1.684897
     15          1           0       -4.293251   -1.520610    0.451047
     16          1           0       -1.445688   -0.464746    0.812248
     17          1           0       -1.950959   -1.613741   -0.421491
     18          1           0       -2.620046   -3.250735    1.369947
     19          1           0       -2.111904   -2.095211    2.610696
     20          1           0       -0.910614   -2.810309    1.522189
     21          6           0        3.873844    2.211116    0.848880
     22          6           0        2.568281    1.829744    1.175351
     23          6           0        2.012476    0.666105    0.635379
     24          6           0        2.794010   -0.095992   -0.231629
     25          6           0        4.097705    0.257526   -0.576149
     26          6           0        4.633051    1.425174   -0.024289
     27          1           0        4.297660    3.116615    1.272961
     28          1           0        1.976349    2.438178    1.853193
     29          1           0        1.004339    0.347521    0.871137
     30          1           0        4.663293   -0.369412   -1.254733
     31          1           0        5.647239    1.718906   -0.279610
     32          7           0        2.216434   -1.330008   -0.809566
     33          8           0        2.925634   -1.984175   -1.570971
     34          8           0        1.065466   -1.619694   -0.490205
 ---------------------------------------------------------------------

 SCF Done:  E(RHF) =  -669.535576534     A.U. after   15 cycles
 E2 =    -0.2092159970D+01 EUMP2 =    -0.67162773650383D+03

 The electronic state is 1-A.
 Alpha  occ. eigenvalues --  -20.60882 -20.60873 -15.85917 -11.31249 -11.27817
 Alpha  occ. eigenvalues --  -11.27807 -11.27558 -11.26827 -11.26817 -11.21332
 Alpha  occ. eigenvalues --  -11.21013 -11.20880 -11.20821 -11.20727 -11.20134
 Alpha  occ. eigenvalues --   -1.59949  -1.39503  -1.19421  -1.08825  -1.07936
 Alpha  occ. eigenvalues --   -1.04820  -1.02971  -0.95679  -0.95426  -0.86466
 Alpha  occ. eigenvalues --   -0.86220  -0.82503  -0.79069  -0.77819  -0.77433
 Alpha  occ. eigenvalues --   -0.72143  -0.71263  -0.70535  -0.65078  -0.64844
 Alpha  occ. eigenvalues --   -0.64574  -0.62180  -0.60384  -0.58804  -0.56981
 Alpha  occ. eigenvalues --   -0.55327  -0.54764  -0.53151  -0.52917  -0.52103
 Alpha  occ. eigenvalues --   -0.51860  -0.49428  -0.48915  -0.48893  -0.47358
 Alpha  occ. eigenvalues --   -0.46118  -0.45299  -0.45182  -0.44839  -0.43224
 Alpha  occ. eigenvalues --   -0.37402  -0.36421
 Alpha virt. eigenvalues --    0.04963   0.11231   0.16447   0.20586   0.23183
 Alpha virt. eigenvalues --    0.24191   0.25966   0.27477   0.27612   0.28488
 Alpha virt. eigenvalues --    0.29149   0.30447   0.31502   0.32100   0.32669

 Mulliken charges:
               1
     1  C   -0.296656
     2  C   -0.299034
     3  C   -0.475224
     4  H    0.143703
     5  H    0.152167
     6  H    0.149991
     7  H    0.152522
     8  H    0.155935
     9  H    0.152845
    10  H    0.159199
    11  C   -0.299066
    12  C   -0.294085
    13  C   -0.480510
    14  H    0.144413
    15  H    0.149502
    16  H    0.140702
    17  H    0.166867
    18  H    0.153038
    19  H    0.145621
    20  H    0.175245
    21  C   -0.170170
    22  C   -0.221733
    23  C   -0.174257
    24  C    0.154617
    25  C   -0.169825
    26  C   -0.219044
    27  H    0.225857
    28  H    0.224025
    29  H    0.286397
    30  H    0.275750
    31  H    0.223647
    32  N    0.493175
    33  O   -0.459603
    34  O   -0.466013
 Sum of Mulliken charges =  -0.00000

 Dipole moment (field-independent basis, Debye):
    X=              2.2278    Y=              4.2031    Z=              1.9018  Tot=              5.1231
 Quadrupole moment (field-independent basis, Debye-Ang):
   XX=            -80.5356   YY=            -96.2223   ZZ=            -95.3037
   XY=             12.1082   XZ=              3.2279   YZ=              0.5938

 Normal termination of Gaussian 16 at Thu May  6 07:24:55 2021.
