 Gaussian 16, Revision A.03,
 Gaussian 16:  EM64L-G16RevA.03 25-Dec-2016

 -------------
 #p 6-31g* mp2
 -------------

 ------------------------------------------------------
 Input file generated by CHIRIPA (05-May-2021 14:51:12)
 ------------------------------------------------------
 Symbolic Z-matrix:
 Charge =  0 Multiplicity = 1

                         Standard orientation:
 ---------------------------------------------------------------------
 Center     Atomic      Atomic             Coordinates (Angstroms)
 Number     Number       Type             X           Y           Z
 ---------------------------------------------------------------------
      1          6           0       -2.491377    0.254650    0.925155
      2          6           0       -1.911066    1.654251    1.130928
      3          6           0       -2.075670    2.157437    2.565328
      4          1           0       -3.557027    0.263596    1.192090
      5          1           0       -2.001431   -0.443360    1.618069
      6          1           0       -2.400982    2.349149    0.436870
      7          1           0       -0.846719    1.642018    0.863289
      8          1           0       -1.571547    1.487102    3.268970
      9          1           0       -3.134641    2.198250    2.840128
     10          1           0       -1.653929    3.159650    2.690087
     11          6           0       -2.334457   -0.262162   -0.503834
     12          6           0       -2.914767   -1.661763   -0.709607
     13          6           0       -2.750164   -2.164949   -2.144007
     14          1           0       -2.824402    0.435848   -1.196748
     15          1           0       -1.268807   -0.271108   -0.770769
     16          1           0       -3.979115   -1.649530   -0.441968
     17          1           0       -2.424852   -2.356661   -0.015549
     18          1           0       -1.691192   -2.205762   -2.418807
     19          1           0       -3.254286   -1.494614   -2.847648
     20          1           0       -3.171904   -3.167162   -2.268766
     21          6           0        2.826478   -0.310771    0.349225
     22          6           0        2.283030   -1.660309    0.819751
     23          6           0        3.121076   -2.276941    1.940125
     24          1           0        3.862208   -0.439213    0.006136
     25          1           0        2.863448    0.379668    1.203229
     26          1           0        2.245797   -2.347573   -0.035174
     27          1           0        1.248409   -1.528676    1.161582
     28          1           0        3.148552   -1.613403    2.810507
     29          1           0        4.151606   -2.436953    1.606951
     30          1           0        2.714770   -3.241122    2.261262
     31          6           0        1.999355    0.318283   -0.770546
     32          6           0        2.542804    1.667821   -1.241073
     33          6           0        1.704757    2.284453   -2.361447
     34          1           0        1.962386   -0.372156   -1.624549
     35          1           0        0.963625    0.446726   -0.427457
     36          1           0        3.577425    1.536188   -1.582902
     37          1           0        2.580038    2.355085   -0.386146
     38          1           0        0.674228    2.444465   -2.028272
     39          1           0        1.677282    1.620915   -3.231828
     40          1           0        2.111064    3.248635   -2.682583
 ---------------------------------------------------------------------

 SCF Done:  E(RHF) =  -470.733058518     A.U. after   11 cycles
 E2 =    -0.1584290106D+01 EUMP2 =    -0.47231734862472D+03

 The electronic state is 1-A.
 Alpha  occ. eigenvalues --  -11.21682 -11.21674 -11.21633 -11.21584 -11.21458
 Alpha  occ. eigenvalues --  -11.21427 -11.21394 -11.21328 -11.21130 -11.21128
 Alpha  occ. eigenvalues --  -11.21068 -11.21046  -1.08516  -1.08430  -1.03576
 Alpha  occ. eigenvalues --   -1.03549  -0.96027  -0.95991  -0.87039  -0.87012
 Alpha  occ. eigenvalues --   -0.79645  -0.79616  -0.78466  -0.78125  -0.65368
 Alpha  occ. eigenvalues --   -0.64864  -0.61005  -0.60918  -0.59393  -0.59361
 Alpha  occ. eigenvalues --   -0.57664  -0.57583  -0.55354  -0.55247  -0.52716
 Alpha  occ. eigenvalues --   -0.52695  -0.52468  -0.52402  -0.49979  -0.49938
 Alpha  occ. eigenvalues --   -0.47982  -0.47932  -0.46797  -0.46630  -0.46428
 Alpha  occ. eigenvalues --   -0.45791  -0.45758  -0.44988  -0.43832  -0.43797
 Alpha virt. eigenvalues --    0.19567   0.22918   0.23860   0.24298   0.25324
 Alpha virt. eigenvalues --    0.26655   0.27013   0.27679   0.28061   0.30634
 Alpha virt. eigenvalues --    0.31187   0.31546   0.31749   0.31813   0.32240

 Mulliken charges:
               1
     1  C   -0.298292
     2  C   -0.305533
     3  C   -0.475417
     4  H    0.150109
     5  H    0.149176
     6  H    0.152377
     7  H    0.155604
     8  H    0.155068
     9  H    0.155688
    10  H    0.160331
    11  C   -0.306816
    12  C   -0.299025
    13  C   -0.475816
    14  H    0.149284
    15  H    0.158085
    16  H    0.151712
    17  H    0.151943
    18  H    0.155656
    19  H    0.155132
    20  H    0.160072
    21  C   -0.297410
    22  C   -0.300551
    23  C   -0.475717
    24  H    0.150134
    25  H    0.149430
    26  H    0.152055
    27  H    0.151337
    28  H    0.155345
    29  H    0.155574
    30  H    0.160411
    31  C   -0.311717
    32  C   -0.298692
    33  C   -0.477014
    34  H    0.149212
    35  H    0.162156
    36  H    0.152145
    37  H    0.151734
    38  H    0.156704
    39  H    0.155199
    40  H    0.160327
 Sum of Mulliken charges =  -0.00000

 Dipole moment (field-independent basis, Debye):
    X=              0.0122    Y=              0.0054    Z=             -0.0065  Tot=              0.0148
 Quadrupole moment (field-independent basis, Debye-Ang):
   XX=            -83.8573   YY=            -84.9618   ZZ=            -85.8758
   XY=             -0.3881   XZ=             -0.5488   YZ=              0.1952

 Normal termination of Gaussian 16 at Wed May  5 15:18:06 2021.
