 Gaussian 16, Revision A.03,
 Gaussian 16:  EM64L-G16RevA.03 25-Dec-2016

 -------------
 #p 6-31g* mp2
 -------------

 ------------------------------------------------------
 Input file generated by CHIRIPA (05-May-2021 14:55:21)
 ------------------------------------------------------
 Symbolic Z-matrix:
 Charge =  0 Multiplicity = 1

                         Standard orientation:
 ---------------------------------------------------------------------
 Center     Atomic      Atomic             Coordinates (Angstroms)
 Number     Number       Type             X           Y           Z
 ---------------------------------------------------------------------
      1          6           0        2.062674    1.254572    2.220051
      2          6           0        0.985830    0.715476    1.508501
      3          6           0        1.204519   -0.026361    0.343855
      4          6           0        2.518898   -0.210411   -0.082551
      5          6           0        3.612668    0.313941    0.604481
      6          6           0        3.370351    1.052440    1.766570
      7          1           0        1.883614    1.829552    3.123783
      8          1           0       -0.030793    0.870851    1.858330
      9          1           0        0.389289   -0.454972   -0.226331
     10          1           0        4.614872    0.142157    0.230991
     11          1           0        4.208574    1.469928    2.317143
     12          7           0        2.762921   -0.993994   -1.314156
     13          8           0        3.930361   -1.141875   -1.668913
     14          8           0        1.782126   -1.445448   -1.901410
     15          6           0       -2.881874    0.525601   -0.720826
     16          6           0       -3.096461    2.027555   -0.530901
     17          6           0       -2.509076    2.857672   -1.672689
     18          1           0       -1.805462    0.323453   -0.806956
     19          1           0       -3.335365    0.214907   -1.672251
     20          1           0       -2.643905    2.335066    0.420544
     21          1           0       -4.172477    2.226129   -0.445021
     22          1           0       -2.967868    2.579318   -2.626958
     23          1           0       -1.430611    2.688874   -1.756476
     24          1           0       -2.673770    3.928359   -1.516597
     25          6           0       -3.463547   -0.317558    0.412518
     26          6           0       -3.248961   -1.819512    0.222593
     27          6           0       -3.836345   -2.649629    1.364381
     28          1           0       -3.010057   -0.006864    1.363944
     29          1           0       -4.539960   -0.115409    0.498648
     30          1           0       -2.172945   -2.018085    0.136714
     31          1           0       -3.701517   -2.127023   -0.728850
     32          1           0       -4.914811   -2.480831    1.448168
     33          1           0       -3.377555   -2.371274    2.318651
     34          1           0       -3.671652   -3.720316    1.208290
 ---------------------------------------------------------------------

 SCF Done:  E(RHF) =  -669.535388847     A.U. after   15 cycles
 E2 =    -0.2092267910D+01 EUMP2 =    -0.67162765675766D+03

 The electronic state is 1-A.
 Alpha  occ. eigenvalues --  -20.60781 -20.60776 -15.85833 -11.31209 -11.27781
 Alpha  occ. eigenvalues --  -11.27770 -11.27527 -11.26806 -11.26796 -11.22130
 Alpha  occ. eigenvalues --  -11.22024 -11.21975 -11.21924 -11.21399 -11.21389
 Alpha  occ. eigenvalues --   -1.59855  -1.39409  -1.19386  -1.08960  -1.08778
 Alpha  occ. eigenvalues --   -1.04793  -1.03956  -0.96405  -0.95612  -0.87412
 Alpha  occ. eigenvalues --   -0.86190  -0.82444  -0.80019  -0.78777  -0.77489
 Alpha  occ. eigenvalues --   -0.72052  -0.71179  -0.70507  -0.65656  -0.65028
 Alpha  occ. eigenvalues --   -0.64798  -0.62127  -0.61358  -0.59762  -0.58006
 Alpha  occ. eigenvalues --   -0.55714  -0.55278  -0.53119  -0.53073  -0.52909
 Alpha  occ. eigenvalues --   -0.52788  -0.50348  -0.48812  -0.48807  -0.48323
 Alpha  occ. eigenvalues --   -0.47074  -0.46278  -0.46245  -0.44811  -0.44245
 Alpha  occ. eigenvalues --   -0.37366  -0.36391
 Alpha virt. eigenvalues --    0.05022   0.11231   0.16485   0.18079   0.23097
 Alpha virt. eigenvalues --    0.23694   0.24361   0.25173   0.27367   0.28484
 Alpha virt. eigenvalues --    0.30469   0.31117   0.31398   0.31496   0.32027

 Mulliken charges:
               1
     1  C   -0.170829
     2  C   -0.222803
     3  C   -0.181693
     4  C    0.160532
     5  C   -0.170321
     6  C   -0.218564
     7  H    0.225878
     8  H    0.225717
     9  H    0.285370
    10  H    0.275752
    11  H    0.223650
    12  N    0.487382
    13  O   -0.460293
    14  O   -0.460102
    15  C   -0.303839
    16  C   -0.299006
    17  C   -0.476302
    18  H    0.146677
    19  H    0.156949
    20  H    0.144853
    21  H    0.154509
    22  H    0.158803
    23  H    0.157174
    24  H    0.160712
    25  C   -0.299421
    26  C   -0.301371
    27  C   -0.475777
    28  H    0.141153
    29  H    0.153309
    30  H    0.151711
    31  H    0.157310
    32  H    0.156168
    33  H    0.152654
    34  H    0.164059
 Sum of Mulliken charges =  -0.00000

 Dipole moment (field-independent basis, Debye):
    X=             -0.9779    Y=              2.7231    Z=              4.2244  Tot=              5.1203
 Quadrupole moment (field-independent basis, Debye-Ang):
   XX=            -92.8410   YY=            -96.9100   ZZ=            -96.3040
   XY=              8.0016   XZ=             12.8782   YZ=             -0.4770

 Normal termination of Gaussian 16 at Wed May  5 20:35:18 2021.
