 Gaussian 16, Revision A.03,
 Gaussian 16:  EM64L-G16RevA.03 25-Dec-2016

 -------------
 #p 6-31g* mp2
 -------------

 ------------------------------------------------------
 Input file generated by CHIRIPA (05-May-2021 14:57:26)
 ------------------------------------------------------
 Symbolic Z-matrix:
 Charge =  0 Multiplicity = 1

                         Standard orientation:
 ---------------------------------------------------------------------
 Center     Atomic      Atomic             Coordinates (Angstroms)
 Number     Number       Type             X           Y           Z
 ---------------------------------------------------------------------
      1          6           0       -5.620527   -1.764527   -0.072750
      2          6           0       -5.092898   -1.212685   -1.244757
      3          6           0       -4.147642   -0.184503   -1.182465
      4          6           0       -3.750693    0.269779    0.074256
      5          6           0       -4.257914   -0.259641    1.259892
      6          6           0       -5.202088   -1.287085    1.173636
      7          1           0       -6.354405   -2.562957   -0.130448
      8          1           0       -5.416018   -1.581493   -2.214097
      9          1           0       -3.722874    0.260710   -2.073967
     10          1           0       -3.916368    0.128866    2.211642
     11          1           0       -5.610144   -1.713767    2.085491
     12          7           0       -2.750565    1.357879    0.152887
     13          8           0       -2.417269    1.740489    1.272333
     14          8           0       -2.318899    1.807517   -0.906418
     15          6           0        1.755655    1.173987   -0.380809
     16          6           0        2.949227    1.870594   -0.164833
     17          6           0        4.151869    1.180369    0.013465
     18          6           0        4.124334   -0.212687   -0.030408
     19          6           0        2.951411   -0.935209   -0.243720
     20          6           0        1.760547   -0.224227   -0.419495
     21          1           0        0.825989    1.718232   -0.518336
     22          1           0        2.948424    2.956463   -0.134297
     23          1           0        5.090241    1.694534    0.182317
     24          1           0        2.983795   -2.017675   -0.268966
     25          1           0        0.835108   -0.767854   -0.587051
     26          7           0        5.391283   -0.954385    0.157013
     27          8           0        5.340359   -2.181655    0.113976
     28          8           0        6.411251   -0.294414    0.343402
 ---------------------------------------------------------------------

 SCF Done:  E(RHF) =  -868.340512362     A.U. after   16 cycles
 E2 =    -0.2598342582D+01 EUMP2 =    -0.87093885494304D+03

 The electronic state is 1-A.
 Alpha  occ. eigenvalues --  -20.62005 -20.61983 -20.60171 -20.60164 -15.86999
 Alpha  occ. eigenvalues --  -15.85221 -11.32064 -11.30386 -11.28598 -11.28574
 Alpha  occ. eigenvalues --  -11.28259 -11.27525 -11.27508 -11.26992 -11.26955
 Alpha  occ. eigenvalues --  -11.26419 -11.25883 -11.25820  -1.61061  -1.59252
 Alpha  occ. eigenvalues --   -1.40615  -1.38811  -1.20204  -1.18534  -1.09654
 Alpha  occ. eigenvalues --   -1.07914  -1.05552  -1.03930  -0.96536  -0.94786
 Alpha  occ. eigenvalues --   -0.86963  -0.85310  -0.83372  -0.81649  -0.78460
 Alpha  occ. eigenvalues --   -0.76769  -0.73214  -0.72375  -0.71441  -0.71293
 Alpha  occ. eigenvalues --   -0.70575  -0.69493  -0.65850  -0.65541  -0.64166
 Alpha  occ. eigenvalues --   -0.63922  -0.62897  -0.61303  -0.56054  -0.54241
 Alpha  occ. eigenvalues --   -0.53899  -0.53631  -0.52249  -0.52011  -0.49994
 Alpha  occ. eigenvalues --   -0.49957  -0.48208  -0.48179  -0.46077  -0.44263
 Alpha  occ. eigenvalues --   -0.38164  -0.37144  -0.36422  -0.35562
 Alpha virt. eigenvalues --    0.04008   0.05793   0.10515   0.12115   0.15571
 Alpha virt. eigenvalues --    0.17358   0.20720   0.22422   0.26661   0.27573
 Alpha virt. eigenvalues --    0.28050   0.29449   0.30405   0.31789   0.32258

 Mulliken charges:
               1
     1  C   -0.169557
     2  C   -0.218561
     3  C   -0.171973
     4  C    0.156220
     5  C   -0.170566
     6  C   -0.218542
     7  H    0.228907
     8  H    0.226147
     9  H    0.275584
    10  H    0.277240
    11  H    0.226618
    12  N    0.487181
    13  O   -0.457242
    14  O   -0.467411
    15  C   -0.175743
    16  C   -0.220354
    17  C   -0.171461
    18  C    0.156760
    19  C   -0.172018
    20  C   -0.220291
    21  H    0.249357
    22  H    0.224287
    23  H    0.273039
    24  H    0.271405
    25  H    0.218637
    26  N    0.488377
    27  O   -0.463653
    28  O   -0.462386
 Sum of Mulliken charges =  -0.00000

 Dipole moment (field-independent basis, Debye):
    X=             -8.5475    Y=             -1.1507    Z=             -0.8875  Tot=              8.6702
 Quadrupole moment (field-independent basis, Debye-Ang):
   XX=           -115.1367   YY=           -104.9811   ZZ=           -100.4769
   XY=             28.7798   XZ=             -1.9455   YZ=              0.0765

 Normal termination of Gaussian 16 at Wed May  5 21:12:15 2021.
