 Gaussian 16, Revision A.03,
 Gaussian 16:  EM64L-G16RevA.03 25-Dec-2016

 -------------
 #p 6-31g* mp2
 -------------

 ------------------------------------------------------
 Input file generated by CHIRIPA (05-May-2021 14:55:21)
 ------------------------------------------------------
 Symbolic Z-matrix:
 Charge =  0 Multiplicity = 1

                         Standard orientation:
 ---------------------------------------------------------------------
 Center     Atomic      Atomic             Coordinates (Angstroms)
 Number     Number       Type             X           Y           Z
 ---------------------------------------------------------------------
      1          6           0        0.907089    2.778307   -0.680562
      2          6           0        0.937513    2.449483    0.678654
      3          6           0        1.565776    1.278092    1.111872
      4          6           0        2.156184    0.454745    0.154370
      5          6           0        2.142584    0.754972   -1.206868
      6          6           0        1.508662    1.931495   -1.617334
      7          1           0        0.416841    3.690265   -1.008259
      8          1           0        0.471152    3.105246    1.408399
      9          1           0        1.604075    0.999359    2.157940
     10          1           0        2.616202    0.081439   -1.910756
     11          1           0        1.486580    2.184331   -2.673568
     12          7           0        2.824294   -0.788070    0.600955
     13          8           0        3.337077   -1.496693   -0.262494
     14          8           0        2.822525   -1.030034    1.805981
     15          6           0       -2.340865   -1.529965   -0.292839
     16          6           0       -0.814165   -1.564897   -0.370006
     17          6           0       -0.272856   -2.943416   -0.750088
     18          1           0       -2.681736   -2.274125    0.439949
     19          1           0       -2.757143   -1.833544   -1.263379
     20          1           0       -0.400883   -1.260009    0.599973
     21          1           0       -0.476879   -0.820434   -1.102554
     22          1           0       -0.657396   -3.252203   -1.727523
     23          1           0       -0.580968   -3.694276   -0.015323
     24          1           0        0.820493   -2.945749   -0.799495
     25          6           0       -2.897078   -0.158550    0.086074
     26          6           0       -4.423777   -0.123619    0.163241
     27          6           0       -4.965086    1.254900    0.543323
     28          1           0       -2.480801    0.145029    1.056615
     29          1           0       -2.556207    0.585610   -0.646713
     30          1           0       -4.761064   -0.868082    0.895790
     31          1           0       -4.837060   -0.428507   -0.806737
     32          1           0       -4.656975    2.005760   -0.191441
     33          1           0       -4.580547    1.563687    1.520759
     34          1           0       -6.058436    1.257233    0.592729
 ---------------------------------------------------------------------

 SCF Done:  E(RHF) =  -669.535376426     A.U. after   15 cycles
 E2 =    -0.2094912423D+01 EUMP2 =    -0.67163028884827D+03

 The electronic state is 1-A.
 Alpha  occ. eigenvalues --  -20.60931 -20.60921 -15.85935 -11.31202 -11.27791
 Alpha  occ. eigenvalues --  -11.27787 -11.27557 -11.26836 -11.26820 -11.21734
 Alpha  occ. eigenvalues --  -11.21461 -11.21332 -11.21315 -11.21245 -11.20477
 Alpha  occ. eigenvalues --   -1.59977  -1.39537  -1.19413  -1.08824  -1.08393
 Alpha  occ. eigenvalues --   -1.04816  -1.03449  -0.95888  -0.95666  -0.86893
 Alpha  occ. eigenvalues --   -0.86215  -0.82507  -0.79542  -0.78225  -0.77560
 Alpha  occ. eigenvalues --   -0.72170  -0.71296  -0.70531  -0.65080  -0.65029
 Alpha  occ. eigenvalues --   -0.64822  -0.62166  -0.60853  -0.59273  -0.57499
 Alpha  occ. eigenvalues --   -0.55323  -0.55184  -0.53217  -0.52909  -0.52515
 Alpha  occ. eigenvalues --   -0.52301  -0.49839  -0.48938  -0.48923  -0.47824
 Alpha  occ. eigenvalues --   -0.46599  -0.45734  -0.45664  -0.44909  -0.43649
 Alpha  occ. eigenvalues --   -0.37319  -0.36373
 Alpha virt. eigenvalues --    0.04922   0.11162   0.16411   0.21301   0.22866
 Alpha virt. eigenvalues --    0.24300   0.26522   0.27204   0.27330   0.27927
 Alpha virt. eigenvalues --    0.28384   0.30704   0.31434   0.31676   0.32080

 Mulliken charges:
               1
     1  C   -0.170656
     2  C   -0.216564
     3  C   -0.172110
     4  C    0.165802
     5  C   -0.172759
     6  C   -0.218635
     7  H    0.225955
     8  H    0.223896
     9  H    0.275217
    10  H    0.275673
    11  H    0.223656
    12  N    0.489241
    13  O   -0.459937
    14  O   -0.459097
    15  C   -0.297235
    16  C   -0.306951
    17  C   -0.484106
    18  H    0.150944
    19  H    0.148339
    20  H    0.151015
    21  H    0.150912
    22  H    0.150928
    23  H    0.156518
    24  H    0.175916
    25  C   -0.296598
    26  C   -0.299564
    27  C   -0.475082
    28  H    0.147051
    29  H    0.146151
    30  H    0.153455
    31  H    0.152071
    32  H    0.151925
    33  H    0.153517
    34  H    0.161111
 Sum of Mulliken charges =  -0.00000

 Dipole moment (field-independent basis, Debye):
    X=             -2.1967    Y=              4.3711    Z=             -1.5409  Tot=              5.1290
 Quadrupole moment (field-independent basis, Debye-Ang):
   XX=           -105.8879   YY=            -91.8478   ZZ=            -89.9305
   XY=              8.5854   XZ=             -4.9364   YZ=              0.4977

 Normal termination of Gaussian 16 at Thu May  6 14:11:14 2021.
