 Gaussian 16, Revision A.03,
 Gaussian 16:  EM64L-G16RevA.03 25-Dec-2016

 -------------
 #p 6-31g* mp2
 -------------

 ------------------------------------------------------
 Input file generated by CHIRIPA (05-May-2021 14:53:18)
 ------------------------------------------------------
 Symbolic Z-matrix:
 Charge =  0 Multiplicity = 1

                         Standard orientation:
 ---------------------------------------------------------------------
 Center     Atomic      Atomic             Coordinates (Angstroms)
 Number     Number       Type             X           Y           Z
 ---------------------------------------------------------------------
      1          6           0       -3.112006    1.023765    0.669049
      2          6           0       -1.933216    1.930384    0.313410
      3          6           0       -1.506260    2.827996    1.475217
      4          1           0       -3.961225    1.644527    0.985951
      5          1           0       -2.839706    0.401986    1.533131
      6          1           0       -2.207166    2.549287   -0.550608
      7          1           0       -1.086766    1.307400   -0.002865
      8          1           0       -1.206737    2.224654    2.338273
      9          1           0       -2.333503    3.473597    1.787418
     10          1           0       -0.662215    3.467707    1.199140
     11          6           0       -3.550422    0.120442   -0.482266
     12          6           0       -4.729212   -0.786177   -0.126627
     13          6           0       -5.156168   -1.683788   -1.288434
     14          1           0       -3.822722    0.742222   -1.346348
     15          1           0       -2.701203   -0.500320   -0.799168
     16          1           0       -5.575662   -0.163193    0.189648
     17          1           0       -4.455262   -1.405079    0.737391
     18          1           0       -4.328925   -2.329389   -1.600635
     19          1           0       -5.455691   -1.080446   -2.151490
     20          1           0       -6.000213   -2.323499   -1.012357
     21          6           0        1.095709   -2.209140    0.922114
     22          6           0        0.553327   -1.186510    0.136893
     23          6           0        1.378707   -0.204821   -0.419509
     24          6           0        2.748183   -0.276595   -0.169162
     25          6           0        3.318595   -1.282863    0.608876
     26          6           0        2.474181   -2.253974    1.155188
     27          1           0        0.447141   -2.967632    1.350420
     28          1           0       -0.516850   -1.149185   -0.045792
     29          1           0        0.985305    0.597986   -1.031188
     30          1           0        4.389230   -1.293655    0.773320
     31          1           0        2.898179   -3.046997    1.764603
     32          7           0        3.632051    0.757076   -0.752859
     33          8           0        4.835327    0.671543   -0.517388
     34          8           0        3.104813    1.633230   -1.434778
 ---------------------------------------------------------------------

 SCF Done:  E(RHF) =  -669.534319273     A.U. after   15 cycles
 E2 =    -0.2093473622D+01 EUMP2 =    -0.67162779289467D+03

 The electronic state is 1-A.
 Alpha  occ. eigenvalues --  -20.60762 -20.60757 -15.85815 -11.31187 -11.27765
 Alpha  occ. eigenvalues --  -11.27739 -11.27506 -11.26782 -11.26742 -11.22370
 Alpha  occ. eigenvalues --  -11.22293 -11.22241 -11.22113 -11.21728 -11.21432
 Alpha  occ. eigenvalues --   -1.59837  -1.39390  -1.19368  -1.09208  -1.08757
 Alpha  occ. eigenvalues --   -1.04786  -1.04174  -0.96618  -0.95593  -0.87625
 Alpha  occ. eigenvalues --   -0.86171  -0.82446  -0.80266  -0.79054  -0.77463
 Alpha  occ. eigenvalues --   -0.72035  -0.71160  -0.70485  -0.65992  -0.65019
 Alpha  occ. eigenvalues --   -0.64718  -0.62210  -0.61482  -0.59971  -0.58229
 Alpha  occ. eigenvalues --   -0.55933  -0.55272  -0.53264  -0.53110  -0.53039
 Alpha  occ. eigenvalues --   -0.52833  -0.50562  -0.48797  -0.48793  -0.48550
 Alpha  occ. eigenvalues --   -0.47316  -0.46540  -0.46472  -0.44793  -0.44461
 Alpha  occ. eigenvalues --   -0.37348  -0.36342
 Alpha virt. eigenvalues --    0.05029   0.11254   0.16412   0.19215   0.22811
 Alpha virt. eigenvalues --    0.23803   0.24986   0.26213   0.26757   0.28233
 Alpha virt. eigenvalues --    0.29241   0.30981   0.31344   0.31467   0.32300

 Mulliken charges:
               1
     1  C   -0.299935
     2  C   -0.304729
     3  C   -0.476380
     4  H    0.154735
     5  H    0.147297
     6  H    0.156437
     7  H    0.145631
     8  H    0.155437
     9  H    0.156837
    10  H    0.167189
    11  C   -0.303268
    12  C   -0.299666
    13  C   -0.475933
    14  H    0.155535
    15  H    0.140586
    16  H    0.155954
    17  H    0.149620
    18  H    0.153027
    19  H    0.158091
    20  H    0.162587
    21  C   -0.173487
    22  C   -0.224889
    23  C   -0.174791
    24  C    0.158056
    25  C   -0.171154
    26  C   -0.218466
    27  H    0.226062
    28  H    0.234986
    29  H    0.277985
    30  H    0.275653
    31  H    0.223470
    32  N    0.488430
    33  O   -0.460507
    34  O   -0.460400
 Sum of Mulliken charges =  -0.00000

 Dipole moment (field-independent basis, Debye):
    X=             -3.2484    Y=             -3.5189    Z=              2.0842  Tot=              5.2228
 Quadrupole moment (field-independent basis, Debye-Ang):
   XX=           -107.8941   YY=            -91.9058   ZZ=            -95.6542
   XY=            -12.2459   XZ=              8.1310   YZ=             -1.7764

 Normal termination of Gaussian 16 at Thu May  6 02:49:44 2021.
