 Gaussian 16, Revision A.03,
 Gaussian 16:  EM64L-G16RevA.03 25-Dec-2016

 -------------
 #p 6-31g* mp2
 -------------

 ------------------------------------------------------
 Input file generated by CHIRIPA (05-May-2021 14:55:22)
 ------------------------------------------------------
 Symbolic Z-matrix:
 Charge =  0 Multiplicity = 1

                         Standard orientation:
 ---------------------------------------------------------------------
 Center     Atomic      Atomic             Coordinates (Angstroms)
 Number     Number       Type             X           Y           Z
 ---------------------------------------------------------------------
      1          6           0        1.865304    1.871658    0.828680
      2          6           0        1.451868    0.573024    1.143548
      3          6           0        2.231215   -0.528520    0.777808
      4          6           0        3.423673   -0.293855    0.094971
      5          6           0        3.862572    0.987958   -0.233076
      6          6           0        3.067218    2.074622    0.142582
      7          1           0        1.253671    2.721585    1.116648
      8          1           0        0.518912    0.412399    1.676312
      9          1           0        1.934955   -1.544510    1.008918
     10          1           0        4.797499    1.116456   -0.764882
     11          1           0        3.390793    3.082044   -0.103274
     12          7           0        4.257207   -1.452134   -0.297472
     13          8           0        5.303618   -1.218696   -0.898444
     14          8           0        3.848336   -2.571498    0.003335
     15          6           0       -4.580677   -0.437368    0.141277
     16          6           0       -6.028331   -0.584542   -0.328430
     17          6           0       -6.763845   -1.727354    0.372139
     18          1           0       -4.046965   -1.381329   -0.034886
     19          1           0       -4.570077   -0.270264    1.227259
     20          1           0       -6.036269   -0.749940   -1.413416
     21          1           0       -6.558608    0.359941   -0.151305
     22          1           0       -6.785580   -1.565175    1.454649
     23          1           0       -6.260273   -2.681362    0.185367
     24          1           0       -7.796896   -1.814644    0.021361
     25          6           0       -3.832243    0.700936   -0.549981
     26          6           0       -2.384589    0.848111   -0.080276
     27          6           0       -1.649076    1.990922   -0.780845
     28          1           0       -3.842844    0.533831   -1.635964
     29          1           0       -4.365956    1.644897   -0.373819
     30          1           0       -1.854311   -0.096373   -0.257400
     31          1           0       -2.376651    1.013507    1.004712
     32          1           0       -2.152648    2.944930   -0.594072
     33          1           0       -1.627341    1.828742   -1.863354
     34          1           0       -0.616025    2.078211   -0.430066
 ---------------------------------------------------------------------

 SCF Done:  E(RHF) =  -669.534790620     A.U. after   15 cycles
 E2 =    -0.2092628718D+01 EUMP2 =    -0.67162741933781D+03

 The electronic state is 1-A.
 Alpha  occ. eigenvalues --  -20.60786 -20.60781 -15.85839 -11.31220 -11.27786
 Alpha  occ. eigenvalues --  -11.27775 -11.27516 -11.26806 -11.26781 -11.22394
 Alpha  occ. eigenvalues --  -11.21979 -11.21961 -11.21843 -11.21744 -11.21375
 Alpha  occ. eigenvalues --   -1.59861  -1.39414  -1.19398  -1.08985  -1.08793
 Alpha  occ. eigenvalues --   -1.04797  -1.04079  -0.96521  -0.95623  -0.87536
 Alpha  occ. eigenvalues --   -0.86193  -0.82453  -0.80167  -0.78781  -0.77488
 Alpha  occ. eigenvalues --   -0.72058  -0.71184  -0.70531  -0.65603  -0.65053
 Alpha  occ. eigenvalues --   -0.64806  -0.62149  -0.61470  -0.59925  -0.58146
 Alpha  occ. eigenvalues --   -0.55783  -0.55328  -0.53501  -0.53063  -0.52879
 Alpha  occ. eigenvalues --   -0.52672  -0.50444  -0.48820  -0.48811  -0.48467
 Alpha  occ. eigenvalues --   -0.47198  -0.46319  -0.46230  -0.44816  -0.44339
 Alpha  occ. eigenvalues --   -0.37313  -0.36385
 Alpha virt. eigenvalues --    0.04995   0.11176   0.16398   0.20380   0.22567
 Alpha virt. eigenvalues --    0.24078   0.25805   0.26206   0.27028   0.27918
 Alpha virt. eigenvalues --    0.28859   0.30058   0.30920   0.31776   0.32236

 Mulliken charges:
               1
     1  C   -0.173174
     2  C   -0.217078
     3  C   -0.172164
     4  C    0.158865
     5  C   -0.171017
     6  C   -0.219573
     7  H    0.227384
     8  H    0.228259
     9  H    0.275835
    10  H    0.275800
    11  H    0.223941
    12  N    0.488047
    13  O   -0.460297
    14  O   -0.460326
    15  C   -0.298916
    16  C   -0.300088
    17  C   -0.476081
    18  H    0.150724
    19  H    0.148408
    20  H    0.153286
    21  H    0.152192
    22  H    0.155047
    23  H    0.156228
    24  H    0.161603
    25  C   -0.298420
    26  C   -0.301020
    27  C   -0.482849
    28  H    0.152546
    29  H    0.150460
    30  H    0.153387
    31  H    0.144665
    32  H    0.153969
    33  H    0.160275
    34  H    0.160080
 Sum of Mulliken charges =  -0.00000

 Dipole moment (field-independent basis, Debye):
    X=             -2.9885    Y=              4.0455    Z=              1.3285  Tot=              5.2022
 Quadrupole moment (field-independent basis, Debye-Ang):
   XX=           -112.8880   YY=            -95.8962   ZZ=            -93.9323
   XY=             16.8221   XZ=              3.1307   YZ=             -0.7037

 Normal termination of Gaussian 16 at Thu May  6 03:02:28 2021.
