 Gaussian 16, Revision A.03,
 Gaussian 16:  EM64L-G16RevA.03 25-Dec-2016

 -------------
 #p 6-31g* mp2
 -------------

 ------------------------------------------------------
 Input file generated by CHIRIPA (05-May-2021 14:51:07)
 ------------------------------------------------------
 Symbolic Z-matrix:
 Charge =  0 Multiplicity = 1

                         Standard orientation:
 ---------------------------------------------------------------------
 Center     Atomic      Atomic             Coordinates (Angstroms)
 Number     Number       Type             X           Y           Z
 ---------------------------------------------------------------------
      1          6           0       -4.216427   -0.557237    0.031491
      2          6           0       -3.560560   -1.889691   -0.332364
      3          6           0       -4.428332   -3.094691    0.031969
      4          1           0       -4.431425   -0.543747    1.108774
      5          1           0       -5.185138   -0.481168   -0.481548
      6          1           0       -2.592747   -1.962616    0.180118
      7          1           0       -3.346924   -1.899934   -1.408872
      8          1           0       -5.389459   -3.049267   -0.490308
      9          1           0       -4.630997   -3.112305    1.107710
     10          1           0       -3.940361   -4.036768   -0.236798
     11          6           0       -3.361055    0.656779   -0.326601
     12          6           0       -4.016922    1.989233    0.037254
     13          6           0       -3.149149    3.194233   -0.327079
     14          1           0       -2.392344    0.580710    0.186438
     15          1           0       -3.146057    0.643289   -1.403884
     16          1           0       -4.230558    1.999476    1.113762
     17          1           0       -4.984734    2.062159   -0.475228
     18          1           0       -2.946485    3.211848   -1.402820
     19          1           0       -2.188023    3.148809    0.195198
     20          1           0       -3.637120    4.136310   -0.058312
     21          6           0        3.194091    0.333786    0.435144
     22          6           0        1.871151   -0.424416    0.321390
     23          6           0        0.690890    0.355818    0.901057
     24          1           0        3.388057    0.563478    1.491820
     25          1           0        3.101431    1.298574   -0.082538
     26          1           0        1.966721   -1.388082    0.837948
     27          1           0        1.680405   -0.652498   -0.735120
     28          1           0        0.567076    1.310634    0.379908
     29          1           0        0.855019    0.570871    1.961912
     30          1           0       -0.244729   -0.204590    0.809297
     31          6           0        4.383391   -0.433329   -0.140034
     32          6           0        5.706332    0.324874   -0.026280
     33          6           0        6.886592   -0.455360   -0.605947
     34          1           0        4.476050   -1.398116    0.377648
     35          1           0        4.189424   -0.663020   -1.196710
     36          1           0        5.897077    0.552956    1.030229
     37          1           0        5.610760    1.288539   -0.542838
     38          1           0        6.722463   -0.670413   -1.666803
     39          1           0        7.010405   -1.410176   -0.084798
     40          1           0        7.822211    0.105048   -0.514187
 ---------------------------------------------------------------------

 SCF Done:  E(RHF) =  -470.733173586     A.U. after   11 cycles
 E2 =    -0.1582868848D+01 EUMP2 =    -0.47231604243352D+03

 The electronic state is 1-A.
 Alpha  occ. eigenvalues --  -11.21632 -11.21611 -11.21607 -11.21546 -11.21421
 Alpha  occ. eigenvalues --  -11.21362 -11.21353 -11.21261 -11.21118 -11.21078
 Alpha  occ. eigenvalues --  -11.21068 -11.21026  -1.08451  -1.08389  -1.03555
 Alpha  occ. eigenvalues --   -1.03497  -0.96017  -0.95938  -0.87039  -0.86954
 Alpha  occ. eigenvalues --   -0.79638  -0.79550  -0.78269  -0.78191  -0.65087
 Alpha  occ. eigenvalues --   -0.65030  -0.60963  -0.60883  -0.59397  -0.59312
 Alpha  occ. eigenvalues --   -0.57670  -0.57509  -0.55295  -0.55234  -0.52787
 Alpha  occ. eigenvalues --   -0.52628  -0.52448  -0.52322  -0.49954  -0.49882
 Alpha  occ. eigenvalues --   -0.47949  -0.47874  -0.46681  -0.46572  -0.45805
 Alpha  occ. eigenvalues --   -0.45762  -0.45716  -0.45647  -0.43769  -0.43695
 Alpha virt. eigenvalues --    0.21276   0.23033   0.23736   0.24057   0.25819
 Alpha virt. eigenvalues --    0.26526   0.26978   0.27191   0.27837   0.29169
 Alpha virt. eigenvalues --    0.30176   0.31496   0.31761   0.31904   0.32266

 Mulliken charges:
               1
     1  C   -0.297813
     2  C   -0.301548
     3  C   -0.475645
     4  H    0.149377
     5  H    0.149401
     6  H    0.152509
     7  H    0.152064
     8  H    0.155371
     9  H    0.155216
    10  H    0.160212
    11  C   -0.307127
    12  C   -0.298869
    13  C   -0.476645
    14  H    0.159715
    15  H    0.148820
    16  H    0.151756
    17  H    0.151532
    18  H    0.154755
    19  H    0.156334
    20  H    0.160002
    21  C   -0.298769
    22  C   -0.299151
    23  C   -0.482758
    24  H    0.149609
    25  H    0.149761
    26  H    0.151863
    27  H    0.152700
    28  H    0.156389
    29  H    0.155080
    30  H    0.165591
    31  C   -0.298294
    32  C   -0.299656
    33  C   -0.475714
    34  H    0.149531
    35  H    0.149767
    36  H    0.151934
    37  H    0.152008
    38  H    0.155218
    39  H    0.155183
    40  H    0.160294
 Sum of Mulliken charges =  -0.00000

 Dipole moment (field-independent basis, Debye):
    X=              0.0317    Y=             -0.0037    Z=              0.0040  Tot=              0.0321
 Quadrupole moment (field-independent basis, Debye-Ang):
   XX=            -85.8508   YY=            -85.7871   ZZ=            -83.2587
   XY=             -0.1342   XZ=              0.9914   YZ=             -0.3890

 Normal termination of Gaussian 16 at Thu May  6 00:29:19 2021.
