 Gaussian 16, Revision A.03,
 Gaussian 16:  EM64L-G16RevA.03 25-Dec-2016

 -------------
 #p 6-31g* mp2
 -------------

 ------------------------------------------------------
 Input file generated by CHIRIPA (05-May-2021 14:55:23)
 ------------------------------------------------------
 Symbolic Z-matrix:
 Charge =  0 Multiplicity = 1

                         Standard orientation:
 ---------------------------------------------------------------------
 Center     Atomic      Atomic             Coordinates (Angstroms)
 Number     Number       Type             X           Y           Z
 ---------------------------------------------------------------------
      1          6           0        3.464177    1.409760    1.253580
      2          6           0        2.151850    1.101131    1.626495
      3          6           0        1.472427    0.040100    1.020571
      4          6           0        2.138586   -0.694681    0.040969
      5          6           0        3.445743   -0.411846   -0.352267
      6          6           0        4.105804    0.653620    0.267128
      7          1           0        3.984449    2.235717    1.729509
      8          1           0        1.651067    1.686641    2.392289
      9          1           0        0.456161   -0.220590    1.290130
     10          1           0        3.918742   -1.013620   -1.118791
     11          1           0        5.124943    0.891024   -0.024490
     12          7           0        1.429560   -1.820295   -0.607626
     13          8           0        2.038572   -2.452349   -1.468003
     14          8           0        0.278238   -2.049182   -0.243338
     15          6           0       -3.042111   -0.082391   -0.046351
     16          6           0       -4.363000   -0.289732    0.695435
     17          6           0       -4.659458   -1.763586    0.974112
     18          1           0       -3.069890   -0.637807   -0.993813
     19          1           0       -2.224778   -0.516065    0.546345
     20          1           0       -5.177423    0.145429    0.102168
     21          1           0       -4.332147    0.266399    1.641153
     22          1           0       -3.867125   -2.206934    1.585874
     23          1           0       -4.717203   -2.328591    0.038144
     24          1           0       -5.608270   -1.888823    1.505085
     25          6           0       -2.731820    1.385856   -0.332184
     26          6           0       -1.410932    1.593198   -1.073971
     27          6           0       -1.114473    3.067052   -1.352648
     28          1           0       -3.549153    1.819531   -0.924881
     29          1           0       -2.704042    1.941274    0.615278
     30          1           0       -1.441784    1.037067   -2.019688
     31          1           0       -0.596509    1.158037   -0.480703
     32          1           0       -1.056729    3.632057   -0.416680
     33          1           0       -1.906807    3.510399   -1.964409
     34          1           0       -0.165662    3.192289   -1.883619
 ---------------------------------------------------------------------

 SCF Done:  E(RHF) =  -669.534774084     A.U. after   15 cycles
 E2 =    -0.2093873643D+01 EUMP2 =    -0.67162864772690D+03

 The electronic state is 1-A.
 Alpha  occ. eigenvalues --  -20.60865 -20.60845 -15.85896 -11.31269 -11.27845
 Alpha  occ. eigenvalues --  -11.27837 -11.27580 -11.26860 -11.26844 -11.21355
 Alpha  occ. eigenvalues --  -11.21170 -11.21130 -11.21033 -11.20794 -11.20533
 Alpha  occ. eigenvalues --   -1.59921  -1.39476  -1.19454  -1.08836  -1.08081
 Alpha  occ. eigenvalues --   -1.04864  -1.03212  -0.95679  -0.95652  -0.86674
 Alpha  occ. eigenvalues --   -0.86256  -0.82507  -0.79291  -0.77926  -0.77473
 Alpha  occ. eigenvalues --   -0.72117  -0.71237  -0.70569  -0.65104  -0.64971
 Alpha  occ. eigenvalues --   -0.64647  -0.62210  -0.60632  -0.59036  -0.57253
 Alpha  occ. eigenvalues --   -0.55353  -0.54963  -0.53199  -0.52956  -0.52366
 Alpha  occ. eigenvalues --   -0.52055  -0.49607  -0.48888  -0.48873  -0.47593
 Alpha  occ. eigenvalues --   -0.46349  -0.45474  -0.45324  -0.44718  -0.43445
 Alpha  occ. eigenvalues --   -0.37409  -0.36400
 Alpha virt. eigenvalues --    0.04951   0.11107   0.16447   0.20501   0.23092
 Alpha virt. eigenvalues --    0.24578   0.25515   0.27371   0.27658   0.28170
 Alpha virt. eigenvalues --    0.29379   0.31253   0.31680   0.31953   0.32286

 Mulliken charges:
               1
     1  C   -0.170200
     2  C   -0.219979
     3  C   -0.173533
     4  C    0.159945
     5  C   -0.170553
     6  C   -0.218463
     7  H    0.226111
     8  H    0.224200
     9  H    0.279872
    10  H    0.275903
    11  H    0.223839
    12  N    0.489738
    13  O   -0.459863
    14  O   -0.462234
    15  C   -0.302480
    16  C   -0.299767
    17  C   -0.474875
    18  H    0.157280
    19  H    0.158071
    20  H    0.150208
    21  H    0.146587
    22  H    0.157550
    23  H    0.158571
    24  H    0.156965
    25  C   -0.299007
    26  C   -0.303809
    27  C   -0.474218
    28  H    0.149317
    29  H    0.142224
    30  H    0.157406
    31  H    0.150620
    32  H    0.149508
    33  H    0.155982
    34  H    0.159085
 Sum of Mulliken charges =  -0.00000

 Dipole moment (field-independent basis, Debye):
    X=              2.6116    Y=              3.7796    Z=              2.2014  Tot=              5.0943
 Quadrupole moment (field-independent basis, Debye-Ang):
   XX=            -81.0684   YY=           -102.1567   ZZ=            -92.7864
   XY=              6.1459   XZ=              3.3497   YZ=             -0.3419

 Normal termination of Gaussian 16 at Thu May  6 06:16:25 2021.
