 Gaussian 16, Revision A.03,
 Gaussian 16:  EM64L-G16RevA.03 25-Dec-2016

 -------------
 #p 6-31g* mp2
 -------------

 ------------------------------------------------------
 Input file generated by CHIRIPA (05-May-2021 14:55:22)
 ------------------------------------------------------
 Symbolic Z-matrix:
 Charge =  0 Multiplicity = 1

                         Standard orientation:
 ---------------------------------------------------------------------
 Center     Atomic      Atomic             Coordinates (Angstroms)
 Number     Number       Type             X           Y           Z
 ---------------------------------------------------------------------
      1          6           0        1.097892    2.962871   -0.270885
      2          6           0        1.647112    2.274312   -1.357515
      3          6           0        2.185241    0.995047   -1.188857
      4          6           0        2.157473    0.431824    0.086015
      5          6           0        1.617337    1.092505    1.188306
      6          6           0        1.084780    2.370814    0.996323
      7          1           0        0.682024    3.956264   -0.410963
      8          1           0        1.658655    2.731646   -2.342785
      9          1           0        2.616665    0.439622   -2.012747
     10          1           0        1.620163    0.610631    2.158464
     11          1           0        0.658902    2.903213    1.842032
     12          7           0        2.724217   -0.921970    0.276913
     13          8           0        2.687653   -1.396236    1.410214
     14          8           0        3.194263   -1.483175   -0.710378
     15          6           0       -2.366443   -1.483010   -0.372955
     16          6           0       -0.983679   -1.860669    0.159325
     17          6           0       -0.445795   -3.152653   -0.456509
     18          1           0       -3.066624   -2.305567   -0.172722
     19          1           0       -2.314437   -1.375714   -1.465281
     20          1           0       -1.037965   -1.965867    1.250472
     21          1           0       -0.286753   -1.037038   -0.042027
     22          1           0       -0.362988   -3.055781   -1.543873
     23          1           0       -1.118469   -3.989887   -0.244029
     24          1           0        0.543686   -3.403885   -0.061957
     25          6           0       -2.917568   -0.193651    0.233299
     26          6           0       -4.300332    0.184007   -0.298981
     27          6           0       -4.838216    1.475991    0.316854
     28          1           0       -2.969573   -0.300948    1.325625
     29          1           0       -2.217387    0.628905    0.033065
     30          1           0       -4.997258   -0.639624   -0.097629
     31          1           0       -4.246045    0.289204   -1.390128
     32          1           0       -4.165541    2.313225    0.104373
     33          1           0       -4.921023    1.379120    1.404217
     34          1           0       -5.827696    1.727222   -0.077699
 ---------------------------------------------------------------------

 SCF Done:  E(RHF) =  -669.535408249     A.U. after   15 cycles
 E2 =    -0.2094144369D+01 EUMP2 =    -0.67162955261806D+03

 The electronic state is 1-A.
 Alpha  occ. eigenvalues --  -20.60882 -20.60876 -15.85907 -11.31244 -11.27835
 Alpha  occ. eigenvalues --  -11.27817 -11.27591 -11.26858 -11.26848 -11.21695
 Alpha  occ. eigenvalues --  -11.21379 -11.21297 -11.21211 -11.21151 -11.20323
 Alpha  occ. eigenvalues --   -1.59942  -1.39494  -1.19453  -1.08850  -1.08314
 Alpha  occ. eigenvalues --   -1.04843  -1.03355  -0.95789  -0.95678  -0.86800
 Alpha  occ. eigenvalues --   -0.86241  -0.82508  -0.79451  -0.78131  -0.77553
 Alpha  occ. eigenvalues --   -0.72131  -0.71288  -0.70548  -0.65097  -0.64960
 Alpha  occ. eigenvalues --   -0.64840  -0.62185  -0.60773  -0.59175  -0.57370
 Alpha  occ. eigenvalues --   -0.55347  -0.55095  -0.53246  -0.52931  -0.52426
 Alpha  occ. eigenvalues --   -0.52207  -0.49753  -0.48896  -0.48891  -0.47747
 Alpha  occ. eigenvalues --   -0.46515  -0.45657  -0.45565  -0.44872  -0.43582
 Alpha  occ. eigenvalues --   -0.37359  -0.36435
 Alpha virt. eigenvalues --    0.04949   0.11185   0.16426   0.21336   0.22899
 Alpha virt. eigenvalues --    0.24426   0.26614   0.27115   0.27540   0.28066
 Alpha virt. eigenvalues --    0.28342   0.30845   0.31457   0.31749   0.32377

 Mulliken charges:
               1
     1  C   -0.171608
     2  C   -0.218018
     3  C   -0.172678
     4  C    0.155494
     5  C   -0.169987
     6  C   -0.216909
     7  H    0.226135
     8  H    0.223812
     9  H    0.275992
    10  H    0.276100
    11  H    0.224401
    12  N    0.493285
    13  O   -0.460452
    14  O   -0.460111
    15  C   -0.296744
    16  C   -0.304703
    17  C   -0.481530
    18  H    0.149996
    19  H    0.147886
    20  H    0.153212
    21  H    0.149248
    22  H    0.153015
    23  H    0.152419
    24  H    0.178488
    25  C   -0.298989
    26  C   -0.299201
    27  C   -0.474935
    28  H    0.148023
    29  H    0.147644
    30  H    0.153221
    31  H    0.151244
    32  H    0.150818
    33  H    0.154916
    34  H    0.160516
 Sum of Mulliken charges =  -0.00000

 Dipole moment (field-independent basis, Debye):
    X=             -1.8331    Y=              4.7120    Z=             -0.6379  Tot=              5.0960
 Quadrupole moment (field-independent basis, Debye-Ang):
   XX=           -104.2600   YY=            -91.5173   ZZ=            -89.7319
   XY=             10.0873   XZ=             -3.1044   YZ=             -0.4711

 Normal termination of Gaussian 16 at Thu May  6 14:15:29 2021.
