 Gaussian 16, Revision A.03,
 Gaussian 16:  EM64L-G16RevA.03 25-Dec-2016

 -------------
 #p 6-31g* mp2
 -------------

 ------------------------------------------------------
 Input file generated by CHIRIPA (05-May-2021 14:53:13)
 ------------------------------------------------------
 Symbolic Z-matrix:
 Charge =  0 Multiplicity = 1

                         Standard orientation:
 ---------------------------------------------------------------------
 Center     Atomic      Atomic             Coordinates (Angstroms)
 Number     Number       Type             X           Y           Z
 ---------------------------------------------------------------------
      1          6           0        4.071602   -0.549155   -0.368438
      2          6           0        5.374669   -1.220469    0.066693
      3          6           0        5.676447   -2.493767   -0.724152
      4          1           0        3.242885   -1.260707   -0.250682
      5          1           0        4.129663   -0.311461   -1.439664
      6          1           0        5.314708   -1.455574    1.137088
      7          1           0        6.200353   -0.507173   -0.051932
      8          1           0        5.763116   -2.272100   -1.792774
      9          1           0        4.872439   -3.225890   -0.596998
     10          1           0        6.612303   -2.957340   -0.396839
     11          6           0        3.756229    0.725055    0.413008
     12          6           0        2.453162    1.396369   -0.022123
     13          6           0        2.151384    2.669667    0.768722
     14          1           0        3.698168    0.487361    1.484234
     15          1           0        4.584946    1.436607    0.295252
     16          1           0        1.627479    0.683073    0.096501
     17          1           0        2.513123    1.631474   -1.092518
     18          1           0        2.955392    3.401790    0.641568
     19          1           0        2.064716    2.448000    1.837344
     20          1           0        1.215528    3.133241    0.441409
     21          6           0       -4.486545   -2.116819    0.342745
     22          6           0       -4.790342   -1.224238   -0.690467
     23          6           0       -4.005604   -0.086198   -0.899272
     24          6           0       -2.919615    0.129293   -0.052228
     25          6           0       -2.591325   -0.741338    0.985806
     26          6           0       -3.389940   -1.872950    1.176115
     27          1           0       -5.101538   -2.998379    0.497766
     28          1           0       -5.641371   -1.411088   -1.339222
     29          1           0       -4.218196    0.621282   -1.691544
     30          1           0       -1.736559   -0.528295    1.616206
     31          1           0       -3.151638   -2.564414    1.979319
     32          7           0       -2.081504    1.330682   -0.263490
     33          8           0       -1.130166    1.497917    0.496526
     34          8           0       -2.391800    2.082347   -1.185093
 ---------------------------------------------------------------------

 SCF Done:  E(RHF) =  -669.536010867     A.U. after   15 cycles
 E2 =    -0.2091681876D+01 EUMP2 =    -0.67162769274245D+03

 The electronic state is 1-A.
 Alpha  occ. eigenvalues --  -20.61024 -20.61008 -15.86031 -11.31334 -11.27896
 Alpha  occ. eigenvalues --  -11.27890 -11.27627 -11.26897 -11.26887 -11.21123
 Alpha  occ. eigenvalues --  -11.20733 -11.20725 -11.20435 -11.20180 -11.19340
 Alpha  occ. eigenvalues --   -1.60071  -1.39629  -1.19500  -1.08910  -1.07591
 Alpha  occ. eigenvalues --   -1.04893  -1.02559  -0.95761  -0.95010  -0.86296
 Alpha  occ. eigenvalues --   -0.86047  -0.82590  -0.78705  -0.77652  -0.77320
 Alpha  occ. eigenvalues --   -0.72271  -0.71377  -0.70610  -0.65160  -0.64897
 Alpha  occ. eigenvalues --   -0.64238  -0.62242  -0.59968  -0.58462  -0.56565
 Alpha  occ. eigenvalues --   -0.55396  -0.54342  -0.53225  -0.52986  -0.51676
 Alpha  occ. eigenvalues --   -0.51462  -0.49065  -0.49019  -0.48923  -0.46973
 Alpha  occ. eigenvalues --   -0.45812  -0.45197  -0.44853  -0.44574  -0.42800
 Alpha  occ. eigenvalues --   -0.37476  -0.36493
 Alpha virt. eigenvalues --    0.04859   0.11161   0.16339   0.21249   0.23582
 Alpha virt. eigenvalues --    0.25306   0.27090   0.27422   0.27984   0.28493
 Alpha virt. eigenvalues --    0.29032   0.30786   0.31960   0.32380   0.32860

 Mulliken charges:
               1
     1  C   -0.296655
     2  C   -0.298689
     3  C   -0.474974
     4  H    0.145719
     5  H    0.148901
     6  H    0.150021
     7  H    0.151697
     8  H    0.154881
     9  H    0.152894
    10  H    0.158420
    11  C   -0.297744
    12  C   -0.298739
    13  C   -0.475742
    14  H    0.145500
    15  H    0.147010
    16  H    0.157502
    17  H    0.148368
    18  H    0.143978
    19  H    0.147721
    20  H    0.183467
    21  C   -0.170504
    22  C   -0.218558
    23  C   -0.170484
    24  C    0.157771
    25  C   -0.170929
    26  C   -0.218484
    27  H    0.226170
    28  H    0.223983
    29  H    0.275973
    30  H    0.275605
    31  H    0.223959
    32  N    0.490819
    33  O   -0.460212
    34  O   -0.458647
 Sum of Mulliken charges =  -0.00000

 Dipole moment (field-independent basis, Debye):
    X=             -3.3651    Y=             -4.1528    Z=              0.7088  Tot=              5.3919
 Quadrupole moment (field-independent basis, Debye-Ang):
   XX=            -77.3773   YY=            -96.7650   ZZ=            -92.0992
   XY=             11.9755   XZ=              0.2754   YZ=             -1.9286

 Normal termination of Gaussian 16 at Thu May  6 18:43:10 2021.
