 Gaussian 16, Revision A.03,
 Gaussian 16:  EM64L-G16RevA.03 25-Dec-2016

 -------------
 #p 6-31g* mp2
 -------------

 ------------------------------------------------------
 Input file generated by CHIRIPA (05-May-2021 14:57:24)
 ------------------------------------------------------
 Symbolic Z-matrix:
 Charge =  0 Multiplicity = 1

                         Standard orientation:
 ---------------------------------------------------------------------
 Center     Atomic      Atomic             Coordinates (Angstroms)
 Number     Number       Type             X           Y           Z
 ---------------------------------------------------------------------
      1          6           0       -6.636628    0.483644    0.137251
      2          6           0       -6.138948   -0.510167    0.986473
      3          6           0       -4.801829   -0.910060    0.904347
      4          6           0       -3.986739   -0.292206   -0.042846
      5          6           0       -4.453019    0.700815   -0.902952
      6          6           0       -5.793561    1.084903   -0.803093
      7          1           0       -7.676664    0.788151    0.207936
      8          1           0       -6.791384   -0.978852    1.717709
      9          1           0       -4.390450   -1.676908    1.549428
     10          1           0       -3.778393    1.149697   -1.621842
     11          1           0       -6.177331    1.856974   -1.463905
     12          7           0       -2.569379   -0.707188   -0.139175
     13          8           0       -1.871753   -0.147386   -0.982132
     14          8           0       -2.182915   -1.584397    0.630103
     15          6           0        2.602000    2.143333    0.276666
     16          6           0        3.941258    2.304198    0.646843
     17          6           0        4.846776    1.247491    0.512845
     18          6           0        4.376792    0.038240    0.002830
     19          6           0        3.048595   -0.153081   -0.374769
     20          6           0        2.160721    0.917367   -0.232062
     21          1           0        1.905425    2.969545    0.384143
     22          1           0        4.286766    3.255169    1.042220
     23          1           0        5.889002    1.344633    0.791673
     24          1           0        2.733732   -1.112954   -0.765824
     25          1           0        1.121203    0.789566   -0.520358
     26          7           0        5.326084   -1.087723   -0.143638
     27          8           0        4.887074   -2.143031   -0.595559
     28          8           0        6.491175   -0.893624    0.196253
 ---------------------------------------------------------------------

 SCF Done:  E(RHF) =  -868.340188668     A.U. after   16 cycles
 E2 =    -0.2598307588D+01 EUMP2 =    -0.87093849625656D+03

 The electronic state is 1-A.
 Alpha  occ. eigenvalues --  -20.61718 -20.61682 -20.59933 -20.59916 -15.86715
 Alpha  occ. eigenvalues --  -15.84970 -11.31841 -11.30191 -11.28393 -11.28359
 Alpha  occ. eigenvalues --  -11.28070 -11.27342 -11.27319 -11.26790 -11.26609
 Alpha  occ. eigenvalues --  -11.26451 -11.25825 -11.25490  -1.60755  -1.59005
 Alpha  occ. eigenvalues --   -1.40315  -1.38562  -1.19988  -1.18334  -1.09427
 Alpha  occ. eigenvalues --   -1.07768  -1.05353  -1.03684  -0.96302  -0.94631
 Alpha  occ. eigenvalues --   -0.86762  -0.85098  -0.83142  -0.81442  -0.78218
 Alpha  occ. eigenvalues --   -0.76502  -0.72943  -0.72054  -0.71195  -0.71090
 Alpha  occ. eigenvalues --   -0.70325  -0.69470  -0.65643  -0.65351  -0.63977
 Alpha  occ. eigenvalues --   -0.63649  -0.62702  -0.61006  -0.55859  -0.54239
 Alpha  occ. eigenvalues --   -0.53696  -0.53440  -0.52065  -0.51746  -0.49711
 Alpha  occ. eigenvalues --   -0.49672  -0.47957  -0.47936  -0.45767  -0.43999
 Alpha  occ. eigenvalues --   -0.37952  -0.36945  -0.36345  -0.35284
 Alpha virt. eigenvalues --    0.04281   0.05981   0.10713   0.12355   0.15815
 Alpha virt. eigenvalues --    0.17513   0.20881   0.22568   0.26813   0.27714
 Alpha virt. eigenvalues --    0.28659   0.29282   0.30473   0.31869   0.32221

 Mulliken charges:
               1
     1  C   -0.169872
     2  C   -0.218553
     3  C   -0.170253
     4  C    0.157535
     5  C   -0.171053
     6  C   -0.218535
     7  H    0.227792
     8  H    0.225775
     9  H    0.277265
    10  H    0.274392
    11  H    0.224921
    12  N    0.489703
    13  O   -0.469980
    14  O   -0.455306
    15  C   -0.172880
    16  C   -0.218661
    17  C   -0.173359
    18  C    0.157984
    19  C   -0.172474
    20  C   -0.226935
    21  H    0.221897
    22  H    0.218780
    23  H    0.271940
    24  H    0.279547
    25  H    0.246662
    26  N    0.488017
    27  O   -0.460189
    28  O   -0.464160
 Sum of Mulliken charges =  -0.00000

 Dipole moment (field-independent basis, Debye):
    X=             -8.9303    Y=              5.2925    Z=              0.8568  Tot=             10.4161
 Quadrupole moment (field-independent basis, Debye-Ang):
   XX=            -92.6156   YY=           -102.6890   ZZ=           -102.6133
   XY=             15.4748   XZ=              1.5988   YZ=             -1.9370

 Normal termination of Gaussian 16 at Thu May  6 08:13:10 2021.
