 Gaussian 16, Revision A.03,
 Gaussian 16:  EM64L-G16RevA.03 25-Dec-2016

 -------------
 #p 6-31g* mp2
 -------------

 ------------------------------------------------------
 Input file generated by CHIRIPA (05-May-2021 14:51:14)
 ------------------------------------------------------
 Symbolic Z-matrix:
 Charge =  0 Multiplicity = 1

                         Standard orientation:
 ---------------------------------------------------------------------
 Center     Atomic      Atomic             Coordinates (Angstroms)
 Number     Number       Type             X           Y           Z
 ---------------------------------------------------------------------
      1          6           0        3.646129    0.330908   -0.508906
      2          6           0        3.394688    1.818663   -0.261225
      3          6           0        2.076859    2.304139   -0.865737
      4          1           0        3.645270    0.140563   -1.590901
      5          1           0        2.813084   -0.249534   -0.088765
      6          1           0        4.228638    2.396037   -0.680490
      7          1           0        3.396337    2.005522    0.820300
      8          1           0        1.231742    1.753738   -0.439783
      9          1           0        2.068772    2.146472   -1.949101
     10          1           0        1.917190    3.370297   -0.676864
     11          6           0        4.959716   -0.169321    0.089414
     12          6           0        5.211157   -1.657077   -0.158267
     13          6           0        6.528987   -2.142552    0.446245
     14          1           0        5.792761    0.411120   -0.330727
     15          1           0        4.960576    0.021024    1.171409
     16          1           0        5.209509   -1.843935   -1.239792
     17          1           0        4.377208   -2.234451    0.260998
     18          1           0        6.537074   -1.984886    1.529608
     19          1           0        7.374104   -1.592151    0.020291
     20          1           0        6.688656   -3.208710    0.257372
     21          6           0       -3.539296   -0.097261    0.215637
     22          6           0       -2.913631    1.065934    0.986031
     23          6           0       -1.385365    1.019139    0.988818
     24          1           0       -3.200854   -1.044929    0.656464
     25          1           0       -3.169239   -0.083988   -0.818905
     26          1           0       -3.285826    1.051289    2.018442
     27          1           0       -3.253752    2.010944    0.543439
     28          1           0       -0.996921    1.057067   -0.034057
     29          1           0       -1.029177    0.091959    1.449327
     30          1           0       -0.958985    1.859789    1.545027
     31          6           0       -5.066550   -0.064325    0.203855
     32          6           0       -5.692215   -1.227520   -0.566538
     33          6           0       -7.220481   -1.180725   -0.569325
     34          1           0       -5.436606   -0.077599    1.238397
     35          1           0       -5.404992    0.883342   -0.236972
     36          1           0       -5.352093   -2.172530   -0.123946
     37          1           0       -5.320018   -1.212875   -1.598949
     38          1           0       -7.576669   -0.253545   -1.029835
     39          1           0       -7.608925   -1.218653    0.453549
     40          1           0       -7.646860   -2.021375   -1.125535
 ---------------------------------------------------------------------

 SCF Done:  E(RHF) =  -470.733118513     A.U. after   11 cycles
 E2 =    -0.1582364539D+01 EUMP2 =    -0.47231548305234D+03

 The electronic state is 1-A.
 Alpha  occ. eigenvalues --  -11.21623 -11.21608 -11.21569 -11.21524 -11.21418
 Alpha  occ. eigenvalues --  -11.21358 -11.21353 -11.21291 -11.21106 -11.21076
 Alpha  occ. eigenvalues --  -11.21046 -11.20927  -1.08445  -1.08374  -1.03555
 Alpha  occ. eigenvalues --   -1.03464  -0.96024  -0.95899  -0.87067  -0.86897
 Alpha  occ. eigenvalues --   -0.79658  -0.79496  -0.78261  -0.78184  -0.65083
 Alpha  occ. eigenvalues --   -0.64999  -0.61015  -0.60816  -0.59367  -0.59287
 Alpha  occ. eigenvalues --   -0.57642  -0.57510  -0.55445  -0.55084  -0.52738
 Alpha  occ. eigenvalues --   -0.52603  -0.52503  -0.52253  -0.50109  -0.49687
 Alpha  occ. eigenvalues --   -0.48005  -0.47776  -0.46722  -0.46462  -0.45822
 Alpha  occ. eigenvalues --   -0.45742  -0.45700  -0.45595  -0.43795  -0.43726
 Alpha virt. eigenvalues --    0.22494   0.22931   0.23702   0.24651   0.26056
 Alpha virt. eigenvalues --    0.26648   0.27110   0.27571   0.27743   0.28965
 Alpha virt. eigenvalues --    0.30498   0.31544   0.31697   0.31793   0.32117

 Mulliken charges:
               1
     1  C   -0.298452
     2  C   -0.298829
     3  C   -0.484382
     4  H    0.149305
     5  H    0.149899
     6  H    0.151348
     7  H    0.151687
     8  H    0.165958
     9  H    0.153880
    10  H    0.159402
    11  C   -0.298248
    12  C   -0.299604
    13  C   -0.475670
    14  H    0.149394
    15  H    0.149579
    16  H    0.151841
    17  H    0.151874
    18  H    0.155119
    19  H    0.155129
    20  H    0.160115
    21  C   -0.298649
    22  C   -0.299695
    23  C   -0.479392
    24  H    0.149540
    25  H    0.149928
    26  H    0.151895
    27  H    0.152436
    28  H    0.158539
    29  H    0.154690
    30  H    0.161166
    31  C   -0.298327
    32  C   -0.299669
    33  C   -0.475719
    34  H    0.149526
    35  H    0.149767
    36  H    0.151917
    37  H    0.152017
    38  H    0.155224
    39  H    0.155173
    40  H    0.160287
 Sum of Mulliken charges =  -0.00000

 Dipole moment (field-independent basis, Debye):
    X=             -0.0466    Y=             -0.0048    Z=              0.0104  Tot=              0.0480
 Quadrupole moment (field-independent basis, Debye-Ang):
   XX=            -86.7701   YY=            -84.7583   ZZ=            -83.4498
   XY=              0.3973   XZ=             -0.8449   YZ=             -0.4733

 Normal termination of Gaussian 16 at Thu May  6 05:37:40 2021.
