 Gaussian 16, Revision A.03,
 Gaussian 16:  EM64L-G16RevA.03 25-Dec-2016

 -------------
 #p 6-31g* mp2
 -------------

 ------------------------------------------------------
 Input file generated by CHIRIPA (05-May-2021 14:57:26)
 ------------------------------------------------------
 Symbolic Z-matrix:
 Charge =  0 Multiplicity = 1

                         Standard orientation:
 ---------------------------------------------------------------------
 Center     Atomic      Atomic             Coordinates (Angstroms)
 Number     Number       Type             X           Y           Z
 ---------------------------------------------------------------------
      1          6           0       -3.871582    2.472838    0.611339
      2          6           0       -2.579609    2.086303    0.239967
      3          6           0       -2.305416    0.757552   -0.097357
      4          6           0       -3.351643   -0.162595   -0.052320
      5          6           0       -4.649289    0.191638    0.313634
      6          6           0       -4.900485    1.525941    0.646925
      7          1           0       -4.075650    3.507201    0.871814
      8          1           0       -1.778598    2.819524    0.211444
      9          1           0       -1.314410    0.431061   -0.388438
     10          1           0       -5.427208   -0.561951    0.332728
     11          1           0       -5.904812    1.823273    0.934963
     12          7           0       -3.073540   -1.572223   -0.407294
     13          8           0       -4.012632   -2.363728   -0.359732
     14          8           0       -1.921736   -1.858893   -0.726364
     15          6           0        2.703778   -2.432370    0.543937
     16          6           0        2.036500   -1.722631   -0.459823
     17          6           0        2.412350   -0.412990   -0.773071
     18          6           0        3.464542    0.158683   -0.059368
     19          6           0        4.148862   -0.522564    0.946066
     20          6           0        3.755974   -1.831130    1.242446
     21          1           0        2.405191   -3.449313    0.780724
     22          1           0        1.218993   -2.187031   -1.003936
     23          1           0        1.912967    0.159304   -1.545414
     24          1           0        4.960028   -0.032966    1.471158
     25          1           0        4.275995   -2.379928    2.022475
     26          7           0        3.871455    1.544573   -0.382061
     27          8           0        4.801617    2.025708    0.261324
     28          8           0        3.252528    2.123455   -1.272264
 ---------------------------------------------------------------------

 SCF Done:  E(RHF) =  -868.340309159     A.U. after   16 cycles
 E2 =    -0.2598651516D+01 EUMP2 =    -0.87093896067517D+03

 The electronic state is 1-A.
 Alpha  occ. eigenvalues --  -20.61396 -20.61344 -20.60761 -20.60743 -15.86418
 Alpha  occ. eigenvalues --  -15.85797 -11.31508 -11.30976 -11.28044 -11.28035
 Alpha  occ. eigenvalues --  -11.27705 -11.27496 -11.27459 -11.27082 -11.26996
 Alpha  occ. eigenvalues --  -11.26944 -11.26483 -11.26271  -1.60437  -1.59835
 Alpha  occ. eigenvalues --   -1.40003  -1.39394  -1.19646  -1.19089  -1.09087
 Alpha  occ. eigenvalues --   -1.08501  -1.05005  -1.04442  -0.95973  -0.95383
 Alpha  occ. eigenvalues --   -0.86415  -0.85833  -0.82820  -0.82208  -0.77903
 Alpha  occ. eigenvalues --   -0.77295  -0.72660  -0.72016  -0.71742  -0.71159
 Alpha  occ. eigenvalues --   -0.70752  -0.70167  -0.65304  -0.64994  -0.64719
 Alpha  occ. eigenvalues --   -0.64374  -0.62362  -0.61769  -0.55506  -0.54901
 Alpha  occ. eigenvalues --   -0.53351  -0.53093  -0.52796  -0.52480  -0.49414
 Alpha  occ. eigenvalues --   -0.49362  -0.48788  -0.48749  -0.45468  -0.44843
 Alpha  occ. eigenvalues --   -0.37605  -0.37036  -0.36596  -0.36048
 Alpha virt. eigenvalues --    0.04619   0.05164   0.11061   0.11602   0.16180
 Alpha virt. eigenvalues --    0.16699   0.20729   0.22051   0.26014   0.27514
 Alpha virt. eigenvalues --    0.28492   0.29164   0.30975   0.31503   0.32185

 Mulliken charges:
               1
     1  C   -0.170139
     2  C   -0.219018
     3  C   -0.170229
     4  C    0.157978
     5  C   -0.170971
     6  C   -0.218515
     7  H    0.228136
     8  H    0.229988
     9  H    0.271119
    10  H    0.275478
    11  H    0.224540
    12  N    0.492248
    13  O   -0.457368
    14  O   -0.473464
    15  C   -0.172131
    16  C   -0.220738
    17  C   -0.180132
    18  C    0.158630
    19  C   -0.173002
    20  C   -0.218234
    21  H    0.229484
    22  H    0.245600
    23  H    0.271695
    24  H    0.273765
    25  H    0.222682
    26  N    0.487892
    27  O   -0.460807
    28  O   -0.464489
 Sum of Mulliken charges =  -0.00000

 Dipole moment (field-independent basis, Debye):
    X=             -2.6515    Y=              0.0024    Z=              2.4351  Tot=              3.6000
 Quadrupole moment (field-independent basis, Debye-Ang):
   XX=           -101.4920   YY=           -108.2817   ZZ=           -103.8048
   XY=            -33.5726   XZ=              1.7007   YZ=             -0.2427

 Normal termination of Gaussian 16 at Fri May  7 00:28:58 2021.
