 Gaussian 16, Revision A.03,
 Gaussian 16:  EM64L-G16RevA.03 25-Dec-2016

 -------------
 #p 6-31g* mp2
 -------------

 ------------------------------------------------------
 Input file generated by CHIRIPA (05-May-2021 14:57:25)
 ------------------------------------------------------
 Symbolic Z-matrix:
 Charge =  0 Multiplicity = 1

                         Standard orientation:
 ---------------------------------------------------------------------
 Center     Atomic      Atomic             Coordinates (Angstroms)
 Number     Number       Type             X           Y           Z
 ---------------------------------------------------------------------
      1          6           0        2.074286    2.519145    0.433227
      2          6           0        1.202348    1.481620    0.087127
      3          6           0        1.699673    0.220694   -0.255338
      4          6           0        3.080716    0.031456   -0.241156
      5          6           0        3.975093    1.045156    0.099128
      6          6           0        3.455441    2.297992    0.438114
      7          1           0        1.679280    3.495520    0.697911
      8          1           0        0.129266    1.650494    0.082470
      9          1           0        1.047275   -0.600182   -0.527287
     10          1           0        5.039956    0.846502    0.094694
     11          1           0        4.134971    3.101897    0.706480
     12          7           0        3.619030   -1.299147   -0.601867
     13          8           0        4.839814   -1.440275   -0.581711
     14          8           0        2.809984   -2.175751   -0.897919
     15          6           0       -1.574562   -1.816507    1.562008
     16          6           0       -2.447302   -2.329498    0.596770
     17          6           0       -3.237432   -1.471326   -0.173804
     18          6           0       -3.129027   -0.099385    0.048264
     19          6           0       -2.268950    0.442233    1.002313
     20          6           0       -1.488323   -0.434715    1.761347
     21          1           0       -0.964461   -2.490447    2.156127
     22          1           0       -2.516355   -3.402174    0.439790
     23          1           0       -3.921423   -1.841545   -0.927803
     24          1           0       -2.222027    1.516179    1.135933
     25          1           0       -0.811416   -0.033497    2.510258
     26          7           0       -3.960472    0.819061   -0.761400
     27          8           0       -3.846468    2.023818   -0.546453
     28          8           0       -4.710419    0.316792   -1.595630
 ---------------------------------------------------------------------

 SCF Done:  E(RHF) =  -868.337602450     A.U. after   16 cycles
 E2 =    -0.2602019319D+01 EUMP2 =    -0.87093962176862D+03

 The electronic state is 1-A.
 Alpha  occ. eigenvalues --  -20.61418 -20.61388 -20.61120 -20.61102 -15.86461
 Alpha  occ. eigenvalues --  -15.86165 -11.31911 -11.31476 -11.28512 -11.28353
 Alpha  occ. eigenvalues --  -11.28071 -11.28041 -11.28004 -11.27760 -11.27480
 Alpha  occ. eigenvalues --  -11.27362 -11.27036 -11.26967  -1.60480  -1.60191
 Alpha  occ. eigenvalues --   -1.40032  -1.39745  -1.20065  -1.19645  -1.09406
 Alpha  occ. eigenvalues --   -1.09052  -1.05495  -1.05007  -0.96241  -0.95891
 Alpha  occ. eigenvalues --   -0.86832  -0.86435  -0.83085  -0.82704  -0.78160
 Alpha  occ. eigenvalues --   -0.77754  -0.72669  -0.72383  -0.71811  -0.71517
 Alpha  occ. eigenvalues --   -0.71097  -0.70740  -0.65703  -0.65430  -0.65285
 Alpha  occ. eigenvalues --   -0.65017  -0.62854  -0.62321  -0.55857  -0.55548
 Alpha  occ. eigenvalues --   -0.53834  -0.53557  -0.53305  -0.53053  -0.49439
 Alpha  occ. eigenvalues --   -0.49421  -0.49141  -0.49133  -0.45420  -0.45163
 Alpha  occ. eigenvalues --   -0.38030  -0.37654  -0.37248  -0.36385
 Alpha virt. eigenvalues --    0.04350   0.04732   0.10455   0.10977   0.15728
 Alpha virt. eigenvalues --    0.16396   0.20323   0.21689   0.25826   0.27321
 Alpha virt. eigenvalues --    0.27814   0.28537   0.30269   0.31100   0.31725

 Mulliken charges:
               1
     1  C   -0.172928
     2  C   -0.224749
     3  C   -0.175670
     4  C    0.157658
     5  C   -0.171227
     6  C   -0.218695
     7  H    0.227528
     8  H    0.228395
     9  H    0.277332
    10  H    0.276001
    11  H    0.224476
    12  N    0.488088
    13  O   -0.459451
    14  O   -0.462512
    15  C   -0.172712
    16  C   -0.216404
    17  C   -0.171268
    18  C    0.160064
    19  C   -0.186710
    20  C   -0.217618
    21  H    0.233237
    22  H    0.230087
    23  H    0.278918
    24  H    0.271206
    25  H    0.227536
    26  N    0.488428
    27  O   -0.463042
    28  O   -0.455966
 Sum of Mulliken charges =  -0.00000

 Dipole moment (field-independent basis, Debye):
    X=              0.8854    Y=              1.2156    Z=              4.1355  Tot=              4.4004
 Quadrupole moment (field-independent basis, Debye-Ang):
   XX=           -129.9798   YY=           -100.5122   ZZ=           -105.0993
   XY=             28.6549   XZ=             -2.4854   YZ=              0.6527

 Normal termination of Gaussian 16 at Thu May  6 14:44:37 2021.
