 Gaussian 16, Revision A.03,
 Gaussian 16:  EM64L-G16RevA.03 25-Dec-2016

 -------------
 #p 6-31g* mp2
 -------------

 ------------------------------------------------------
 Input file generated by CHIRIPA (05-May-2021 14:53:13)
 ------------------------------------------------------
 Symbolic Z-matrix:
 Charge =  0 Multiplicity = 1

                         Standard orientation:
 ---------------------------------------------------------------------
 Center     Atomic      Atomic             Coordinates (Angstroms)
 Number     Number       Type             X           Y           Z
 ---------------------------------------------------------------------
      1          6           0        3.752422   -0.478388    0.005368
      2          6           0        2.878702   -1.679393   -0.358206
      3          6           0        3.563674   -3.016437   -0.073739
      4          1           0        4.695232   -0.535681   -0.555677
      5          1           0        4.018227   -0.536068    1.069988
      6          1           0        2.613480   -1.618729   -1.421499
      7          1           0        1.937783   -1.619132    0.203626
      8          1           0        3.813669   -3.102875    0.988632
      9          1           0        4.493205   -3.102470   -0.645727
     10          1           0        2.921440   -3.861410   -0.340977
     11          6           0        3.081402    0.865415   -0.273296
     12          6           0        3.955121    2.066420    0.090278
     13          6           0        3.270149    3.403464   -0.194189
     14          1           0        2.815596    0.923095   -1.337916
     15          1           0        2.138592    0.922708    0.287749
     16          1           0        4.896040    2.006159   -0.471554
     17          1           0        4.220343    2.005756    1.153571
     18          1           0        2.340618    3.489497    0.377799
     19          1           0        3.020154    3.489902   -1.256560
     20          1           0        3.912383    4.248437    0.073049
     21          6           0       -3.826416    2.079956   -0.117615
     22          6           0       -2.633611    1.978973    0.605946
     23          6           0       -1.983922    0.747865    0.735664
     24          6           0       -2.557612   -0.366881    0.126148
     25          6           0       -3.744840   -0.298444   -0.601241
     26          6           0       -4.377251    0.942929   -0.717842
     27          1           0       -4.324399    3.040297   -0.213288
     28          1           0       -2.203524    2.860328    1.073153
     29          1           0       -1.059441    0.641298    1.290098
     30          1           0       -4.149327   -1.194663   -1.055774
     31          1           0       -5.303489    1.018378   -1.280370
     32          7           0       -1.878960   -1.675633    0.256532
     33          8           0       -2.404853   -2.642832   -0.289912
     34          8           0       -0.833993   -1.709452    0.902700
 ---------------------------------------------------------------------

 SCF Done:  E(RHF) =  -669.536239815     A.U. after   15 cycles
 E2 =    -0.2091321918D+01 EUMP2 =    -0.67162756173313D+03

 The electronic state is 1-A.
 Alpha  occ. eigenvalues --  -20.60945 -20.60938 -15.85974 -11.31282 -11.27849
 Alpha  occ. eigenvalues --  -11.27840 -11.27578 -11.26850 -11.26840 -11.21453
 Alpha  occ. eigenvalues --  -11.21134 -11.21074 -11.20750 -11.20473 -11.20082
 Alpha  occ. eigenvalues --   -1.59999  -1.39557  -1.19449  -1.08855  -1.07935
 Alpha  occ. eigenvalues --   -1.04845  -1.02977  -0.95700  -0.95483  -0.86507
 Alpha  occ. eigenvalues --   -0.86245  -0.82538  -0.79098  -0.77701  -0.77551
 Alpha  occ. eigenvalues --   -0.72201  -0.71308  -0.70560  -0.65108  -0.64849
 Alpha  occ. eigenvalues --   -0.64569  -0.62194  -0.60369  -0.58895  -0.57045
 Alpha  occ. eigenvalues --   -0.55349  -0.54797  -0.53174  -0.52938  -0.52172
 Alpha  occ. eigenvalues --   -0.51902  -0.49462  -0.48962  -0.48953  -0.47403
 Alpha  occ. eigenvalues --   -0.46157  -0.45371  -0.45173  -0.44666  -0.43244
 Alpha  occ. eigenvalues --   -0.37424  -0.36443
 Alpha virt. eigenvalues --    0.04901   0.11198   0.16377   0.20847   0.23112
 Alpha virt. eigenvalues --    0.24891   0.25629   0.27469   0.27627   0.28366
 Alpha virt. eigenvalues --    0.29237   0.31017   0.31909   0.32044   0.32479

 Mulliken charges:
               1
     1  C   -0.297666
     2  C   -0.310928
     3  C   -0.474806
     4  H    0.146686
     5  H    0.148236
     6  H    0.147165
     7  H    0.178077
     8  H    0.153504
     9  H    0.149110
    10  H    0.165167
    11  C   -0.296539
    12  C   -0.299319
    13  C   -0.474072
    14  H    0.148623
    15  H    0.145095
    16  H    0.152688
    17  H    0.151629
    18  H    0.148571
    19  H    0.155011
    20  H    0.159760
    21  C   -0.170543
    22  C   -0.218390
    23  C   -0.171024
    24  C    0.158221
    25  C   -0.170694
    26  C   -0.218549
    27  H    0.226058
    28  H    0.223944
    29  H    0.275881
    30  H    0.275789
    31  H    0.223788
    32  N    0.490705
    33  O   -0.458687
    34  O   -0.462489
 Sum of Mulliken charges =  -0.00000

 Dipole moment (field-independent basis, Debye):
    X=             -2.6072    Y=              4.4950    Z=             -0.4383  Tot=              5.2148
 Quadrupole moment (field-independent basis, Debye-Ang):
   XX=            -80.7786   YY=            -98.9400   ZZ=            -93.2227
   XY=             -9.0320   XZ=              2.9482   YZ=              2.1812

 Normal termination of Gaussian 16 at Thu May  6 08:56:11 2021.
