 Gaussian 16, Revision A.03,
 Gaussian 16:  EM64L-G16RevA.03 25-Dec-2016

 -------------
 #p 6-31g* mp2
 -------------

 ------------------------------------------------------
 Input file generated by CHIRIPA (05-May-2021 14:57:27)
 ------------------------------------------------------
 Symbolic Z-matrix:
 Charge =  0 Multiplicity = 1

                         Standard orientation:
 ---------------------------------------------------------------------
 Center     Atomic      Atomic             Coordinates (Angstroms)
 Number     Number       Type             X           Y           Z
 ---------------------------------------------------------------------
      1          6           0       -2.676643   -2.081804   -0.202313
      2          6           0       -2.055080   -0.852729   -0.446352
      3          6           0       -2.770876    0.341814   -0.322851
      4          6           0       -4.112701    0.270066    0.048156
      5          6           0       -4.760112   -0.938943    0.298047
      6          6           0       -4.024799   -2.120920    0.168454
      7          1           0       -2.113015   -3.004873   -0.300618
      8          1           0       -1.008213   -0.819320   -0.734443
      9          1           0       -2.314506    1.307042   -0.505823
     10          1           0       -5.805022   -0.940305    0.583669
     11          1           0       -4.510115   -3.073997    0.358602
     12          7           0       -4.880813    1.528023    0.182126
     13          8           0       -6.061832    1.437845    0.510302
     14          8           0       -4.287296    2.580368   -0.043582
     15          6           0        5.731663    1.723244    0.333399
     16          6           0        4.903758    1.770238   -0.793049
     17          6           0        3.933166    0.786027   -1.002403
     18          6           0        3.817353   -0.235402   -0.060829
     19          6           0        4.627216   -0.309715    1.071377
     20          6           0        5.590997    0.685248    1.260383
     21          1           0        6.482996    2.491979    0.488127
     22          1           0        5.010750    2.575179   -1.514622
     23          1           0        3.278996    0.798149   -1.865729
     24          1           0        4.496846   -1.124549    1.773136
     25          1           0        6.232572    0.646210    2.136113
     26          7           0        2.793436   -1.283033   -0.271692
     27          8           0        2.711427   -2.172419    0.572644
     28          8           0        2.092288   -1.194943   -1.277310
 ---------------------------------------------------------------------

 SCF Done:  E(RHF) =  -868.340635140     A.U. after   16 cycles
 E2 =    -0.2598082352D+01 EUMP2 =    -0.87093871749124D+03

 The electronic state is 1-A.
 Alpha  occ. eigenvalues --  -20.61793 -20.61757 -20.60186 -20.60181 -15.86787
 Alpha  occ. eigenvalues --  -15.85230 -11.31837 -11.30393 -11.28372 -11.28358
 Alpha  occ. eigenvalues --  -11.28041 -11.27304 -11.27295 -11.26951 -11.26882
 Alpha  occ. eigenvalues --  -11.26511 -11.25919 -11.25679  -1.60836  -1.59266
 Alpha  occ. eigenvalues --   -1.40396  -1.38825  -1.19978  -1.18516  -1.09431
 Alpha  occ. eigenvalues --   -1.07927  -1.05331  -1.03879  -0.96318  -0.94809
 Alpha  occ. eigenvalues --   -0.86744  -0.85265  -0.83160  -0.81647  -0.78245
 Alpha  occ. eigenvalues --   -0.76739  -0.73016  -0.72131  -0.71453  -0.71078
 Alpha  occ. eigenvalues --   -0.70586  -0.69585  -0.65633  -0.65328  -0.64150
 Alpha  occ. eigenvalues --   -0.63824  -0.62682  -0.61219  -0.55839  -0.54318
 Alpha  occ. eigenvalues --   -0.53678  -0.53417  -0.52234  -0.51933  -0.49790
 Alpha  occ. eigenvalues --   -0.49750  -0.48222  -0.48186  -0.45858  -0.44277
 Alpha  occ. eigenvalues --   -0.37936  -0.36919  -0.36461  -0.35492
 Alpha virt. eigenvalues --    0.04228   0.05766   0.10740   0.12173   0.15775
 Alpha virt. eigenvalues --    0.17337   0.20915   0.22500   0.26854   0.27707
 Alpha virt. eigenvalues --    0.28433   0.29291   0.30511   0.31841   0.32262

 Mulliken charges:
               1
     1  C   -0.172042
     2  C   -0.226469
     3  C   -0.173741
     4  C    0.158135
     5  C   -0.172979
     6  C   -0.219013
     7  H    0.231885
     8  H    0.242924
     9  H    0.271734
    10  H    0.272478
    11  H    0.220972
    12  N    0.488234
    13  O   -0.462719
    14  O   -0.463367
    15  C   -0.169477
    16  C   -0.218271
    17  C   -0.170953
    18  C    0.157400
    19  C   -0.170237
    20  C   -0.218416
    21  H    0.228378
    22  H    0.226041
    23  H    0.275057
    24  H    0.276236
    25  H    0.225725
    26  N    0.488759
    27  O   -0.457896
    28  O   -0.468379
 Sum of Mulliken charges =  -0.00000

 Dipole moment (field-independent basis, Debye):
    X=              6.8649    Y=             -0.8010    Z=              0.2933  Tot=              6.9177
 Quadrupole moment (field-independent basis, Debye-Ang):
   XX=            -96.7544   YY=           -107.4114   ZZ=           -102.0483
   XY=             34.9268   XZ=              5.3030   YZ=             -3.7579

 Normal termination of Gaussian 16 at Fri May  7 08:10:41 2021.
