 Gaussian 16, Revision A.03,
 Gaussian 16:  EM64L-G16RevA.03 25-Dec-2016

 -------------
 #p 6-31g* mp2
 -------------

 ------------------------------------------------------
 Input file generated by CHIRIPA (05-May-2021 14:55:22)
 ------------------------------------------------------
 Symbolic Z-matrix:
 Charge =  0 Multiplicity = 1

                         Standard orientation:
 ---------------------------------------------------------------------
 Center     Atomic      Atomic             Coordinates (Angstroms)
 Number     Number       Type             X           Y           Z
 ---------------------------------------------------------------------
      1          6           0        5.756057   -1.377716    0.214564
      2          6           0        4.544227   -1.855722   -0.294847
      3          6           0        3.452588   -0.996823   -0.453479
      4          6           0        3.608535    0.340163   -0.090935
      5          6           0        4.802931    0.846458    0.419335
      6          6           0        5.881321   -0.030527    0.569403
      7          1           0        6.598922   -2.051955    0.334467
      8          1           0        4.444065   -2.901481   -0.571253
      9          1           0        2.502975   -1.340367   -0.845437
     10          1           0        4.872424    1.894041    0.686090
     11          1           0        6.821243    0.343477    0.965271
     12          7           0        2.459879    1.259015   -0.254339
     13          8           0        2.622895    2.432580    0.072475
     14          8           0        1.418296    0.788247   -0.706135
     15          6           0       -4.150460    0.014809   -0.029818
     16          6           0       -3.074257   -1.023881    0.287827
     17          6           0       -1.657551   -0.496100    0.059380
     18          1           0       -4.042068    0.338184   -1.074148
     19          1           0       -3.985328    0.905601    0.591968
     20          1           0       -3.242189   -1.912991   -0.333379
     21          1           0       -3.185343   -1.344960    1.331466
     22          1           0       -1.465646    0.377863    0.690222
     23          1           0       -1.522815   -0.193394   -0.984083
     24          1           0       -0.904013   -1.254839    0.292526
     25          6           0       -5.572031   -0.497946    0.193668
     26          6           0       -6.648233    0.540742   -0.123977
     27          6           0       -8.064939    0.012963    0.104470
     28          1           0       -5.737163   -1.388738   -0.428117
     29          1           0       -5.680423   -0.821321    1.237998
     30          1           0       -6.537147    0.861824   -1.167616
     31          1           0       -6.480301    1.429853    0.497230
     32          1           0       -8.199676   -0.289743    1.147934
     33          1           0       -8.256845   -0.861000   -0.526371
     34          1           0       -8.818477    0.771701   -0.128675
 ---------------------------------------------------------------------

 SCF Done:  E(RHF) =  -669.535625394     A.U. after   15 cycles
 E2 =    -0.2090907226D+01 EUMP2 =    -0.67162653261991D+03

 The electronic state is 1-A.
 Alpha  occ. eigenvalues --  -20.60817 -20.60797 -15.85846 -11.31217 -11.27787
 Alpha  occ. eigenvalues --  -11.27783 -11.27534 -11.26807 -11.26797 -11.21088
 Alpha  occ. eigenvalues --  -11.20791 -11.20704 -11.20657 -11.20594 -11.19766
 Alpha  occ. eigenvalues --   -1.59876  -1.39429  -1.19391  -1.08787  -1.07733
 Alpha  occ. eigenvalues --   -1.04795  -1.02776  -0.95627  -0.95188  -0.86208
 Alpha  occ. eigenvalues --   -0.86181  -0.82451  -0.78848  -0.77560  -0.77457
 Alpha  occ. eigenvalues --   -0.72060  -0.71192  -0.70500  -0.65045  -0.64799
 Alpha  occ. eigenvalues --   -0.64373  -0.62142  -0.60178  -0.58618  -0.56815
 Alpha  occ. eigenvalues --   -0.55298  -0.54476  -0.53125  -0.52888  -0.51893
 Alpha  occ. eigenvalues --   -0.51598  -0.49127  -0.48833  -0.48817  -0.47135
 Alpha  occ. eigenvalues --   -0.45901  -0.45084  -0.45000  -0.44782  -0.43026
 Alpha  occ. eigenvalues --   -0.37373  -0.36399
 Alpha virt. eigenvalues --    0.05017   0.11252   0.16498   0.21296   0.23509
 Alpha virt. eigenvalues --    0.24906   0.27044   0.27329   0.27795   0.28164
 Alpha virt. eigenvalues --    0.29064   0.30715   0.31769   0.32196   0.32456

 Mulliken charges:
               1
     1  C   -0.170762
     2  C   -0.218584
     3  C   -0.171250
     4  C    0.157994
     5  C   -0.170870
     6  C   -0.218573
     7  H    0.225679
     8  H    0.223565
     9  H    0.276305
    10  H    0.275666
    11  H    0.223520
    12  N    0.491084
    13  O   -0.460417
    14  O   -0.460692
    15  C   -0.297552
    16  C   -0.302584
    17  C   -0.465316
    18  H    0.150297
    19  H    0.150739
    20  H    0.146351
    21  H    0.147134
    22  H    0.161131
    23  H    0.162202
    24  H    0.149974
    25  C   -0.297472
    26  C   -0.299238
    27  C   -0.475301
    28  H    0.147520
    29  H    0.147953
    30  H    0.151889
    31  H    0.152156
    32  H    0.154245
    33  H    0.154084
    34  H    0.159126
 Sum of Mulliken charges =  -0.00000

 Dipole moment (field-independent basis, Debye):
    X=              4.2761    Y=             -3.1213    Z=              0.5276  Tot=              5.3204
 Quadrupole moment (field-independent basis, Debye-Ang):
   XX=            -66.7238   YY=            -94.5516   ZZ=            -94.1317
   XY=             -8.7089   XZ=              3.2048   YZ=              2.4789

 Normal termination of Gaussian 16 at Wed May  5 23:53:37 2021.
