 Gaussian 16, Revision A.03,
 Gaussian 16:  EM64L-G16RevA.03 25-Dec-2016

 -------------
 #p 6-31g* mp2
 -------------

 ------------------------------------------------------
 Input file generated by CHIRIPA (05-May-2021 14:57:27)
 ------------------------------------------------------
 Symbolic Z-matrix:
 Charge =  0 Multiplicity = 1

                         Standard orientation:
 ---------------------------------------------------------------------
 Center     Atomic      Atomic             Coordinates (Angstroms)
 Number     Number       Type             X           Y           Z
 ---------------------------------------------------------------------
      1          6           0       -6.015315    0.578091    0.378933
      2          6           0       -5.581439   -0.742945    0.226824
      3          6           0       -4.227932   -1.026551    0.021553
      4          6           0       -3.331573    0.040001   -0.026380
      5          6           0       -3.732954    1.366750    0.121679
      6          6           0       -5.091317    1.626873    0.325968
      7          1           0       -7.068638    0.789282    0.538011
      8          1           0       -6.296785   -1.559442    0.267510
      9          1           0       -3.864774   -2.039927   -0.099285
     10          1           0       -2.996235    2.159601    0.076406
     11          1           0       -5.425413    2.653784    0.443775
     12          7           0       -1.896106   -0.247810   -0.243172
     13          8           0       -1.126360    0.709616   -0.281421
     14          8           0       -1.567914   -1.425373   -0.370740
     15          6           0        4.750618    2.138949    0.095136
     16          6           0        5.298195    1.024610    0.739286
     17          6           0        4.651687   -0.213919    0.688061
     18          6           0        3.453840   -0.302675   -0.019450
     19          6           0        2.883057    0.789231   -0.671554
     20          6           0        3.546919    2.017917   -0.606990
     21          1           0        5.259581    3.097244    0.140110
     22          1           0        6.232871    1.115660    1.285303
     23          1           0        5.053352   -1.092784    1.177632
     24          1           0        1.949934    0.667446   -1.208086
     25          1           0        3.119331    2.881631   -1.108198
     26          7           0        2.760225   -1.608638   -0.080741
     27          8           0        1.706094   -1.660642   -0.710616
     28          8           0        3.283834   -2.555522    0.502255
 ---------------------------------------------------------------------

 SCF Done:  E(RHF) =  -868.336571690     A.U. after   16 cycles
 E2 =    -0.2600657957D+01 EUMP2 =    -0.87093722964782D+03

 The electronic state is 1-A.
 Alpha  occ. eigenvalues --  -20.60400 -20.60293 -20.59259 -20.59092 -15.85392
 Alpha  occ. eigenvalues --  -15.84219 -11.30930 -11.29855 -11.27549 -11.27482
 Alpha  occ. eigenvalues --  -11.27291 -11.26588 -11.26569 -11.26545 -11.26377
 Alpha  occ. eigenvalues --  -11.26341 -11.25647 -11.25546  -1.59394  -1.58260
 Alpha  occ. eigenvalues --   -1.38951  -1.37794  -1.19115  -1.18091  -1.08476
 Alpha  occ. eigenvalues --   -1.07457  -1.04544  -1.03528  -0.95283  -0.94227
 Alpha  occ. eigenvalues --   -0.85934  -0.84919  -0.82118  -0.81050  -0.77138
 Alpha  occ. eigenvalues --   -0.76028  -0.71605  -0.70739  -0.70425  -0.70223
 Alpha  occ. eigenvalues --   -0.69599  -0.69207  -0.64767  -0.64547  -0.63739
 Alpha  occ. eigenvalues --   -0.63553  -0.61890  -0.60847  -0.55037  -0.54077
 Alpha  occ. eigenvalues --   -0.52864  -0.52639  -0.51865  -0.51627  -0.48393
 Alpha  occ. eigenvalues --   -0.48297  -0.47232  -0.47160  -0.44329  -0.43107
 Alpha  occ. eigenvalues --   -0.37106  -0.36155  -0.36132  -0.35143
 Alpha virt. eigenvalues --    0.05399   0.06499   0.11496   0.12502   0.16859
 Alpha virt. eigenvalues --    0.17901   0.21602   0.22543   0.27504   0.28378
 Alpha virt. eigenvalues --    0.28543   0.29532   0.31141   0.32035   0.32753

 Mulliken charges:
               1
     1  C   -0.171346
     2  C   -0.218540
     3  C   -0.170843
     4  C    0.158654
     5  C   -0.171530
     6  C   -0.218459
     7  H    0.224600
     8  H    0.223465
     9  H    0.278377
    10  H    0.272344
    11  H    0.221649
    12  N    0.487856
    13  O   -0.472113
    14  O   -0.441110
    15  C   -0.172009
    16  C   -0.219869
    17  C   -0.172162
    18  C    0.155464
    19  C   -0.168405
    20  C   -0.220903
    21  H    0.220154
    22  H    0.218215
    23  H    0.272150
    24  H    0.291512
    25  H    0.220063
    26  N    0.485950
    27  O   -0.441711
    28  O   -0.471456
 Sum of Mulliken charges =  -0.00000

 Dipole moment (field-independent basis, Debye):
    X=             -3.0533    Y=              5.3291    Z=              0.8179  Tot=              6.1960
 Quadrupole moment (field-independent basis, Debye-Ang):
   XX=            -55.1551   YY=           -102.8684   ZZ=           -104.8729
   XY=             11.4145   XZ=              0.2875   YZ=             -1.0614

 Normal termination of Gaussian 16 at Fri May  7 05:07:58 2021.
