 Gaussian 16, Revision A.03,
 Gaussian 16:  EM64L-G16RevA.03 25-Dec-2016

 -------------
 #p 6-31g* mp2
 -------------

 ------------------------------------------------------
 Input file generated by CHIRIPA (05-May-2021 14:51:10)
 ------------------------------------------------------
 Symbolic Z-matrix:
 Charge =  0 Multiplicity = 1

                         Standard orientation:
 ---------------------------------------------------------------------
 Center     Atomic      Atomic             Coordinates (Angstroms)
 Number     Number       Type             X           Y           Z
 ---------------------------------------------------------------------
      1          6           0        2.440610   -0.472667    0.896428
      2          6           0        1.459715   -1.619339    0.649499
      3          6           0        0.640671   -1.974305    1.890854
      4          1           0        3.116898   -0.747496    1.717433
      5          1           0        1.882572    0.411703    1.233885
      6          1           0        2.019291   -2.500871    0.311281
      7          1           0        0.785806   -1.341826   -0.171141
      8          1           0        0.057438   -1.111061    2.227380
      9          1           0        1.297931   -2.276691    2.712543
     10          1           0       -0.053975   -2.796354    1.691950
     11          6           0        3.266661   -0.106225   -0.335273
     12          6           0        4.247557    1.040446   -0.088344
     13          6           0        5.066600    1.395412   -1.329698
     14          1           0        3.824700   -0.990596   -0.672730
     15          1           0        2.590373    0.168603   -1.156277
     16          1           0        4.921465    0.762934    0.732296
     17          1           0        3.687981    1.921978    0.249875
     18          1           0        4.409340    1.697799   -2.151387
     19          1           0        5.649834    0.532168   -1.666225
     20          1           0        5.761246    2.217461   -1.130794
     21          6           0       -2.542017    0.922972    0.010920
     22          6           0       -3.514576    2.100853    0.079558
     23          6           0       -2.876486    3.360996    0.664942
     24          1           0       -2.163268    0.709156    1.019770
     25          1           0       -1.671703    1.209939   -0.595379
     26          1           0       -4.383443    1.811281    0.684399
     27          1           0       -3.891200    2.311766   -0.929544
     28          1           0       -2.021442    3.677098    0.058659
     29          1           0       -2.516481    3.173770    1.681772
     30          1           0       -3.589307    4.190550    0.704781
     31          6           0       -3.165254   -0.344079   -0.572076
     32          6           0       -2.192696   -1.521960   -0.640714
     33          6           0       -2.830785   -2.782103   -1.226097
     34          1           0       -4.035568   -0.631046    0.034222
     35          1           0       -3.544004   -0.130264   -1.580925
     36          1           0       -1.816071   -1.732874    0.368388
     37          1           0       -1.323828   -1.232388   -1.245555
     38          1           0       -3.190790   -2.594877   -2.242927
     39          1           0       -3.685829   -3.098205   -0.619814
     40          1           0       -2.117964   -3.611657   -1.265937
 ---------------------------------------------------------------------

 SCF Done:  E(RHF) =  -470.731967802     A.U. after   11 cycles
 E2 =    -0.1584417493D+01 EUMP2 =    -0.47231638529541D+03

 The electronic state is 1-A.
 Alpha  occ. eigenvalues --  -11.21643 -11.21582 -11.21526 -11.21472 -11.21447
 Alpha  occ. eigenvalues --  -11.21368 -11.21368 -11.21299 -11.21113 -11.21071
 Alpha  occ. eigenvalues --  -11.21061 -11.21050  -1.08479  -1.08369  -1.03606
 Alpha  occ. eigenvalues --   -1.03443  -0.96018  -0.95946  -0.87028  -0.86970
 Alpha  occ. eigenvalues --   -0.79681  -0.79523  -0.78345  -0.78142  -0.65103
 Alpha  occ. eigenvalues --   -0.65020  -0.61011  -0.60902  -0.59529  -0.59175
 Alpha  occ. eigenvalues --   -0.57748  -0.57409  -0.55296  -0.55258  -0.52706
 Alpha  occ. eigenvalues --   -0.52647  -0.52425  -0.52382  -0.50025  -0.49851
 Alpha  occ. eigenvalues --   -0.48061  -0.47828  -0.46811  -0.46452  -0.45993
 Alpha  occ. eigenvalues --   -0.45747  -0.45649  -0.45317  -0.43800  -0.43735
 Alpha virt. eigenvalues --    0.21017   0.23304   0.23560   0.24274   0.25098
 Alpha virt. eigenvalues --    0.26170   0.26998   0.27895   0.28479   0.29406
 Alpha virt. eigenvalues --    0.30724   0.31277   0.31656   0.31859   0.32293

 Mulliken charges:
               1
     1  C   -0.297984
     2  C   -0.305361
     3  C   -0.479392
     4  H    0.149131
     5  H    0.149735
     6  H    0.150914
     7  H    0.160397
     8  H    0.155249
     9  H    0.155953
    10  H    0.160453
    11  C   -0.298036
    12  C   -0.299638
    13  C   -0.475661
    14  H    0.149446
    15  H    0.148767
    16  H    0.151977
    17  H    0.151977
    18  H    0.154942
    19  H    0.155145
    20  H    0.160220
    21  C   -0.299784
    22  C   -0.299539
    23  C   -0.475754
    24  H    0.150175
    25  H    0.148624
    26  H    0.152248
    27  H    0.152206
    28  H    0.154964
    29  H    0.155104
    30  H    0.160529
    31  C   -0.297131
    32  C   -0.310173
    33  C   -0.475535
    34  H    0.149428
    35  H    0.149294
    36  H    0.163592
    37  H    0.153343
    38  H    0.155029
    39  H    0.155015
    40  H    0.160129
 Sum of Mulliken charges =  -0.00000

 Dipole moment (field-independent basis, Debye):
    X=             -0.0316    Y=             -0.0082    Z=              0.0040  Tot=              0.0329
 Quadrupole moment (field-independent basis, Debye-Ang):
   XX=            -84.8332   YY=            -85.3881   ZZ=            -84.6984
   XY=             -0.9552   XZ=              0.2790   YZ=             -0.5688

 Normal termination of Gaussian 16 at Wed May  5 16:40:39 2021.
