 Gaussian 16, Revision A.03,
 Gaussian 16:  EM64L-G16RevA.03 25-Dec-2016

 -------------
 #p 6-31g* mp2
 -------------

 ------------------------------------------------------
 Input file generated by CHIRIPA (05-May-2021 14:53:14)
 ------------------------------------------------------
 Symbolic Z-matrix:
 Charge =  0 Multiplicity = 1

                         Standard orientation:
 ---------------------------------------------------------------------
 Center     Atomic      Atomic             Coordinates (Angstroms)
 Number     Number       Type             X           Y           Z
 ---------------------------------------------------------------------
      1          6           0       -3.819369    0.766705    0.626981
      2          6           0       -2.411834    0.939393    0.055133
      3          6           0       -1.505104    1.775504    0.958766
      4          1           0       -4.268437    1.756946    0.784162
      5          1           0       -3.750115    0.294250    1.616620
      6          1           0       -2.483811    1.410120   -0.933730
      7          1           0       -1.966137   -0.051379   -0.100884
      8          1           0       -1.403619    1.306444    1.942780
      9          1           0       -1.924235    2.776248    1.105202
     10          1           0       -0.503864    1.886309    0.530865
     11          6           0       -4.737618   -0.066870   -0.265039
     12          6           0       -6.145153   -0.239558    0.306809
     13          6           0       -7.051882   -1.075669   -0.596824
     14          1           0       -4.806872    0.405585   -1.254678
     15          1           0       -4.288550   -1.057111   -0.422220
     16          1           0       -6.590850    0.751214    0.462827
     17          1           0       -6.073175   -0.710285    1.295673
     18          1           0       -6.632752   -2.076413   -0.743260
     19          1           0       -7.153367   -0.606609   -1.580838
     20          1           0       -8.053123   -1.186474   -0.168922
     21          6           0        5.777905    0.306587    0.172826
     22          6           0        5.238567   -0.817497    0.806916
     23          6           0        3.890537   -1.148388    0.639964
     24          6           0        3.107134   -0.329442   -0.171761
     25          6           0        3.615200    0.797061   -0.816859
     26          6           0        4.965931    1.108864   -0.635612
     27          1           0        6.826137    0.556218    0.308069
     28          1           0        5.866789   -1.442370    1.435338
     29          1           0        3.447154   -2.012837    1.119086
     30          1           0        2.964020    1.400847   -1.437202
     31          1           0        5.382079    1.982448   -1.129288
     32          7           0        1.678604   -0.669638   -0.356071
     33          8           0        1.009479    0.067998   -1.076350
     34          8           0        1.255098   -1.667477    0.223236
 ---------------------------------------------------------------------

 SCF Done:  E(RHF) =  -669.536481049     A.U. after   15 cycles
 E2 =    -0.2091585492D+01 EUMP2 =    -0.67162806654052D+03

 The electronic state is 1-A.
 Alpha  occ. eigenvalues --  -20.61041 -20.61027 -15.86036 -11.31332 -11.27889
 Alpha  occ. eigenvalues --  -11.27886 -11.27621 -11.26890 -11.26880 -11.20777
 Alpha  occ. eigenvalues --  -11.20369 -11.20342 -11.20163 -11.19935 -11.19652
 Alpha  occ. eigenvalues --   -1.60075  -1.39635  -1.19495  -1.08906  -1.07289
 Alpha  occ. eigenvalues --   -1.04887  -1.02361  -0.95754  -0.94866  -0.86289
 Alpha  occ. eigenvalues --   -0.85904  -0.82588  -0.78460  -0.77646  -0.77036
 Alpha  occ. eigenvalues --   -0.72259  -0.71385  -0.70605  -0.65152  -0.64890
 Alpha  occ. eigenvalues --   -0.63928  -0.62235  -0.59768  -0.58254  -0.56431
 Alpha  occ. eigenvalues --   -0.55391  -0.54189  -0.53218  -0.52978  -0.51583
 Alpha  occ. eigenvalues --   -0.51293  -0.49030  -0.49017  -0.48847  -0.46775
 Alpha  occ. eigenvalues --   -0.45496  -0.45010  -0.44599  -0.44457  -0.42621
 Alpha  occ. eigenvalues --   -0.37471  -0.36485
 Alpha virt. eigenvalues --    0.04853   0.11168   0.16330   0.21289   0.23933
 Alpha virt. eigenvalues --    0.25447   0.27215   0.27758   0.28081   0.28688
 Alpha virt. eigenvalues --    0.29095   0.30820   0.32145   0.32469   0.32837

 Mulliken charges:
               1
     1  C   -0.298391
     2  C   -0.297934
     3  C   -0.478600
     4  H    0.143832
     5  H    0.146826
     6  H    0.148373
     7  H    0.171837
     8  H    0.149807
     9  H    0.145529
    10  H    0.166388
    11  C   -0.297731
    12  C   -0.298671
    13  C   -0.475108
    14  H    0.147840
    15  H    0.152479
    16  H    0.149535
    17  H    0.150639
    18  H    0.155274
    19  H    0.154036
    20  H    0.157327
    21  C   -0.170465
    22  C   -0.218556
    23  C   -0.170634
    24  C    0.158590
    25  C   -0.170850
    26  C   -0.218486
    27  H    0.226160
    28  H    0.223955
    29  H    0.275861
    30  H    0.275815
    31  H    0.224021
    32  N    0.488604
    33  O   -0.458196
    34  O   -0.459106
 Sum of Mulliken charges =  -0.00000

 Dipole moment (field-independent basis, Debye):
    X=              5.4202    Y=              1.0427    Z=              0.5389  Tot=              5.5458
 Quadrupole moment (field-independent basis, Debye-Ang):
   XX=            -65.7471   YY=            -92.6669   ZZ=            -94.0575
   XY=              1.2857   XZ=              1.5967   YZ=             -4.1993

 Normal termination of Gaussian 16 at Thu May  6 04:13:32 2021.
