 Gaussian 16, Revision A.03,
 Gaussian 16:  EM64L-G16RevA.03 25-Dec-2016

 -------------
 #p 6-31g* mp2
 -------------

 ------------------------------------------------------
 Input file generated by CHIRIPA (05-May-2021 14:55:23)
 ------------------------------------------------------
 Symbolic Z-matrix:
 Charge =  0 Multiplicity = 1

                         Standard orientation:
 ---------------------------------------------------------------------
 Center     Atomic      Atomic             Coordinates (Angstroms)
 Number     Number       Type             X           Y           Z
 ---------------------------------------------------------------------
      1          6           0        1.671135    1.448516    1.923242
      2          6           0        2.598341    1.423652    0.876250
      3          6           0        2.619342    0.357954   -0.028401
      4          6           0        1.694632   -0.670801    0.144413
      5          6           0        0.758559   -0.674747    1.177391
      6          6           0        0.755817    0.401084    2.070211
      7          1           0        1.661912    2.280312    2.621401
      8          1           0        3.310369    2.235730    0.759672
      9          1           0        3.326324    0.313364   -0.847916
     10          1           0        0.061207   -1.498717    1.267889
     11          1           0        0.034601    0.417738    2.882378
     12          7           0        1.707200   -1.804372   -0.807038
     13          8           0        0.882033   -2.698506   -0.633080
     14          8           0        2.541979   -1.777266   -1.708729
     15          6           0       -1.724291    0.951468   -0.912532
     16          6           0       -1.417590    2.418542   -0.609856
     17          6           0       -0.531977    3.068888   -1.673122
     18          1           0       -0.780276    0.395683   -0.995506
     19          1           0       -2.215416    0.881503   -1.892989
     20          1           0       -0.928437    2.485851    0.370356
     21          1           0       -2.362451    2.970859   -0.527403
     22          1           0       -1.016837    3.031212   -2.653986
     23          1           0        0.425326    2.543448   -1.751126
     24          1           0       -0.325232    4.117376   -1.436923
     25          6           0       -2.608663    0.287508    0.141400
     26          6           0       -2.915365   -1.179566   -0.161277
     27          6           0       -3.800977   -1.829912    0.901989
     28          1           0       -2.117539    0.357473    1.121856
     29          1           0       -3.552679    0.843292    0.224373
     30          1           0       -1.970503   -1.731884   -0.243731
     31          1           0       -3.404517   -1.246875   -1.141489
     32          1           0       -4.758280   -1.304471    0.979992
     33          1           0       -3.316118   -1.792236    1.882853
     34          1           0       -4.007723   -2.878400    0.665790
 ---------------------------------------------------------------------

 SCF Done:  E(RHF) =  -669.533671122     A.U. after   15 cycles
 E2 =    -0.2098449685D+01 EUMP2 =    -0.67163212080697D+03

 The electronic state is 1-A.
 Alpha  occ. eigenvalues --  -20.61004 -20.60994 -15.86027 -11.31359 -11.27966
 Alpha  occ. eigenvalues --  -11.27926 -11.27700 -11.26971 -11.26950 -11.21627
 Alpha  occ. eigenvalues --  -11.21483 -11.21419 -11.21284 -11.21149 -11.21117
 Alpha  occ. eigenvalues --   -1.60058  -1.39613  -1.19586  -1.08970  -1.08455
 Alpha  occ. eigenvalues --   -1.04977  -1.03545  -0.96028  -0.95793  -0.87038
 Alpha  occ. eigenvalues --   -0.86374  -0.82635  -0.79598  -0.78267  -0.77685
 Alpha  occ. eigenvalues --   -0.72251  -0.71390  -0.70685  -0.65267  -0.65199
 Alpha  occ. eigenvalues --   -0.64936  -0.62339  -0.60923  -0.59375  -0.57617
 Alpha  occ. eigenvalues --   -0.55466  -0.55398  -0.53215  -0.53066  -0.52694
 Alpha  occ. eigenvalues --   -0.52435  -0.49976  -0.49031  -0.49004  -0.47897
 Alpha  occ. eigenvalues --   -0.46655  -0.45852  -0.45789  -0.44895  -0.43792
 Alpha  occ. eigenvalues --   -0.37434  -0.36475
 Alpha virt. eigenvalues --    0.04772   0.10961   0.16166   0.20039   0.23281
 Alpha virt. eigenvalues --    0.23629   0.25902   0.26575   0.27872   0.28399
 Alpha virt. eigenvalues --    0.28963   0.30223   0.31242   0.31710   0.31913

 Mulliken charges:
               1
     1  C   -0.171214
     2  C   -0.216879
     3  C   -0.172778
     4  C    0.157280
     5  C   -0.170774
     6  C   -0.215506
     7  H    0.227215
     8  H    0.225032
     9  H    0.276693
    10  H    0.279850
    11  H    0.225020
    12  N    0.489672
    13  O   -0.460732
    14  O   -0.458662
    15  C   -0.299095
    16  C   -0.300241
    17  C   -0.476536
    18  H    0.152615
    19  H    0.152060
    20  H    0.148853
    21  H    0.150093
    22  H    0.157022
    23  H    0.154980
    24  H    0.156094
    25  C   -0.299513
    26  C   -0.312375
    27  C   -0.474431
    28  H    0.138313
    29  H    0.149734
    30  H    0.166430
    31  H    0.156030
    32  H    0.154803
    33  H    0.145907
    34  H    0.165039
 Sum of Mulliken charges =  -0.00000

 Dipole moment (field-independent basis, Debye):
    X=              0.1323    Y=              3.8612    Z=              3.2978  Tot=              5.0796
 Quadrupole moment (field-independent basis, Debye-Ang):
   XX=            -92.0308   YY=           -100.2920   ZZ=            -93.2684
   XY=              8.3960   XZ=              4.8126   YZ=             -2.2836

 Normal termination of Gaussian 16 at Thu May  6 12:39:35 2021.
