 Gaussian 16, Revision A.03,
 Gaussian 16:  EM64L-G16RevA.03 25-Dec-2016

 -------------
 #p 6-31g* mp2
 -------------

 ------------------------------------------------------
 Input file generated by CHIRIPA (05-May-2021 14:55:22)
 ------------------------------------------------------
 Symbolic Z-matrix:
 Charge =  0 Multiplicity = 1

                         Standard orientation:
 ---------------------------------------------------------------------
 Center     Atomic      Atomic             Coordinates (Angstroms)
 Number     Number       Type             X           Y           Z
 ---------------------------------------------------------------------
      1          6           0       -3.287054   -2.375245   -0.942026
      2          6           0       -2.944443   -1.282657   -1.745389
      3          6           0       -2.636066   -0.046741   -1.169227
      4          6           0       -2.680406    0.061612    0.219867
      5          6           0       -3.018094   -1.008392    1.047121
      6          6           0       -3.322723   -2.234872    0.449212
      7          1           0       -3.525153   -3.331669   -1.398049
      8          1           0       -2.915928   -1.388759   -2.826118
      9          1           0       -2.367596    0.815487   -1.767478
     10          1           0       -3.037942   -0.871922    2.121551
     11          1           0       -3.588460   -3.081672    1.075597
     12          7           0       -2.355925    1.365027    0.841335
     13          8           0       -2.402231    1.434566    2.067572
     14          8           0       -2.061435    2.292424    0.090438
     15          6           0        4.101529   -0.117852    0.199347
     16          6           0        4.157676   -1.639583    0.060908
     17          6           0        5.367929   -2.253042    0.765713
     18          1           0        5.024457    0.315481   -0.209761
     19          1           0        4.078451    0.145725    1.265831
     20          1           0        4.179245   -1.900260   -1.005018
     21          1           0        3.234423   -2.069331    0.470220
     22          1           0        5.348649   -2.021952    1.835679
     23          1           0        6.298839   -1.851921    0.352060
     24          1           0        5.388374   -3.341607    0.654052
     25          6           0        2.897215    0.510060   -0.499999
     26          6           0        2.841067    2.031791   -0.361559
     27          6           0        1.630815    2.645250   -1.066365
     28          1           0        2.920294    0.246483   -1.566483
     29          1           0        1.974287    0.076727   -0.090889
     30          1           0        3.764320    2.461539   -0.770871
     31          1           0        2.819499    2.292469    0.704367
     32          1           0        0.699904    2.244129   -0.652711
     33          1           0        1.650095    2.414161   -2.136331
     34          1           0        1.610369    3.733815   -0.954704
 ---------------------------------------------------------------------

 SCF Done:  E(RHF) =  -669.536200577     A.U. after   15 cycles
 E2 =    -0.2091112807D+01 EUMP2 =    -0.67162731338356D+03

 The electronic state is 1-A.
 Alpha  occ. eigenvalues --  -20.60955 -20.60948 -15.85969 -11.31278 -11.27843
 Alpha  occ. eigenvalues --  -11.27832 -11.27576 -11.26846 -11.26833 -11.21460
 Alpha  occ. eigenvalues --  -11.21112 -11.21024 -11.20964 -11.20958 -11.20145
 Alpha  occ. eigenvalues --   -1.60010  -1.39566  -1.19446  -1.08854  -1.08078
 Alpha  occ. eigenvalues --   -1.04839  -1.03111  -0.95700  -0.95541  -0.86560
 Alpha  occ. eigenvalues --   -0.86240  -0.82530  -0.79193  -0.77887  -0.77583
 Alpha  occ. eigenvalues --   -0.72193  -0.71323  -0.70554  -0.65102  -0.64842
 Alpha  occ. eigenvalues --   -0.64709  -0.62186  -0.60501  -0.58953  -0.57159
 Alpha  occ. eigenvalues --   -0.55345  -0.54825  -0.53172  -0.52930  -0.52220
 Alpha  occ. eigenvalues --   -0.51978  -0.49504  -0.48961  -0.48944  -0.47511
 Alpha  occ. eigenvalues --   -0.46266  -0.45466  -0.45367  -0.44803  -0.43376
 Alpha  occ. eigenvalues --   -0.37425  -0.36438
 Alpha virt. eigenvalues --    0.04909   0.11203   0.16376   0.21318   0.23186
 Alpha virt. eigenvalues --    0.24717   0.26907   0.27199   0.27722   0.27984
 Alpha virt. eigenvalues --    0.28748   0.30755   0.31769   0.32053   0.32439

 Mulliken charges:
               1
     1  C   -0.170490
     2  C   -0.218416
     3  C   -0.170901
     4  C    0.157794
     5  C   -0.171017
     6  C   -0.218598
     7  H    0.226011
     8  H    0.224011
     9  H    0.276808
    10  H    0.275658
    11  H    0.223748
    12  N    0.487341
    13  O   -0.458784
    14  O   -0.457926
    15  C   -0.298021
    16  C   -0.299025
    17  C   -0.475457
    18  H    0.149264
    19  H    0.150784
    20  H    0.150131
    21  H    0.150347
    22  H    0.155694
    23  H    0.155262
    24  H    0.158417
    25  C   -0.297166
    26  C   -0.300076
    27  C   -0.480824
    28  H    0.146113
    29  H    0.147545
    30  H    0.148784
    31  H    0.154555
    32  H    0.169628
    33  H    0.146303
    34  H    0.162506
 Sum of Mulliken charges =  -0.00000

 Dipole moment (field-independent basis, Debye):
    X=             -1.3349    Y=             -4.5462    Z=             -2.1228  Tot=              5.1919
 Quadrupole moment (field-independent basis, Debye-Ang):
   XX=            -90.0772   YY=            -95.3393   ZZ=            -91.2794
   XY=             13.4031   XZ=              4.2380   YZ=             -2.8064

 Normal termination of Gaussian 16 at Thu May  6 15:52:31 2021.
