 Gaussian 16, Revision A.03,
 Gaussian 16:  EM64L-G16RevA.03 25-Dec-2016

 -------------
 #p 6-31g* mp2
 -------------

 ------------------------------------------------------
 Input file generated by CHIRIPA (05-May-2021 14:57:25)
 ------------------------------------------------------
 Symbolic Z-matrix:
 Charge =  0 Multiplicity = 1

                         Standard orientation:
 ---------------------------------------------------------------------
 Center     Atomic      Atomic             Coordinates (Angstroms)
 Number     Number       Type             X           Y           Z
 ---------------------------------------------------------------------
      1          6           0       -3.002291   -2.172186    0.086767
      2          6           0       -2.443559   -1.502794    1.180501
      3          6           0       -2.312076   -0.110982    1.169531
      4          6           0       -2.751768    0.583109    0.043388
      5          6           0       -3.312602   -0.055140   -1.061779
      6          6           0       -3.434267   -1.447500   -1.028916
      7          1           0       -3.100616   -3.253591    0.103793
      8          1           0       -2.107220   -2.063011    2.048302
      9          1           0       -1.883191    0.432547    2.002629
     10          1           0       -3.638815    0.530533   -1.912655
     11          1           0       -3.868570   -1.964705   -1.879753
     12          7           0       -2.617770    2.056847    0.020185
     13          8           0       -3.012793    2.645361   -0.983929
     14          8           0       -2.120255    2.595545    1.006553
     15          6           0        0.842060   -1.959384    0.064152
     16          6           0        1.430225   -1.655071   -1.167910
     17          6           0        2.501120   -0.759351   -1.241518
     18          6           0        2.960611   -0.183683   -0.057978
     19          6           0        2.395664   -0.466668    1.184618
     20          6           0        1.325803   -1.365259    1.234421
     21          1           0        0.010565   -2.656317    0.112087
     22          1           0        1.056622   -2.114972   -2.078380
     23          1           0        2.975037   -0.505927   -2.182047
     24          1           0        2.789994    0.007645    2.075095
     25          1           0        0.870974   -1.599723    2.192649
     26          7           0        4.093772    0.766095   -0.123302
     27          8           0        4.480093    1.259868    0.933854
     28          8           0        4.574166    0.998774   -1.230424
 ---------------------------------------------------------------------

 SCF Done:  E(RHF) =  -868.334982933     A.U. after   16 cycles
 E2 =    -0.2603309636D+01 EUMP2 =    -0.87093829256858D+03

 The electronic state is 1-A.
 Alpha  occ. eigenvalues --  -20.61303 -20.61297 -20.60720 -20.60714 -15.86366
 Alpha  occ. eigenvalues --  -15.85783 -11.31992 -11.31242 -11.28613 -11.28571
 Alpha  occ. eigenvalues --  -11.28437 -11.27893 -11.27870 -11.27743 -11.27663
 Alpha  occ. eigenvalues --  -11.27638 -11.26966 -11.26877  -1.60371  -1.59793
 Alpha  occ. eigenvalues --   -1.39918  -1.39344  -1.20216  -1.19464  -1.09586
 Alpha  occ. eigenvalues --   -1.08842  -1.05662  -1.04901  -0.96356  -0.95655
 Alpha  occ. eigenvalues --   -0.87059  -0.86306  -0.83184  -0.82497  -0.78175
 Alpha  occ. eigenvalues --   -0.77514  -0.72583  -0.72003  -0.71695  -0.71338
 Alpha  occ. eigenvalues --   -0.71115  -0.70622  -0.65872  -0.65704  -0.65124
 Alpha  occ. eigenvalues --   -0.64949  -0.62993  -0.62249  -0.56180  -0.55595
 Alpha  occ. eigenvalues --   -0.54012  -0.53760  -0.53022  -0.53010  -0.49360
 Alpha  occ. eigenvalues --   -0.49319  -0.48770  -0.48746  -0.45265  -0.44730
 Alpha  occ. eigenvalues --   -0.38288  -0.37900  -0.36851  -0.36332
 Alpha virt. eigenvalues --    0.04314   0.05053   0.10277   0.11112   0.15713
 Alpha virt. eigenvalues --    0.16487   0.19176   0.22019   0.25083   0.26634
 Alpha virt. eigenvalues --    0.28109   0.29125   0.29771   0.31306   0.32005

 Mulliken charges:
               1
     1  C   -0.178574
     2  C   -0.224988
     3  C   -0.162786
     4  C    0.160581
     5  C   -0.169774
     6  C   -0.218821
     7  H    0.225352
     8  H    0.219586
     9  H    0.276789
    10  H    0.278817
    11  H    0.225606
    12  N    0.488067
    13  O   -0.457680
    14  O   -0.457206
    15  C   -0.160492
    16  C   -0.221398
    17  C   -0.168946
    18  C    0.158623
    19  C   -0.168424
    20  C   -0.221816
    21  H    0.219396
    22  H    0.221331
    23  H    0.276615
    24  H    0.276783
    25  H    0.214014
    26  N    0.488490
    27  O   -0.459306
    28  O   -0.459838
 Sum of Mulliken charges =  -0.00000

 Dipole moment (field-independent basis, Debye):
    X=             -4.5534    Y=             -8.2359    Z=              0.1944  Tot=              9.4128
 Quadrupole moment (field-independent basis, Debye-Ang):
   XX=           -125.9437   YY=           -111.3024   ZZ=            -95.9092
   XY=              4.6103   XZ=              2.7490   YZ=              0.7575

 Normal termination of Gaussian 16 at Thu May  6 11:27:34 2021.
