 Gaussian 16, Revision A.03,
 Gaussian 16:  EM64L-G16RevA.03 25-Dec-2016

 -------------
 #p 6-31g* mp2
 -------------

 ------------------------------------------------------
 Input file generated by CHIRIPA (05-May-2021 14:51:08)
 ------------------------------------------------------
 Symbolic Z-matrix:
 Charge =  0 Multiplicity = 1

                         Standard orientation:
 ---------------------------------------------------------------------
 Center     Atomic      Atomic             Coordinates (Angstroms)
 Number     Number       Type             X           Y           Z
 ---------------------------------------------------------------------
      1          6           0       -3.578793    0.432470    0.099728
      2          6           0       -3.163806    1.887203   -0.122805
      3          6           0       -1.679243    2.127291    0.153283
      4          1           0       -3.345671    0.145484    1.134251
      5          1           0       -2.974577   -0.217163   -0.548574
      6          1           0       -3.769584    2.534017    0.524713
      7          1           0       -3.398120    2.170818   -1.156863
      8          1           0       -1.060147    1.506134   -0.502069
      9          1           0       -1.433723    1.871397    1.189062
     10          1           0       -1.404256    3.173680   -0.011979
     11          6           0       -5.060119    0.176677   -0.172253
     12          6           0       -5.475106   -1.278056    0.050280
     13          6           0       -6.959669   -1.518144   -0.225808
     14          1           0       -5.664335    0.826311    0.476048
     15          1           0       -5.293241    0.463663   -1.206776
     16          1           0       -5.240792   -1.561671    1.084338
     17          1           0       -4.869328   -1.924870   -0.597239
     18          1           0       -7.205189   -1.262250   -1.261588
     19          1           0       -7.578765   -0.896987    0.429544
     20          1           0       -7.234656   -2.564533   -0.060546
     21          6           0        3.631716    0.027672    0.043860
     22          6           0        2.488468   -0.950987    0.314405
     23          6           0        1.118893   -0.271345    0.326501
     24          1           0        3.619083    0.816701    0.808202
     25          1           0        3.459304    0.524377   -0.920999
     26          1           0        2.663698   -1.446709    1.277820
     27          1           0        2.503940   -1.737884   -0.450560
     28          1           0        0.918356    0.208357   -0.636968
     29          1           0        1.079022    0.501185    1.101232
     30          1           0        0.316162   -0.989261    0.521644
     31          6           0        5.007196   -0.636820    0.028665
     32          6           0        6.150445    0.341840   -0.241879
     33          6           0        7.520020   -0.337802   -0.253975
     34          1           0        5.179607   -1.133523    0.993525
     35          1           0        5.019828   -1.425848   -0.735676
     36          1           0        6.134971    1.128737    0.523085
     37          1           0        5.975213    0.837563   -1.205294
     38          1           0        7.559890   -1.110333   -1.028706
     39          1           0        7.720555   -0.817504    0.709493
     40          1           0        8.322749    0.380114   -0.449119
 ---------------------------------------------------------------------

 SCF Done:  E(RHF) =  -470.732492600     A.U. after   11 cycles
 E2 =    -0.1582842645D+01 EUMP2 =    -0.47231533524464D+03

 The electronic state is 1-A.
 Alpha  occ. eigenvalues --  -11.21585 -11.21574 -11.21544 -11.21504 -11.21379
 Alpha  occ. eigenvalues --  -11.21354 -11.21319 -11.21291 -11.21059 -11.21050
 Alpha  occ. eigenvalues --  -11.20999 -11.20872  -1.08405  -1.08367  -1.03526
 Alpha  occ. eigenvalues --   -1.03435  -0.96018  -0.95845  -0.87090  -0.86813
 Alpha  occ. eigenvalues --   -0.79701  -0.79401  -0.78242  -0.78149  -0.65049
 Alpha  occ. eigenvalues --   -0.64991  -0.60977  -0.60793  -0.59354  -0.59242
 Alpha  occ. eigenvalues --   -0.57692  -0.57417  -0.55394  -0.55063  -0.52816
 Alpha  occ. eigenvalues --   -0.52628  -0.52519  -0.52012  -0.50073  -0.49676
 Alpha  occ. eigenvalues --   -0.48088  -0.47597  -0.46708  -0.46436  -0.45834
 Alpha  occ. eigenvalues --   -0.45704  -0.45651  -0.45559  -0.43748  -0.43709
 Alpha virt. eigenvalues --    0.22366   0.23008   0.23637   0.24797   0.26105
 Alpha virt. eigenvalues --    0.26475   0.26926   0.27361   0.27843   0.29364
 Alpha virt. eigenvalues --    0.29687   0.30952   0.31581   0.32102   0.32247

 Mulliken charges:
               1
     1  C   -0.298286
     2  C   -0.299811
     3  C   -0.479201
     4  H    0.149438
     5  H    0.149562
     6  H    0.151141
     7  H    0.151128
     8  H    0.162951
     9  H    0.154983
    10  H    0.158555
    11  C   -0.298170
    12  C   -0.299589
    13  C   -0.475658
    14  H    0.149450
    15  H    0.149483
    16  H    0.151815
    17  H    0.151764
    18  H    0.155123
    19  H    0.155150
    20  H    0.160112
    21  C   -0.298192
    22  C   -0.300895
    23  C   -0.475472
    24  H    0.149719
    25  H    0.149346
    26  H    0.151529
    27  H    0.151347
    28  H    0.154554
    29  H    0.157668
    30  H    0.160655
    31  C   -0.298189
    32  C   -0.299609
    33  C   -0.475684
    34  H    0.149467
    35  H    0.149526
    36  H    0.151944
    37  H    0.151872
    38  H    0.155124
    39  H    0.155153
    40  H    0.160198
 Sum of Mulliken charges =  -0.00000

 Dipole moment (field-independent basis, Debye):
    X=              0.0214    Y=             -0.0001    Z=              0.0043  Tot=              0.0218
 Quadrupole moment (field-independent basis, Debye-Ang):
   XX=            -87.2609   YY=            -85.0757   ZZ=            -82.8035
   XY=              0.0774   XZ=             -0.2347   YZ=              0.3212

 Normal termination of Gaussian 16 at Thu May  6 05:15:25 2021.
