 Gaussian 16, Revision A.03,
 Gaussian 16:  EM64L-G16RevA.03 25-Dec-2016

 -------------
 #p 6-31g* mp2
 -------------

 ------------------------------------------------------
 Input file generated by CHIRIPA (05-May-2021 14:55:21)
 ------------------------------------------------------
 Symbolic Z-matrix:
 Charge =  0 Multiplicity = 1

                         Standard orientation:
 ---------------------------------------------------------------------
 Center     Atomic      Atomic             Coordinates (Angstroms)
 Number     Number       Type             X           Y           Z
 ---------------------------------------------------------------------
      1          6           0        6.125159    0.172654   -0.749140
      2          6           0        5.494030   -1.059543   -0.549420
      3          6           0        4.187060   -1.116172   -0.056297
      4          6           0        3.537871    0.084298    0.227806
      5          6           0        4.139781    1.327494    0.039501
      6          6           0        5.447215    1.360146   -0.454561
      7          1           0        7.140625    0.207333   -1.132575
      8          1           0        6.018101   -1.983368   -0.777325
      9          1           0        3.674726   -2.056397    0.107744
     10          1           0        3.591767    2.231508    0.275842
     11          1           0        5.934871    2.318523   -0.608679
     12          7           0        2.153995    0.037039    0.750351
     13          8           0        1.603668    1.108924    0.992918
     14          8           0        1.645843   -1.070994    0.907459
     15          6           0       -5.399050    0.351688   -0.349075
     16          6           0       -6.752467   -0.149279    0.156176
     17          6           0       -7.900160    0.800876   -0.187041
     18          1           0       -5.197994    1.342313    0.081253
     19          1           0       -5.449844    0.488455   -1.438161
     20          1           0       -6.698714   -0.286382    1.243802
     21          1           0       -6.950236   -1.138912   -0.275253
     22          1           0       -7.982491    0.929756   -1.271113
     23          1           0       -7.729540    1.787130    0.256574
     24          1           0       -8.858325    0.423381    0.183469
     25          6           0       -4.241784   -0.587431   -0.013637
     26          6           0       -2.888366   -0.086464   -0.518889
     27          6           0       -1.740674   -1.036619   -0.175671
     28          1           0       -4.190989   -0.724198    1.075449
     29          1           0       -4.442839   -1.578057   -0.443965
     30          1           0       -2.690597    0.903169   -0.087459
     31          1           0       -2.942119    0.050638   -1.606514
     32          1           0       -1.911293   -2.022873   -0.619286
     33          1           0       -1.658341   -1.165499    0.908401
     34          1           0       -0.782509   -0.659124   -0.546181
 ---------------------------------------------------------------------

 SCF Done:  E(RHF) =  -669.535727286     A.U. after   15 cycles
 E2 =    -0.2091118286D+01 EUMP2 =    -0.67162684557214D+03

 The electronic state is 1-A.
 Alpha  occ. eigenvalues --  -20.60916 -20.60901 -15.85937 -11.31281 -11.27845
 Alpha  occ. eigenvalues --  -11.27841 -11.27585 -11.26855 -11.26845 -11.20930
 Alpha  occ. eigenvalues --  -11.20557 -11.20519 -11.20340 -11.20236 -11.19246
 Alpha  occ. eigenvalues --   -1.59973  -1.39526  -1.19450  -1.08851  -1.07465
 Alpha  occ. eigenvalues --   -1.04848  -1.02466  -0.95692  -0.94886  -0.86248
 Alpha  occ. eigenvalues --   -0.85899  -0.82520  -0.78569  -0.77573  -0.77238
 Alpha  occ. eigenvalues --   -0.72149  -0.71300  -0.70557  -0.65103  -0.64851
 Alpha  occ. eigenvalues --   -0.64106  -0.62194  -0.59869  -0.58335  -0.56495
 Alpha  occ. eigenvalues --   -0.55352  -0.54188  -0.53183  -0.52939  -0.51581
 Alpha  occ. eigenvalues --   -0.51323  -0.49034  -0.48913  -0.48676  -0.46867
 Alpha  occ. eigenvalues --   -0.45627  -0.44938  -0.44774  -0.44682  -0.42670
 Alpha  occ. eigenvalues --   -0.37428  -0.36450
 Alpha virt. eigenvalues --    0.04930   0.11205   0.16427   0.21344   0.23758
 Alpha virt. eigenvalues --    0.25414   0.27259   0.27566   0.28214   0.28400
 Alpha virt. eigenvalues --    0.29147   0.30896   0.32418   0.32473   0.32649

 Mulliken charges:
               1
     1  C   -0.170611
     2  C   -0.218578
     3  C   -0.170873
     4  C    0.158815
     5  C   -0.170905
     6  C   -0.218587
     7  H    0.225943
     8  H    0.223813
     9  H    0.276042
    10  H    0.275798
    11  H    0.223766
    12  N    0.486737
    13  O   -0.459988
    14  O   -0.457294
    15  C   -0.297350
    16  C   -0.298901
    17  C   -0.475153
    18  H    0.149255
    19  H    0.147160
    20  H    0.151592
    21  H    0.150520
    22  H    0.153896
    23  H    0.154626
    24  H    0.158220
    25  C   -0.297512
    26  C   -0.301673
    27  C   -0.467912
    28  H    0.149661
    29  H    0.146448
    30  H    0.154424
    31  H    0.144642
    32  H    0.143963
    33  H    0.163013
    34  H    0.167001
 Sum of Mulliken charges =  -0.00000

 Dipole moment (field-independent basis, Debye):
    X=              5.2412    Y=              0.1741    Z=             -1.7333  Tot=              5.5232
 Quadrupole moment (field-independent basis, Debye-Ang):
   XX=            -63.0880   YY=            -89.9090   ZZ=            -95.8228
   XY=              1.4326   XZ=             -5.9346   YZ=              0.5803

 Normal termination of Gaussian 16 at Thu May  6 10:53:27 2021.
