 Gaussian 16, Revision A.03,
 Gaussian 16:  EM64L-G16RevA.03 25-Dec-2016

 -------------
 #p 6-31g* mp2
 -------------

 ------------------------------------------------------
 Input file generated by CHIRIPA (05-May-2021 14:55:25)
 ------------------------------------------------------
 Symbolic Z-matrix:
 Charge =  0 Multiplicity = 1

                         Standard orientation:
 ---------------------------------------------------------------------
 Center     Atomic      Atomic             Coordinates (Angstroms)
 Number     Number       Type             X           Y           Z
 ---------------------------------------------------------------------
      1          6           0        1.167285   -1.933018    0.870527
      2          6           0        2.218843   -2.452059    0.108067
      3          6           0        3.255583   -1.622406   -0.329417
      4          6           0        3.208766   -0.272503    0.015345
      5          6           0        2.174778    0.274447    0.773635
      6          6           0        1.148642   -0.573818    1.200296
      7          1           0        0.366040   -2.584742    1.206171
      8          1           0        2.235934   -3.507234   -0.149535
      9          1           0        4.081756   -1.997920   -0.920894
     10          1           0        2.185265    1.330491    1.014633
     11          1           0        0.333256   -0.167967    1.792306
     12          7           0        4.300703    0.615666   -0.442071
     13          8           0        4.236219    1.801392   -0.125002
     14          8           0        5.200372    0.109269   -1.109000
     15          6           0       -4.154781   -0.167748   -0.219543
     16          6           0       -5.681315   -0.211906   -0.295238
     17          6           0       -6.222241   -1.626940   -0.502293
     18          1           0       -3.735840   -0.590508   -1.142965
     19          1           0       -3.816490   -0.814452    0.601875
     20          1           0       -6.016700    0.435773   -1.115389
     21          1           0       -6.096671    0.211185    0.628390
     22          1           0       -5.916037   -2.280688    0.320784
     23          1           0       -5.835612   -2.054824   -1.432903
     24          1           0       -7.315477   -1.635328   -0.553509
     25          6           0       -3.598950    1.240091   -0.012732
     26          6           0       -2.072416    1.284248    0.062963
     27          6           0       -1.531491    2.699283    0.270017
     28          1           0       -3.937241    1.886795   -0.834150
     29          1           0       -4.017890    1.662850    0.910690
     30          1           0       -1.657061    0.861158   -0.860666
     31          1           0       -1.737031    0.636571    0.883113
     32          1           0       -1.918119    3.127167    1.200627
     33          1           0       -1.837693    3.353030   -0.553059
     34          1           0       -0.438254    2.707671    0.321235
 ---------------------------------------------------------------------

 SCF Done:  E(RHF) =  -669.535219319     A.U. after   15 cycles
 E2 =    -0.2091843489D+01 EUMP2 =    -0.67162706280822D+03

 The electronic state is 1-A.
 Alpha  occ. eigenvalues --  -20.60752 -20.60747 -15.85806 -11.31171 -11.27736
 Alpha  occ. eigenvalues --  -11.27732 -11.27470 -11.26757 -11.26726 -11.22318
 Alpha  occ. eigenvalues --  -11.22101 -11.22004 -11.21944 -11.21689 -11.21542
 Alpha  occ. eigenvalues --   -1.59828  -1.39381  -1.19341  -1.09033  -1.08734
 Alpha  occ. eigenvalues --   -1.04748  -1.04114  -0.96552  -0.95571  -0.87564
 Alpha  occ. eigenvalues --   -0.86145  -0.82406  -0.80188  -0.78854  -0.77448
 Alpha  occ. eigenvalues --   -0.72024  -0.71151  -0.70448  -0.65691  -0.64993
 Alpha  occ. eigenvalues --   -0.64750  -0.62164  -0.61472  -0.59911  -0.58165
 Alpha  occ. eigenvalues --   -0.55832  -0.55239  -0.53260  -0.53053  -0.52991
 Alpha  occ. eigenvalues --   -0.52832  -0.50482  -0.48795  -0.48779  -0.48475
 Alpha  occ. eigenvalues --   -0.47211  -0.46379  -0.46305  -0.44787  -0.44370
 Alpha  occ. eigenvalues --   -0.37311  -0.36325
 Alpha virt. eigenvalues --    0.05063   0.11255   0.16496   0.19835   0.22592
 Alpha virt. eigenvalues --    0.23758   0.25385   0.26043   0.26588   0.28293
 Alpha virt. eigenvalues --    0.28667   0.29582   0.31090   0.31427   0.32056

 Mulliken charges:
               1
     1  C   -0.172023
     2  C   -0.218503
     3  C   -0.171086
     4  C    0.158806
     5  C   -0.174044
     6  C   -0.215913
     7  H    0.225553
     8  H    0.223359
     9  H    0.275492
    10  H    0.276010
    11  H    0.226564
    12  N    0.488071
    13  O   -0.460474
    14  O   -0.460497
    15  C   -0.297813
    16  C   -0.300014
    17  C   -0.475917
    18  H    0.150734
    19  H    0.144562
    20  H    0.153982
    21  H    0.152675
    22  H    0.153750
    23  H    0.155622
    24  H    0.162148
    25  C   -0.298637
    26  C   -0.300309
    27  C   -0.477948
    28  H    0.152893
    29  H    0.150239
    30  H    0.157159
    31  H    0.140232
    32  H    0.155704
    33  H    0.161161
    34  H    0.158461
 Sum of Mulliken charges =  -0.00000

 Dipole moment (field-independent basis, Debye):
    X=             -3.9688    Y=             -3.0843    Z=              1.5225  Tot=              5.2519
 Quadrupole moment (field-independent basis, Debye-Ang):
   XX=           -119.0158   YY=            -90.9785   ZZ=            -93.3732
   XY=            -11.7395   XZ=              4.0740   YZ=              1.1473

 Normal termination of Gaussian 16 at Wed May  5 20:48:09 2021.
