 Gaussian 16, Revision A.03,
 Gaussian 16:  EM64L-G16RevA.03 25-Dec-2016

 -------------
 #p 6-31g* mp2
 -------------

 ------------------------------------------------------
 Input file generated by CHIRIPA (05-May-2021 14:51:10)
 ------------------------------------------------------
 Symbolic Z-matrix:
 Charge =  0 Multiplicity = 1

                         Standard orientation:
 ---------------------------------------------------------------------
 Center     Atomic      Atomic             Coordinates (Angstroms)
 Number     Number       Type             X           Y           Z
 ---------------------------------------------------------------------
      1          6           0       -4.110358    0.734289   -0.193296
      2          6           0       -2.727300    1.182583    0.280169
      3          6           0       -2.417884    2.633804   -0.088632
      4          1           0       -4.176271    0.859284   -1.282781
      5          1           0       -4.871827    1.395001    0.243761
      6          1           0       -1.968768    0.520371   -0.156548
      7          1           0       -2.664605    1.056326    1.368628
      8          1           0       -3.152752    3.310284    0.359636
      9          1           0       -2.452961    2.771283   -1.174206
     10          1           0       -1.424398    2.933393    0.259352
     11          6           0       -4.434263   -0.714265    0.167958
     12          6           0       -5.817320   -1.162559   -0.305507
     13          6           0       -6.126737   -2.613779    0.063294
     14          1           0       -3.672793   -1.374976   -0.269100
     15          1           0       -4.368349   -0.839260    1.257442
     16          1           0       -5.880015   -1.036302   -1.393967
     17          1           0       -6.575852   -0.500347    0.131210
     18          1           0       -6.091659   -2.751259    1.148868
     19          1           0       -5.391869   -3.290259   -0.384975
     20          1           0       -7.120222   -2.913369   -0.284690
     21          6           0        4.681349   -0.608606    0.253092
     22          6           0        6.035066   -0.738083   -0.445960
     23          6           0        6.841709   -1.940309    0.045743
     24          1           0        4.841868   -0.525828    1.336757
     25          1           0        4.103826   -1.529445    0.092100
     26          1           0        6.609314    0.183275   -0.284859
     27          1           0        5.871315   -0.820371   -1.528102
     28          1           0        6.292112   -2.870770   -0.129723
     29          1           0        7.034305   -1.861422    1.120584
     30          1           0        7.805752   -2.013834   -0.467166
     31          6           0        3.863270    0.588583   -0.227755
     32          6           0        2.509555    0.718058    0.471298
     33          6           0        1.702912    1.920285   -0.020405
     34          1           0        4.440794    1.509420   -0.066761
     35          1           0        3.702752    0.505804   -1.311418
     36          1           0        2.673305    0.800346    1.553441
     37          1           0        1.935305   -0.203300    0.310198
     38          1           0        1.510315    1.841398   -1.095245
     39          1           0        2.252508    2.850746    0.155062
     40          1           0        0.738869    1.993810    0.492504
 ---------------------------------------------------------------------

 SCF Done:  E(RHF) =  -470.733210304     A.U. after   11 cycles
 E2 =    -0.1582334725D+01 EUMP2 =    -0.47231554502875D+03

 The electronic state is 1-A.
 Alpha  occ. eigenvalues --  -11.21603 -11.21601 -11.21598 -11.21586 -11.21406
 Alpha  occ. eigenvalues --  -11.21398 -11.21346 -11.21339 -11.21072 -11.21070
 Alpha  occ. eigenvalues --  -11.21057 -11.21009  -1.08434  -1.08418  -1.03549
 Alpha  occ. eigenvalues --   -1.03498  -0.96023  -0.95924  -0.87050  -0.86930
 Alpha  occ. eigenvalues --   -0.79609  -0.79563  -0.78242  -0.78234  -0.65068
 Alpha  occ. eigenvalues --   -0.65044  -0.60952  -0.60889  -0.59666  -0.59114
 Alpha  occ. eigenvalues --   -0.57752  -0.57395  -0.55288  -0.55222  -0.52972
 Alpha  occ. eigenvalues --   -0.52517  -0.52435  -0.52167  -0.49925  -0.49895
 Alpha  occ. eigenvalues --   -0.47950  -0.47852  -0.46626  -0.46611  -0.45785
 Alpha  occ. eigenvalues --   -0.45775  -0.45711  -0.45699  -0.43917  -0.43617
 Alpha virt. eigenvalues --    0.21750   0.23045   0.23398   0.25041   0.26534
 Alpha virt. eigenvalues --    0.26751   0.26799   0.27400   0.27678   0.28863
 Alpha virt. eigenvalues --    0.30154   0.31291   0.31535   0.31686   0.32094

 Mulliken charges:
               1
     1  C   -0.298201
     2  C   -0.300540
     3  C   -0.480032
     4  H    0.149680
     5  H    0.149610
     6  H    0.152636
     7  H    0.151468
     8  H    0.154834
     9  H    0.155252
    10  H    0.164880
    11  C   -0.298260
    12  C   -0.299656
    13  C   -0.475695
    14  H    0.149383
    15  H    0.149638
    16  H    0.151921
    17  H    0.151954
    18  H    0.155184
    19  H    0.155119
    20  H    0.160246
    21  C   -0.298219
    22  C   -0.299622
    23  C   -0.475698
    24  H    0.149671
    25  H    0.149486
    26  H    0.151945
    27  H    0.151908
    28  H    0.155168
    29  H    0.155193
    30  H    0.160252
    31  C   -0.298601
    32  C   -0.299245
    33  C   -0.481569
    34  H    0.149556
    35  H    0.149563
    36  H    0.151911
    37  H    0.151907
    38  H    0.155371
    39  H    0.155056
    40  H    0.166543
 Sum of Mulliken charges =  -0.00000

 Dipole moment (field-independent basis, Debye):
    X=              0.0073    Y=              0.0059    Z=             -0.0001  Tot=              0.0094
 Quadrupole moment (field-independent basis, Debye-Ang):
   XX=            -85.1525   YY=            -86.1102   ZZ=            -83.5516
   XY=              0.3405   XZ=             -0.1397   YZ=              1.1293

 Normal termination of Gaussian 16 at Wed May  5 19:46:51 2021.
