 Gaussian 16, Revision A.03,
 Gaussian 16:  EM64L-G16RevA.03 25-Dec-2016

 -------------
 #p 6-31g* mp2
 -------------

 ------------------------------------------------------
 Input file generated by CHIRIPA (05-May-2021 14:55:18)
 ------------------------------------------------------
 Symbolic Z-matrix:
 Charge =  0 Multiplicity = 1

                         Standard orientation:
 ---------------------------------------------------------------------
 Center     Atomic      Atomic             Coordinates (Angstroms)
 Number     Number       Type             X           Y           Z
 ---------------------------------------------------------------------
      1          6           0        0.713825   -2.333138    1.037931
      2          6           0        1.238387   -2.509412   -0.246702
      3          6           0        2.101062   -1.557445   -0.798153
      4          6           0        2.419456   -0.436082   -0.033653
      5          6           0        1.913080   -0.232052    1.249019
      6          6           0        1.052249   -1.197024    1.780383
      7          1           0        0.044394   -3.077700    1.458509
      8          1           0        0.977300   -3.390755   -0.825592
      9          1           0        2.521507   -1.668848   -1.790239
     10          1           0        2.191655    0.656821    1.801937
     11          1           0        0.646371   -1.057500    2.778301
     12          7           0        3.331755    0.578606   -0.606816
     13          8           0        3.596802    1.557827    0.087096
     14          8           0        3.764495    0.375485   -1.739122
     15          6           0       -3.654169    0.660147   -0.171543
     16          6           0       -4.019096   -0.798432   -0.449680
     17          6           0       -5.522469   -1.006701   -0.634843
     18          1           0       -4.186300    0.999549    0.727673
     19          1           0       -4.012402    1.285103   -1.001298
     20          1           0       -3.659061   -1.420630    0.379695
     21          1           0       -3.485886   -1.134459   -1.348228
     22          1           0       -5.893445   -0.410343   -1.474687
     23          1           0       -6.067604   -0.698141    0.263054
     24          1           0       -5.760999   -2.056395   -0.832595
     25          6           0       -2.154721    0.884340    0.015864
     26          6           0       -1.789793    2.342919    0.294002
     27          6           0       -0.286420    2.551187    0.479165
     28          1           0       -1.796487    0.259383    0.845620
     29          1           0       -1.622590    0.544938   -0.883351
     30          1           0       -2.323004    2.678944    1.192550
     31          1           0       -2.149829    2.965116   -0.535372
     32          1           0        0.258714    2.242627   -0.418733
     33          1           0        0.084555    1.954830    1.319008
     34          1           0       -0.047890    3.600881    0.676916
 ---------------------------------------------------------------------

 SCF Done:  E(RHF) =  -669.534507193     A.U. after   15 cycles
 E2 =    -0.2093902335D+01 EUMP2 =    -0.67162840952807D+03

 The electronic state is 1-A.
 Alpha  occ. eigenvalues --  -20.60780 -20.60757 -15.85818 -11.31166 -11.27776
 Alpha  occ. eigenvalues --  -11.27759 -11.27527 -11.26773 -11.26758 -11.21976
 Alpha  occ. eigenvalues --  -11.21660 -11.21622 -11.21505 -11.21402 -11.21007
 Alpha  occ. eigenvalues --   -1.59842  -1.39395  -1.19369  -1.08760  -1.08633
 Alpha  occ. eigenvalues --   -1.04787  -1.03715  -0.96157  -0.95591  -0.87178
 Alpha  occ. eigenvalues --   -0.86166  -0.82432  -0.79800  -0.78448  -0.77469
 Alpha  occ. eigenvalues --   -0.72039  -0.71166  -0.70490  -0.65277  -0.65025
 Alpha  occ. eigenvalues --   -0.64789  -0.62158  -0.61113  -0.59528  -0.57776
 Alpha  occ. eigenvalues --   -0.55465  -0.55269  -0.53198  -0.52924  -0.52802
 Alpha  occ. eigenvalues --   -0.52495  -0.50102  -0.48798  -0.48792  -0.48092
 Alpha  occ. eigenvalues --   -0.46847  -0.45960  -0.45922  -0.44778  -0.43955
 Alpha  occ. eigenvalues --   -0.37319  -0.36286
 Alpha virt. eigenvalues --    0.05038   0.11216   0.16455   0.20983   0.22745
 Alpha virt. eigenvalues --    0.24063   0.26066   0.26709   0.27133   0.28047
 Alpha virt. eigenvalues --    0.28483   0.30638   0.31331   0.31617   0.31908

 Mulliken charges:
               1
     1  C   -0.169023
     2  C   -0.218584
     3  C   -0.171462
     4  C    0.157790
     5  C   -0.166285
     6  C   -0.218920
     7  H    0.225746
     8  H    0.223427
     9  H    0.275550
    10  H    0.276586
    11  H    0.222915
    12  N    0.488097
    13  O   -0.459432
    14  O   -0.460949
    15  C   -0.298368
    16  C   -0.298237
    17  C   -0.475607
    18  H    0.148938
    19  H    0.151260
    20  H    0.146209
    21  H    0.151639
    22  H    0.157017
    23  H    0.155445
    24  H    0.159126
    25  C   -0.298448
    26  C   -0.301049
    27  C   -0.471733
    28  H    0.145853
    29  H    0.150911
    30  H    0.149820
    31  H    0.153664
    32  H    0.157779
    33  H    0.145860
    34  H    0.164463
 Sum of Mulliken charges =  -0.00000

 Dipole moment (field-independent basis, Debye):
    X=             -3.1450    Y=             -3.5264    Z=              1.9728  Tot=              5.1204
 Quadrupole moment (field-independent basis, Debye-Ang):
   XX=           -112.3802   YY=            -90.5649   ZZ=            -90.6739
   XY=             -7.8408   XZ=              4.5374   YZ=              1.5354

 Normal termination of Gaussian 16 at Thu May  6 15:42:27 2021.
