 Gaussian 16, Revision A.03,
 Gaussian 16:  EM64L-G16RevA.03 25-Dec-2016

 -------------
 #p 6-31g* mp2
 -------------

 ------------------------------------------------------
 Input file generated by CHIRIPA (05-May-2021 14:57:23)
 ------------------------------------------------------
 Symbolic Z-matrix:
 Charge =  0 Multiplicity = 1

                         Standard orientation:
 ---------------------------------------------------------------------
 Center     Atomic      Atomic             Coordinates (Angstroms)
 Number     Number       Type             X           Y           Z
 ---------------------------------------------------------------------
      1          6           0        6.756562   -0.339148    0.421692
      2          6           0        6.316325    0.077596   -0.838878
      3          6           0        4.950572    0.214224   -1.104582
      4          6           0        4.048584   -0.075592   -0.081980
      5          6           0        4.456056   -0.492852    1.184176
      6          6           0        5.826662   -0.622542    1.427423
      7          1           0        7.819396   -0.442589    0.619375
      8          1           0        7.036232    0.298374   -1.621844
      9          1           0        4.582272    0.535046   -2.071457
     10          1           0        3.714545   -0.705660    1.944631
     11          1           0        6.165675   -0.946380    2.407343
     12          7           0        2.600154    0.065378   -0.351381
     13          8           0        1.825656   -0.196091    0.566455
     14          8           0        2.266798    0.434669   -1.475274
     15          6           0       -2.621429    1.984381    0.225900
     16          6           0       -2.189141    0.700606   -0.122769
     17          6           0       -3.103314   -0.351690   -0.230052
     18          6           0       -4.448354   -0.083463    0.019373
     19          6           0       -4.909973    1.184682    0.368666
     20          6           0       -3.978073    2.221903    0.470075
     21          1           0       -1.904393    2.795975    0.306959
     22          1           0       -1.136166    0.513223   -0.312966
     23          1           0       -2.795934   -1.355173   -0.498299
     24          1           0       -5.966081    1.340700    0.552272
     25          1           0       -4.316653    3.217891    0.741032
     26          7           0       -5.425531   -1.189502   -0.091093
     27          8           0       -6.605067   -0.927213    0.133709
     28          8           0       -4.993403   -2.297762   -0.400388
 ---------------------------------------------------------------------

 SCF Done:  E(RHF) =  -868.341228240     A.U. after   16 cycles
 E2 =    -0.2598387605D+01 EUMP2 =    -0.87093961584478D+03

 The electronic state is 1-A.
 Alpha  occ. eigenvalues --  -20.61899 -20.61886 -20.59881 -20.59870 -15.86868
 Alpha  occ. eigenvalues --  -15.84918 -11.31909 -11.30067 -11.28431 -11.28427
 Alpha  occ. eigenvalues --  -11.28113 -11.27370 -11.27360 -11.26641 -11.26475
 Alpha  occ. eigenvalues --  -11.26228 -11.25656 -11.25260  -1.60937  -1.58957
 Alpha  occ. eigenvalues --   -1.40494  -1.38517  -1.20047  -1.18184  -1.09507
 Alpha  occ. eigenvalues --   -1.07618  -1.05396  -1.03523  -0.96395  -0.94502
 Alpha  occ. eigenvalues --   -0.86810  -0.84926  -0.83236  -0.81321  -0.78321
 Alpha  occ. eigenvalues --   -0.76399  -0.73095  -0.72220  -0.71148  -0.71143
 Alpha  occ. eigenvalues --   -0.70276  -0.69300  -0.65700  -0.65395  -0.63819
 Alpha  occ. eigenvalues --   -0.63468  -0.62744  -0.60849  -0.55911  -0.54039
 Alpha  occ. eigenvalues --   -0.53745  -0.53481  -0.51906  -0.51589  -0.49869
 Alpha  occ. eigenvalues --   -0.49831  -0.47911  -0.47872  -0.45965  -0.43971
 Alpha  occ. eigenvalues --   -0.38007  -0.36983  -0.36168  -0.35123
 Alpha virt. eigenvalues --    0.04191   0.06075   0.10677   0.12525   0.15758
 Alpha virt. eigenvalues --    0.17646   0.20856   0.22785   0.26795   0.27716
 Alpha virt. eigenvalues --    0.28855   0.29466   0.30458   0.31928   0.32433

 Mulliken charges:
               1
     1  C   -0.169526
     2  C   -0.218623
     3  C   -0.170366
     4  C    0.157564
     5  C   -0.170398
     6  C   -0.218594
     7  H    0.228182
     8  H    0.225685
     9  H    0.276299
    10  H    0.276433
    11  H    0.225858
    12  N    0.489144
    13  O   -0.464943
    14  O   -0.461331
    15  C   -0.173181
    16  C   -0.225989
    17  C   -0.174167
    18  C    0.158097
    19  C   -0.174024
    20  C   -0.218746
    21  H    0.224783
    22  H    0.251175
    23  H    0.275100
    24  H    0.271220
    25  H    0.218518
    26  N    0.488097
    27  O   -0.464199
    28  O   -0.462068
 Sum of Mulliken charges =  -0.00000

 Dipole moment (field-independent basis, Debye):
    X=              9.2853    Y=              3.3564    Z=              1.3121  Tot=              9.9601
 Quadrupole moment (field-independent basis, Debye-Ang):
   XX=            -92.4397   YY=           -104.5141   ZZ=           -101.0884
   XY=            -22.3762   XZ=             -0.1131   YZ=             -0.7979

 Normal termination of Gaussian 16 at Thu May  6 04:58:56 2021.
