 Gaussian 16, Revision A.03,
 Gaussian 16:  EM64L-G16RevA.03 25-Dec-2016

 -------------
 #p 6-31g* mp2
 -------------

 ------------------------------------------------------
 Input file generated by CHIRIPA (05-May-2021 14:57:27)
 ------------------------------------------------------
 Symbolic Z-matrix:
 Charge =  0 Multiplicity = 1

                         Standard orientation:
 ---------------------------------------------------------------------
 Center     Atomic      Atomic             Coordinates (Angstroms)
 Number     Number       Type             X           Y           Z
 ---------------------------------------------------------------------
      1          6           0       -2.980188    2.441921    0.402325
      2          6           0       -4.340824    2.202765    0.621407
      3          6           0       -4.877936    0.926887    0.425974
      4          6           0       -4.021753   -0.091246    0.009265
      5          6           0       -2.661915    0.115550   -0.217377
      6          6           0       -2.146546    1.399389   -0.015631
      7          1           0       -2.571392    3.436146    0.556595
      8          1           0       -4.990609    3.010507    0.946024
      9          1           0       -5.927585    0.713962    0.588199
     10          1           0       -2.039130   -0.709693   -0.540689
     11          1           0       -1.089470    1.582209   -0.186546
     12          7           0       -4.578860   -1.446174   -0.200973
     13          8           0       -3.803494   -2.326227   -0.568331
     14          8           0       -5.780337   -1.602459    0.005582
     15          6           0        6.418821    0.026861    0.338328
     16          6           0        5.800819    0.856481   -0.603120
     17          6           0        4.422483    0.777080   -0.823194
     18          6           0        3.689319   -0.147427   -0.080869
     19          6           0        4.276023   -0.987656    0.864162
     20          6           0        5.655796   -0.890941    1.067679
     21          1           0        7.490105    0.095266    0.502856
     22          1           0        6.390891    1.570190   -1.170992
     23          1           0        3.918433    1.407291   -1.545819
     24          1           0        3.661439   -1.689296    1.414987
     25          1           0        6.133060   -1.536497    1.799472
     26          7           0        2.229375   -0.240650   -0.305087
     27          8           0        1.605719   -1.063434    0.361783
     28          8           0        1.736371    0.510833   -1.143454
 ---------------------------------------------------------------------

 SCF Done:  E(RHF) =  -868.340686382     A.U. after   16 cycles
 E2 =    -0.2598496291D+01 EUMP2 =    -0.87093918267311D+03

 The electronic state is 1-A.
 Alpha  occ. eigenvalues --  -20.61730 -20.61698 -20.59737 -20.59713 -15.86708
 Alpha  occ. eigenvalues --  -15.84771 -11.31788 -11.29963 -11.28334 -11.28301
 Alpha  occ. eigenvalues --  -11.28012 -11.27276 -11.27253 -11.26603 -11.26333
 Alpha  occ. eigenvalues --  -11.26275 -11.25633 -11.25288  -1.60767  -1.58808
 Alpha  occ. eigenvalues --   -1.40323  -1.38363  -1.19933  -1.18123  -1.09385
 Alpha  occ. eigenvalues --   -1.07573  -1.05290  -1.03461  -0.96265  -0.94429
 Alpha  occ. eigenvalues --   -0.86702  -0.84889  -0.83104  -0.81235  -0.78184
 Alpha  occ. eigenvalues --   -0.76288  -0.72933  -0.72056  -0.71036  -0.70997
 Alpha  occ. eigenvalues --   -0.70128  -0.69261  -0.65587  -0.65290  -0.63766
 Alpha  occ. eigenvalues --   -0.63443  -0.62637  -0.60778  -0.55804  -0.54047
 Alpha  occ. eigenvalues --   -0.53637  -0.53376  -0.51861  -0.51529  -0.49707
 Alpha  occ. eigenvalues --   -0.49684  -0.47758  -0.47736  -0.45781  -0.43805
 Alpha  occ. eigenvalues --   -0.37897  -0.36879  -0.36158  -0.35064
 Alpha virt. eigenvalues --    0.04306   0.06186   0.10780   0.12565   0.15856
 Alpha virt. eigenvalues --    0.17706   0.20949   0.22752   0.26887   0.27794
 Alpha virt. eigenvalues --    0.28829   0.29532   0.30571   0.31984   0.32320

 Mulliken charges:
               1
     1  C   -0.172606
     2  C   -0.219188
     3  C   -0.173374
     4  C    0.157118
     5  C   -0.172187
     6  C   -0.225372
     7  H    0.220776
     8  H    0.218010
     9  H    0.271208
    10  H    0.286907
    11  H    0.241094
    12  N    0.487895
    13  O   -0.459144
    14  O   -0.465562
    15  C   -0.169687
    16  C   -0.218619
    17  C   -0.170765
    18  C    0.157599
    19  C   -0.170142
    20  C   -0.218638
    21  H    0.227785
    22  H    0.224979
    23  H    0.275034
    24  H    0.277753
    25  H    0.225913
    26  N    0.488980
    27  O   -0.457445
    28  O   -0.468322
 Sum of Mulliken charges =  -0.00000

 Dipole moment (field-independent basis, Debye):
    X=              7.7762    Y=              4.9492    Z=              1.5201  Tot=              9.3420
 Quadrupole moment (field-independent basis, Debye-Ang):
   XX=            -79.9332   YY=           -103.9582   ZZ=           -103.4908
   XY=            -20.2412   XZ=             -1.6084   YZ=             -2.7369

 Normal termination of Gaussian 16 at Thu May  6 13:10:43 2021.
