 Gaussian 16, Revision A.03,
 Gaussian 16:  EM64L-G16RevA.03 25-Dec-2016

 -------------
 #p 6-31g* mp2
 -------------

 ------------------------------------------------------
 Input file generated by CHIRIPA (05-May-2021 14:55:22)
 ------------------------------------------------------
 Symbolic Z-matrix:
 Charge =  0 Multiplicity = 1

                         Standard orientation:
 ---------------------------------------------------------------------
 Center     Atomic      Atomic             Coordinates (Angstroms)
 Number     Number       Type             X           Y           Z
 ---------------------------------------------------------------------
      1          6           0        4.765996    0.939154    0.756858
      2          6           0        4.832296   -0.441056    0.539729
      3          6           0        3.723370   -1.136650    0.048832
      4          6           0        2.558896   -0.417265   -0.215318
      5          6           0        2.461678    0.958025   -0.009366
      6          6           0        3.582984    1.633066    0.482102
      7          1           0        5.632244    1.471525    1.138421
      8          1           0        5.749726   -0.982549    0.752220
      9          1           0        3.747202   -2.205028   -0.128421
     10          1           0        1.533310    1.470501   -0.230540
     11          1           0        3.528612    2.704969    0.649768
     12          7           0        1.378372   -1.142780   -0.735311
     13          8           0        0.364144   -0.485944   -0.960131
     14          8           0        1.489660   -2.354538   -0.908215
     15          6           0       -3.991205   -0.205635    0.019760
     16          6           0       -3.684453   -1.447732    0.857067
     17          6           0       -4.626726   -2.612916    0.553321
     18          1           0       -5.029606    0.103798    0.201196
     19          1           0       -3.923894   -0.464607   -1.045977
     20          1           0       -3.750965   -1.186155    1.920914
     21          1           0       -2.646601   -1.754131    0.673764
     22          1           0       -4.554708   -2.902046   -0.500157
     23          1           0       -5.665346   -2.330844    0.754079
     24          1           0       -4.389594   -3.490413    1.162934
     25          6           0       -3.057654    0.967725    0.312059
     26          6           0       -3.364406    2.209822   -0.525248
     27          6           0       -2.422131    3.375006   -0.221502
     28          1           0       -3.124963    1.226697    1.377796
     29          1           0       -2.019252    0.658292    0.130623
     30          1           0       -4.402257    2.516221   -0.341945
     31          1           0       -3.297893    1.948245   -1.589095
     32          1           0       -1.383511    3.092934   -0.422260
     33          1           0       -2.494150    3.664138    0.831977
     34          1           0       -2.659264    4.252503   -0.831115
 ---------------------------------------------------------------------

 SCF Done:  E(RHF) =  -669.536502385     A.U. after   15 cycles
 E2 =    -0.2091351804D+01 EUMP2 =    -0.67162785418890D+03

 The electronic state is 1-A.
 Alpha  occ. eigenvalues --  -20.61027 -20.61015 -15.86053 -11.31327 -11.27888
 Alpha  occ. eigenvalues --  -11.27883 -11.27616 -11.26884 -11.26873 -11.20876
 Alpha  occ. eigenvalues --  -11.20694 -11.20512 -11.20349 -11.20268 -11.20141
 Alpha  occ. eigenvalues --   -1.60080  -1.39638  -1.19492  -1.08905  -1.07463
 Alpha  occ. eigenvalues --   -1.04882  -1.02693  -0.95755  -0.95160  -0.86285
 Alpha  occ. eigenvalues --   -0.86191  -0.82592  -0.78757  -0.77661  -0.77246
 Alpha  occ. eigenvalues --   -0.72281  -0.71388  -0.70602  -0.65153  -0.64885
 Alpha  occ. eigenvalues --   -0.64056  -0.62231  -0.60081  -0.58548  -0.56770
 Alpha  occ. eigenvalues --   -0.55389  -0.54442  -0.53215  -0.52973  -0.51906
 Alpha  occ. eigenvalues --   -0.51611  -0.49135  -0.49035  -0.49010  -0.47088
 Alpha  occ. eigenvalues --   -0.45755  -0.45197  -0.44809  -0.44504  -0.42900
 Alpha  occ. eigenvalues --   -0.37468  -0.36480
 Alpha virt. eigenvalues --    0.04848   0.11174   0.16327   0.20568   0.23321
 Alpha virt. eigenvalues --    0.24548   0.26229   0.27489   0.27968   0.28861
 Alpha virt. eigenvalues --    0.29184   0.30615   0.31495   0.32339   0.32764

 Mulliken charges:
               1
     1  C   -0.170385
     2  C   -0.218651
     3  C   -0.170551
     4  C    0.157653
     5  C   -0.171404
     6  C   -0.218903
     7  H    0.226195
     8  H    0.223936
     9  H    0.275847
    10  H    0.276900
    11  H    0.224441
    12  N    0.492537
    13  O   -0.465562
    14  O   -0.458440
    15  C   -0.296016
    16  C   -0.302653
    17  C   -0.475163
    18  H    0.143736
    19  H    0.153286
    20  H    0.145965
    21  H    0.164907
    22  H    0.157067
    23  H    0.150880
    24  H    0.157942
    25  C   -0.310176
    26  C   -0.297923
    27  C   -0.474925
    28  H    0.141949
    29  H    0.173874
    30  H    0.148662
    31  H    0.154717
    32  H    0.150276
    33  H    0.152222
    34  H    0.157760
 Sum of Mulliken charges =  -0.00000

 Dipole moment (field-independent basis, Debye):
    X=              4.4483    Y=              2.4098    Z=              1.7339  Tot=              5.3479
 Quadrupole moment (field-independent basis, Debye-Ang):
   XX=            -73.3646   YY=            -94.6583   ZZ=            -96.0649
   XY=              1.8249   XZ=              3.9553   YZ=             -1.1858

 Normal termination of Gaussian 16 at Wed May  5 20:39:01 2021.
