 Gaussian 16, Revision A.03,
 Gaussian 16:  EM64L-G16RevA.03 25-Dec-2016

 -------------
 #p 6-31g* mp2
 -------------

 ------------------------------------------------------
 Input file generated by CHIRIPA (05-May-2021 14:51:12)
 ------------------------------------------------------
 Symbolic Z-matrix:
 Charge =  0 Multiplicity = 1

                         Standard orientation:
 ---------------------------------------------------------------------
 Center     Atomic      Atomic             Coordinates (Angstroms)
 Number     Number       Type             X           Y           Z
 ---------------------------------------------------------------------
      1          6           0       -2.224131   -0.568073    0.292507
      2          6           0       -1.748697   -1.747538    1.141512
      3          6           0       -0.237983   -1.735528    1.376871
      4          1           0       -1.700972   -0.585338   -0.673388
      5          1           0       -1.936591    0.370116    0.786994
      6          1           0       -2.038264   -2.683216    0.646261
      7          1           0       -2.273189   -1.727574    2.105424
      8          1           0        0.064340   -0.818096    1.892157
      9          1           0        0.300600   -1.779168    0.424703
     10          1           0        0.080214   -2.587348    1.985979
     11          6           0       -3.732171   -0.566224    0.048501
     12          6           0       -4.207605    0.613241   -0.800504
     13          6           0       -5.718318    0.601230   -1.035863
     14          1           0       -4.019711   -1.504413   -0.445986
     15          1           0       -4.255329   -0.548960    1.014396
     16          1           0       -3.683113    0.593276   -1.764416
     17          1           0       -3.918038    1.548918   -0.305253
     18          1           0       -6.256902    0.644870   -0.083695
     19          1           0       -6.020642   -0.316202   -1.551149
     20          1           0       -6.036516    1.453050   -1.644971
     21          6           0        2.442351    0.969769    0.195893
     22          6           0        2.596091    2.481306    0.023831
     23          6           0        1.516810    3.273184    0.762665
     24          1           0        1.450393    0.665094   -0.164854
     25          1           0        2.474517    0.724477    1.266497
     26          1           0        2.565031    2.723523   -1.046207
     27          1           0        3.587871    2.782390    0.384853
     28          1           0        1.549970    3.060646    1.836131
     29          1           0        0.521318    3.001445    0.396940
     30          1           0        1.645737    4.351426    0.626161
     31          6           0        3.513951    0.164529   -0.536902
     32          6           0        3.360210   -1.347008   -0.364839
     33          6           0        4.439491   -2.138887   -1.103672
     34          1           0        3.481785    0.409821   -1.607504
     35          1           0        4.505909    0.469203   -0.176154
     36          1           0        2.368431   -1.648092   -0.725860
     37          1           0        3.391270   -1.589225    0.705200
     38          1           0        5.434983   -1.867147   -0.737947
     39          1           0        4.406332   -1.926349   -2.177138
     40          1           0        4.310564   -3.217128   -0.967169
 ---------------------------------------------------------------------

 SCF Done:  E(RHF) =  -470.732600169     A.U. after   11 cycles
 E2 =    -0.1583877528D+01 EUMP2 =    -0.47231647769659D+03

 The electronic state is 1-A.
 Alpha  occ. eigenvalues --  -11.21613 -11.21560 -11.21558 -11.21544 -11.21415
 Alpha  occ. eigenvalues --  -11.21356 -11.21347 -11.21271 -11.21078 -11.21058
 Alpha  occ. eigenvalues --  -11.21039 -11.20931  -1.08439  -1.08373  -1.03516
 Alpha  occ. eigenvalues --   -1.03487  -0.95974  -0.95927  -0.86981  -0.86958
 Alpha  occ. eigenvalues --   -0.79638  -0.79532  -0.78351  -0.78060  -0.65096
 Alpha  occ. eigenvalues --   -0.64989  -0.60975  -0.60837  -0.59345  -0.59301
 Alpha  occ. eigenvalues --   -0.57655  -0.57478  -0.55254  -0.55230  -0.52711
 Alpha  occ. eigenvalues --   -0.52635  -0.52399  -0.52321  -0.49969  -0.49847
 Alpha  occ. eigenvalues --   -0.48006  -0.47864  -0.46711  -0.46499  -0.46051
 Alpha  occ. eigenvalues --   -0.45749  -0.45601  -0.45230  -0.43769  -0.43737
 Alpha virt. eigenvalues --    0.21336   0.23129   0.23733   0.24063   0.25700
 Alpha virt. eigenvalues --    0.26042   0.26580   0.27648   0.28333   0.29800
 Alpha virt. eigenvalues --    0.30287   0.31072   0.31595   0.31976   0.32122

 Mulliken charges:
               1
     1  C   -0.299142
     2  C   -0.300031
     3  C   -0.480607
     4  H    0.148457
     5  H    0.150183
     6  H    0.151388
     7  H    0.151568
     8  H    0.157690
     9  H    0.160722
    10  H    0.159016
    11  C   -0.298155
    12  C   -0.299699
    13  C   -0.475700
    14  H    0.149567
    15  H    0.149922
    16  H    0.151633
    17  H    0.151979
    18  H    0.155289
    19  H    0.155181
    20  H    0.160274
    21  C   -0.300974
    22  C   -0.299505
    23  C   -0.476242
    24  H    0.153897
    25  H    0.150010
    26  H    0.151645
    27  H    0.151631
    28  H    0.154585
    29  H    0.155553
    30  H    0.160231
    31  C   -0.298477
    32  C   -0.302383
    33  C   -0.475321
    34  H    0.148840
    35  H    0.149315
    36  H    0.154337
    37  H    0.153431
    38  H    0.155055
    39  H    0.154723
    40  H    0.160111
 Sum of Mulliken charges =  -0.00000

 Dipole moment (field-independent basis, Debye):
    X=              0.0066    Y=             -0.0090    Z=              0.0109  Tot=              0.0156
 Quadrupole moment (field-independent basis, Debye-Ang):
   XX=            -86.1638   YY=            -85.0971   ZZ=            -83.6789
   XY=              0.5317   XZ=              0.4993   YZ=              0.2019

 Normal termination of Gaussian 16 at Thu May  6 03:56:10 2021.
