 Gaussian 16, Revision A.03,
 Gaussian 16:  EM64L-G16RevA.03 25-Dec-2016

 -------------
 #p 6-31g* mp2
 -------------

 ------------------------------------------------------
 Input file generated by CHIRIPA (05-May-2021 14:53:17)
 ------------------------------------------------------
 Symbolic Z-matrix:
 Charge =  0 Multiplicity = 1

                         Standard orientation:
 ---------------------------------------------------------------------
 Center     Atomic      Atomic             Coordinates (Angstroms)
 Number     Number       Type             X           Y           Z
 ---------------------------------------------------------------------
      1          6           0       -5.242430    0.120478   -0.289572
      2          6           0       -5.606592    1.579007   -0.010174
      3          6           0       -6.923352    1.995642   -0.666185
      4          1           0       -5.177424   -0.033027   -1.375461
      5          1           0       -6.053466   -0.527971    0.069773
      6          1           0       -4.794487    2.224428   -0.368691
      7          1           0       -5.670550    1.729104    1.075182
      8          1           0       -7.748752    1.376150   -0.300745
      9          1           0       -6.867711    1.874288   -1.752822
     10          1           0       -7.164428    3.041840   -0.453556
     11          6           0       -3.928587   -0.310944    0.359596
     12          6           0       -3.564425   -1.769473    0.080198
     13          6           0       -2.247664   -2.186108    0.736209
     14          1           0       -3.117551    0.337505    0.000251
     15          1           0       -3.993593   -0.157439    1.445485
     16          1           0       -3.500466   -1.919570   -1.005158
     17          1           0       -4.376530   -2.414894    0.438715
     18          1           0       -2.303306   -2.064754    1.822846
     19          1           0       -1.422264   -1.566616    0.370769
     20          1           0       -2.006589   -3.232306    0.523580
     21          6           0        5.241144    1.972297    0.084798
     22          6           0        5.539021    0.825283   -0.658269
     23          6           0        4.627464   -0.232461   -0.727465
     24          6           0        3.422070   -0.109081   -0.038196
     25          6           0        3.096300    1.020763    0.710548
     26          6           0        4.022882    2.066210    0.765636
     27          1           0        5.955099    2.789202    0.133071
     28          1           0        6.484364    0.749591   -1.188028
     29          1           0        4.832494   -1.131871   -1.295304
     30          1           0        2.145759    1.067162    1.227981
     31          1           0        3.788865    2.955799    1.343489
     32          7           0        2.449093   -1.222358   -0.103982
     33          8           0        1.394043   -1.089131    0.512263
     34          8           0        2.759946   -2.207093   -0.770544
 ---------------------------------------------------------------------

 SCF Done:  E(RHF) =  -669.535938684     A.U. after   15 cycles
 E2 =    -0.2090683806D+01 EUMP2 =    -0.67162662249020D+03

 The electronic state is 1-A.
 Alpha  occ. eigenvalues --  -20.60912 -20.60907 -15.85951 -11.31282 -11.27846
 Alpha  occ. eigenvalues --  -11.27843 -11.27586 -11.26856 -11.26846 -11.21163
 Alpha  occ. eigenvalues --  -11.20782 -11.20720 -11.20589 -11.20504 -11.19453
 Alpha  occ. eigenvalues --   -1.59976  -1.39532  -1.19451  -1.08853  -1.07700
 Alpha  occ. eigenvalues --   -1.04849  -1.02701  -0.95695  -0.95117  -0.86250
 Alpha  occ. eigenvalues --   -0.86126  -0.82527  -0.78799  -0.77583  -0.77469
 Alpha  occ. eigenvalues --   -0.72172  -0.71293  -0.70560  -0.65107  -0.64852
 Alpha  occ. eigenvalues --   -0.64340  -0.62196  -0.60099  -0.58570  -0.56727
 Alpha  occ. eigenvalues --   -0.55354  -0.54399  -0.53181  -0.52941  -0.51796
 Alpha  occ. eigenvalues --   -0.51539  -0.49189  -0.48925  -0.48795  -0.47077
 Alpha  occ. eigenvalues --   -0.45851  -0.45030  -0.44987  -0.44825  -0.42965
 Alpha  occ. eigenvalues --   -0.37431  -0.36451
 Alpha virt. eigenvalues --    0.04939   0.11204   0.16426   0.21334   0.23537
 Alpha virt. eigenvalues --    0.25209   0.27255   0.27343   0.28094   0.28244
 Alpha virt. eigenvalues --    0.29006   0.30894   0.32202   0.32379   0.32578

 Mulliken charges:
               1
     1  C   -0.297524
     2  C   -0.298837
     3  C   -0.475219
     4  H    0.148865
     5  H    0.148442
     6  H    0.150249
     7  H    0.150722
     8  H    0.154829
     9  H    0.154696
    10  H    0.158163
    11  C   -0.297097
    12  C   -0.300147
    13  C   -0.480624
    14  H    0.148854
    15  H    0.147337
    16  H    0.149971
    17  H    0.146985
    18  H    0.148401
    19  H    0.178703
    20  H    0.159717
    21  C   -0.170641
    22  C   -0.218595
    23  C   -0.170589
    24  C    0.157599
    25  C   -0.170941
    26  C   -0.218551
    27  H    0.225943
    28  H    0.223762
    29  H    0.275850
    30  H    0.275869
    31  H    0.223830
    32  N    0.491545
    33  O   -0.462559
    34  O   -0.459009
 Sum of Mulliken charges =  -0.00000

 Dipole moment (field-independent basis, Debye):
    X=              3.7591    Y=              3.8991    Z=              0.2140  Tot=              5.4202
 Quadrupole moment (field-independent basis, Debye-Ang):
   XX=            -71.4903   YY=            -95.0669   ZZ=            -93.2135
   XY=             12.0302   XZ=             -2.2779   YZ=              1.6510

 Normal termination of Gaussian 16 at Thu May  6 20:33:07 2021.
