 Gaussian 16, Revision A.03,
 Gaussian 16:  EM64L-G16RevA.03 25-Dec-2016

 -------------
 #p 6-31g* mp2
 -------------

 ------------------------------------------------------
 Input file generated by CHIRIPA (05-May-2021 14:53:14)
 ------------------------------------------------------
 Symbolic Z-matrix:
 Charge =  0 Multiplicity = 1

                         Standard orientation:
 ---------------------------------------------------------------------
 Center     Atomic      Atomic             Coordinates (Angstroms)
 Number     Number       Type             X           Y           Z
 ---------------------------------------------------------------------
      1          6           0       -4.897244   -0.131041   -0.275789
      2          6           0       -6.150550   -0.034935    0.594827
      3          6           0       -7.408691    0.284060   -0.213330
      4          1           0       -4.758686    0.816746   -0.813791
      5          1           0       -5.049015   -0.905287   -1.040580
      6          1           0       -5.995930    0.737941    1.358615
      7          1           0       -6.286034   -0.982994    1.130965
      8          1           0       -7.590580   -0.490946   -0.964918
      9          1           0       -7.298828    1.239766   -0.735974
     10          1           0       -8.292738    0.348156    0.428708
     11          6           0       -3.631302   -0.449421    0.517781
     12          6           0       -2.377996   -0.545528   -0.352835
     13          6           0       -1.119855   -0.864522    0.455322
     14          1           0       -3.479531    0.324824    1.282571
     15          1           0       -3.769861   -1.397209    1.055783
     16          1           0       -2.242513    0.402531   -0.888973
     17          1           0       -2.532616   -1.318403   -1.116623
     18          1           0       -1.229718   -1.820229    0.977966
     19          1           0       -0.937966   -0.089516    1.206909
     20          1           0       -0.235809   -0.928618   -0.186716
     21          6           0        4.556036   -1.972362    0.079491
     22          6           0        3.395138   -1.876966   -0.694935
     23          6           0        2.708483   -0.663575   -0.798552
     24          6           0        3.213076    0.439345   -0.111352
     25          6           0        4.367066    0.376068    0.668132
     26          6           0        5.037446   -0.847523    0.757357
     27          1           0        5.083125   -2.918915    0.154393
     28          1           0        3.018960   -2.748886   -1.222469
     29          1           0        1.807423   -0.561691   -1.391112
     30          1           0        4.717741    1.262574    1.182479
     31          1           0        5.938772   -0.918671    1.359517
     32          7           0        2.494760    1.729307   -0.213428
     33          8           0        2.959838    2.686347    0.401725
     34          8           0        1.480268    1.758913   -0.906656
 ---------------------------------------------------------------------

 SCF Done:  E(RHF) =  -669.535323960     A.U. after   15 cycles
 E2 =    -0.2091639747D+01 EUMP2 =    -0.67162696370653D+03

 The electronic state is 1-A.
 Alpha  occ. eigenvalues --  -20.60806 -20.60795 -15.85847 -11.31206 -11.27774
 Alpha  occ. eigenvalues --  -11.27771 -11.27516 -11.26793 -11.26783 -11.21341
 Alpha  occ. eigenvalues --  -11.21226 -11.21093 -11.21030 -11.20837 -11.20807
 Alpha  occ. eigenvalues --   -1.59870  -1.39425  -1.19381  -1.08774  -1.08120
 Alpha  occ. eigenvalues --   -1.04788  -1.03235  -0.95719  -0.95597  -0.86734
 Alpha  occ. eigenvalues --   -0.86178  -0.82445  -0.79303  -0.77930  -0.77496
 Alpha  occ. eigenvalues --   -0.72070  -0.71188  -0.70503  -0.65036  -0.64803
 Alpha  occ. eigenvalues --   -0.64740  -0.62178  -0.60617  -0.59074  -0.57319
 Alpha  occ. eigenvalues --   -0.55289  -0.54975  -0.53158  -0.52943  -0.52315
 Alpha  occ. eigenvalues --   -0.52104  -0.49633  -0.48827  -0.48822  -0.47621
 Alpha  occ. eigenvalues --   -0.46316  -0.45476  -0.45387  -0.44824  -0.43496
 Alpha  occ. eigenvalues --   -0.37353  -0.36364
 Alpha virt. eigenvalues --    0.05011   0.11195   0.16525   0.21027   0.23177
 Alpha virt. eigenvalues --    0.24302   0.26685   0.26981   0.27765   0.27916
 Alpha virt. eigenvalues --    0.28974   0.30652   0.31581   0.31704   0.32188

 Mulliken charges:
               1
     1  C   -0.298428
     2  C   -0.299528
     3  C   -0.475628
     4  H    0.152115
     5  H    0.147815
     6  H    0.152712
     7  H    0.150579
     8  H    0.154259
     9  H    0.156027
    10  H    0.159515
    11  C   -0.298708
    12  C   -0.300855
    13  C   -0.473757
    14  H    0.151783
    15  H    0.146906
    16  H    0.162462
    17  H    0.146751
    18  H    0.149539
    19  H    0.160773
    20  H    0.153186
    21  C   -0.170672
    22  C   -0.219123
    23  C   -0.169527
    24  C    0.158932
    25  C   -0.171100
    26  C   -0.218233
    27  H    0.225705
    28  H    0.223728
    29  H    0.276433
    30  H    0.275607
    31  H    0.223525
    32  N    0.488403
    33  O   -0.460283
    34  O   -0.460914
 Sum of Mulliken charges =  -0.00000

 Dipole moment (field-independent basis, Debye):
    X=              2.5975    Y=             -4.4369    Z=              0.3640  Tot=              5.1542
 Quadrupole moment (field-independent basis, Debye-Ang):
   XX=            -77.6498   YY=            -97.5748   ZZ=            -93.8364
   XY=            -12.0044   XZ=              2.9388   YZ=              2.4156

 Normal termination of Gaussian 16 at Thu May  6 07:25:05 2021.
