 Gaussian 16, Revision A.03,
 Gaussian 16:  EM64L-G16RevA.03 25-Dec-2016

 -------------
 #p 6-31g* mp2
 -------------

 ------------------------------------------------------
 Input file generated by CHIRIPA (05-May-2021 14:53:18)
 ------------------------------------------------------
 Symbolic Z-matrix:
 Charge =  0 Multiplicity = 1

                         Standard orientation:
 ---------------------------------------------------------------------
 Center     Atomic      Atomic             Coordinates (Angstroms)
 Number     Number       Type             X           Y           Z
 ---------------------------------------------------------------------
      1          6           0        5.159327    0.049179   -0.067616
      2          6           0        5.404930    1.556764    0.002024
      3          6           0        6.822244    1.944942   -0.420272
      4          1           0        5.888291   -0.464669    0.573881
      5          1           0        5.345574   -0.298634   -1.093156
      6          1           0        5.216935    1.901862    1.026808
      7          1           0        4.675175    2.067096   -0.639563
      8          1           0        7.017726    1.628430   -1.449936
      9          1           0        7.562564    1.462257    0.225903
     10          1           0        6.976046    3.027034   -0.362977
     11          6           0        3.746866   -0.354515    0.351565
     12          6           0        3.501263   -1.862101    0.281925
     13          6           0        2.083950   -2.250279    0.704222
     14          1           0        3.560619   -0.006703    1.377106
     15          1           0        3.017903    0.159333   -0.289932
     16          1           0        4.231018   -2.372432    0.923513
     17          1           0        3.689258   -2.207198   -0.742859
     18          1           0        1.343630   -1.767594    0.058046
     19          1           0        1.888468   -1.933767    1.733886
     20          1           0        1.930148   -3.332370    0.646927
     21          6           0       -4.815716    2.207833    0.354891
     22          6           0       -5.446292    0.959278    0.351917
     23          6           0       -4.715551   -0.204592    0.095071
     24          6           0       -3.349751   -0.082642   -0.155950
     25          6           0       -2.692829    1.146881   -0.159951
     26          6           0       -3.443417    2.297491    0.099397
     27          1           0       -5.391083    3.106805    0.555387
     28          1           0       -6.511903    0.886632    0.550010
     29          1           0       -5.178427   -1.183925    0.086625
     30          1           0       -1.629155    1.187507   -0.360863
     31          1           0       -2.951053    3.265799    0.101061
     32          7           0       -2.565643   -1.307761   -0.429186
     33          8           0       -1.363571   -1.173482   -0.647430
     34          8           0       -3.167977   -2.379090   -0.419932
 ---------------------------------------------------------------------

 SCF Done:  E(RHF) =  -669.535992240     A.U. after   15 cycles
 E2 =    -0.2090711741D+01 EUMP2 =    -0.67162670398178D+03

 The electronic state is 1-A.
 Alpha  occ. eigenvalues --  -20.60894 -20.60888 -15.85938 -11.31266 -11.27831
 Alpha  occ. eigenvalues --  -11.27827 -11.27571 -11.26841 -11.26831 -11.21285
 Alpha  occ. eigenvalues --  -11.20905 -11.20818 -11.20742 -11.20665 -11.19674
 Alpha  occ. eigenvalues --   -1.59956  -1.39513  -1.19435  -1.08837  -1.07837
 Alpha  occ. eigenvalues --   -1.04834  -1.02847  -0.95681  -0.95268  -0.86283
 Alpha  occ. eigenvalues --   -0.86231  -0.82515  -0.78944  -0.77634  -0.77553
 Alpha  occ. eigenvalues --   -0.72165  -0.71272  -0.70545  -0.65093  -0.64837
 Alpha  occ. eigenvalues --   -0.64473  -0.62181  -0.60240  -0.58709  -0.56880
 Alpha  occ. eigenvalues --   -0.55338  -0.54543  -0.53165  -0.52926  -0.51951
 Alpha  occ. eigenvalues --   -0.51690  -0.49258  -0.48913  -0.48860  -0.47233
 Alpha  occ. eigenvalues --   -0.45991  -0.45178  -0.45091  -0.44850  -0.43115
 Alpha  occ. eigenvalues --   -0.37415  -0.36436
 Alpha virt. eigenvalues --    0.04960   0.11219   0.16446   0.21322   0.23409
 Alpha virt. eigenvalues --    0.25033   0.27099   0.27315   0.27906   0.28250
 Alpha virt. eigenvalues --    0.28900   0.30869   0.31997   0.32272   0.32592

 Mulliken charges:
               1
     1  C   -0.297662
     2  C   -0.298878
     3  C   -0.475283
     4  H    0.148799
     5  H    0.149454
     6  H    0.150342
     7  H    0.150021
     8  H    0.155155
     9  H    0.155011
    10  H    0.158252
    11  C   -0.297289
    12  C   -0.299606
    13  C   -0.483451
    14  H    0.146559
    15  H    0.149107
    16  H    0.147471
    17  H    0.151106
    18  H    0.180677
    19  H    0.147571
    20  H    0.159660
    21  C   -0.170666
    22  C   -0.218582
    23  C   -0.170623
    24  C    0.157716
    25  C   -0.170532
    26  C   -0.218541
    27  H    0.225890
    28  H    0.223716
    29  H    0.275841
    30  H    0.275455
    31  H    0.223788
    32  N    0.493381
    33  O   -0.464867
    34  O   -0.458989
 Sum of Mulliken charges =  -0.00000

 Dipole moment (field-independent basis, Debye):
    X=             -3.0406    Y=              4.2796    Z=              0.8977  Tot=              5.3260
 Quadrupole moment (field-independent basis, Debye-Ang):
   XX=            -74.7334   YY=            -94.6289   ZZ=            -95.1977
   XY=            -12.3212   XZ=             -3.0012   YZ=             -0.8836

 Normal termination of Gaussian 16 at Thu May  6 15:38:35 2021.
