 Gaussian 16, Revision A.03,
 Gaussian 16:  EM64L-G16RevA.03 25-Dec-2016

 -------------
 #p 6-31g* mp2
 -------------

 ------------------------------------------------------
 Input file generated by CHIRIPA (05-May-2021 14:51:12)
 ------------------------------------------------------
 Symbolic Z-matrix:
 Charge =  0 Multiplicity = 1

                         Standard orientation:
 ---------------------------------------------------------------------
 Center     Atomic      Atomic             Coordinates (Angstroms)
 Number     Number       Type             X           Y           Z
 ---------------------------------------------------------------------
      1          6           0        2.826375    0.438294    0.428304
      2          6           0        2.045936    1.625984    0.992479
      3          6           0        2.821284    2.384700    2.069967
      4          1           0        3.082937   -0.246471    1.248193
      5          1           0        3.777632    0.797930    0.012172
      6          1           0        1.095819    1.264399    1.406181
      7          1           0        1.791036    2.307906    0.171123
      8          1           0        3.762026    2.772886    1.666338
      9          1           0        3.062859    1.723450    2.908413
     10          1           0        2.244902    3.229661    2.459432
     11          6           0        2.064380   -0.330177   -0.649910
     12          6           0        2.844819   -1.517867   -1.214084
     13          6           0        2.069471   -2.276583   -2.291572
     14          1           0        1.113122   -0.689813   -0.233778
     15          1           0        1.807817    0.354588   -1.469798
     16          1           0        3.099719   -2.199789   -0.392729
     17          1           0        3.794936   -1.156282   -1.627787
     18          1           0        1.827896   -1.615333   -3.130018
     19          1           0        1.128729   -2.664769   -1.887943
     20          1           0        2.645853   -3.121544   -2.681038
     21          6           0       -2.056748   -0.634945    0.418974
     22          6           0       -2.718713   -1.210793    1.671247
     23          6           0       -1.929411   -2.372163    2.276241
     24          1           0       -1.944321   -1.432401   -0.328267
     25          1           0       -1.041865   -0.297698    0.671306
     26          1           0       -3.732547   -1.545588    1.416944
     27          1           0       -2.829753   -0.411831    2.415521
     28          1           0       -0.922208   -2.048212    2.557662
     29          1           0       -1.830131   -3.188411    1.553412
     30          1           0       -2.420483   -2.768664    3.170386
     31          6           0       -2.834007    0.526828   -0.197369
     32          6           0       -2.172041    1.102676   -1.449641
     33          6           0       -2.961343    2.264045   -2.054635
     34          1           0       -3.848890    0.189582   -0.449700
     35          1           0       -2.946435    1.324284    0.549872
     36          1           0       -2.061002    0.303714   -2.193916
     37          1           0       -1.158207    1.437472   -1.195339
     38          1           0       -3.060623    3.080294   -1.331806
     39          1           0       -3.968547    1.940094   -2.336057
     40          1           0       -2.470273    2.660547   -2.948781
 ---------------------------------------------------------------------

 SCF Done:  E(RHF) =  -470.733120352     A.U. after   11 cycles
 E2 =    -0.1584211295D+01 EUMP2 =    -0.47231733164668D+03

 The electronic state is 1-A.
 Alpha  occ. eigenvalues --  -11.21680 -11.21636 -11.21573 -11.21550 -11.21409
 Alpha  occ. eigenvalues --  -11.21403 -11.21347 -11.21295 -11.21132 -11.21126
 Alpha  occ. eigenvalues --  -11.21047 -11.21045  -1.08478  -1.08400  -1.03544
 Alpha  occ. eigenvalues --   -1.03536  -0.96004  -0.95976  -0.87014  -0.86998
 Alpha  occ. eigenvalues --   -0.79614  -0.79593  -0.78500  -0.78022  -0.65209
 Alpha  occ. eigenvalues --   -0.64945  -0.60954  -0.60920  -0.59361  -0.59353
 Alpha  occ. eigenvalues --   -0.57649  -0.57560  -0.55335  -0.55227  -0.52710
 Alpha  occ. eigenvalues --   -0.52669  -0.52450  -0.52383  -0.49969  -0.49905
 Alpha  occ. eigenvalues --   -0.47950  -0.47915  -0.46702  -0.46637  -0.46474
 Alpha  occ. eigenvalues --   -0.45742  -0.45704  -0.44939  -0.43798  -0.43775
 Alpha virt. eigenvalues --    0.20313   0.23299   0.23712   0.23860   0.24832
 Alpha virt. eigenvalues --    0.26352   0.26613   0.27888   0.28313   0.30582
 Alpha virt. eigenvalues --    0.31068   0.31489   0.31660   0.31848   0.31964

 Mulliken charges:
               1
     1  C   -0.297963
     2  C   -0.303721
     3  C   -0.475607
     4  H    0.149333
     5  H    0.149633
     6  H    0.153604
     7  H    0.152331
     8  H    0.155692
     9  H    0.155374
    10  H    0.160241
    11  C   -0.306919
    12  C   -0.299126
    13  C   -0.475801
    14  H    0.158752
    15  H    0.150036
    16  H    0.151779
    17  H    0.151596
    18  H    0.155167
    19  H    0.155398
    20  H    0.160016
    21  C   -0.308312
    22  C   -0.298825
    23  C   -0.475933
    24  H    0.149409
    25  H    0.158927
    26  H    0.152231
    27  H    0.151858
    28  H    0.154086
    29  H    0.155144
    30  H    0.160772
    31  C   -0.297407
    32  C   -0.302424
    33  C   -0.475706
    34  H    0.149451
    35  H    0.149381
    36  H    0.151999
    37  H    0.155488
    38  H    0.155046
    39  H    0.155035
    40  H    0.159966
 Sum of Mulliken charges =  -0.00000

 Dipole moment (field-independent basis, Debye):
    X=             -0.0006    Y=              0.0016    Z=              0.0035  Tot=              0.0039
 Quadrupole moment (field-independent basis, Debye-Ang):
   XX=            -84.7969   YY=            -85.1478   ZZ=            -84.8902
   XY=              0.7531   XZ=             -0.5773   YZ=             -0.0911

 Normal termination of Gaussian 16 at Thu May  6 03:56:10 2021.
