 Gaussian 16, Revision A.03,
 Gaussian 16:  EM64L-G16RevA.03 25-Dec-2016

 -------------
 #p 6-31g* mp2
 -------------

 ------------------------------------------------------
 Input file generated by CHIRIPA (05-May-2021 14:51:08)
 ------------------------------------------------------
 Symbolic Z-matrix:
 Charge =  0 Multiplicity = 1

                         Standard orientation:
 ---------------------------------------------------------------------
 Center     Atomic      Atomic             Coordinates (Angstroms)
 Number     Number       Type             X           Y           Z
 ---------------------------------------------------------------------
      1          6           0       -1.728427   -1.623938    0.449022
      2          6           0       -0.722479   -2.484385   -0.316278
      3          6           0        0.026271   -3.463852    0.588051
      4          1           0       -1.201550   -1.068369    1.236861
      5          1           0       -2.449128   -2.279376    0.957338
      6          1           0       -0.004715   -1.827481   -0.824126
      7          1           0       -1.251781   -3.037824   -1.102510
      8          1           0       -0.674666   -4.142729    1.084451
      9          1           0        0.579485   -2.925509    1.364417
     10          1           0        0.740173   -4.068866    0.020458
     11          6           0       -2.484860   -0.639746   -0.441428
     12          6           0       -3.490808    0.220701    0.323872
     13          6           0       -4.239558    1.200168   -0.580457
     14          1           0       -1.764159    0.015692   -0.949744
     15          1           0       -3.011737   -1.195315   -1.229266
     16          1           0       -2.961506    0.774140    1.110104
     17          1           0       -4.208572   -0.436202    0.831720
     18          1           0       -4.792772    0.661826   -1.356822
     19          1           0       -3.538620    1.879045   -1.076857
     20          1           0       -4.953460    1.805182   -0.012864
     21          6           0        2.019786    1.890222    0.023538
     22          6           0        0.576785    2.326454    0.279338
     23          6           0        0.419085    3.846397    0.331299
     24          1           0        2.665420    2.300532    0.812047
     25          1           0        2.365578    2.328235   -0.923018
     26          1           0        0.233354    1.886622    1.224441
     27          1           0       -0.065519    1.914899   -0.509766
     28          1           0        0.735456    4.299065   -0.614006
     29          1           0        1.036027    4.270628    1.130055
     30          1           0       -0.620201    4.136136    0.515134
     31          6           0        2.193501    0.373461   -0.031132
     32          6           0        3.636502   -0.062771   -0.286932
     33          6           0        3.794202   -1.582713   -0.338893
     34          1           0        1.847709   -0.064552    0.915423
     35          1           0        1.547867   -0.036848   -0.819642
     36          1           0        4.278806    0.348785    0.502172
     37          1           0        3.979933    0.377062   -1.232035
     38          1           0        3.177260   -2.006944   -1.137649
     39          1           0        3.477831   -2.035382    0.606412
     40          1           0        4.833488   -1.872452   -0.522728
 ---------------------------------------------------------------------

 SCF Done:  E(RHF) =  -470.732865224     A.U. after   11 cycles
 E2 =    -0.1585332590D+01 EUMP2 =    -0.47231819781467D+03

 The electronic state is 1-A.
 Alpha  occ. eigenvalues --  -11.21712 -11.21664 -11.21552 -11.21497 -11.21476
 Alpha  occ. eigenvalues --  -11.21438 -11.21332 -11.21270 -11.21150 -11.21096
 Alpha  occ. eigenvalues --  -11.21046 -11.20990  -1.08543  -1.08340  -1.03619
 Alpha  occ. eigenvalues --   -1.03449  -0.96053  -0.95913  -0.87083  -0.86916
 Alpha  occ. eigenvalues --   -0.79684  -0.79522  -0.78409  -0.78133  -0.65219
 Alpha  occ. eigenvalues --   -0.64931  -0.61044  -0.60869  -0.59414  -0.59266
 Alpha  occ. eigenvalues --   -0.57667  -0.57522  -0.55350  -0.55194  -0.52740
 Alpha  occ. eigenvalues --   -0.52628  -0.52506  -0.52313  -0.50011  -0.49841
 Alpha  occ. eigenvalues --   -0.48060  -0.47769  -0.46887  -0.46566  -0.46198
 Alpha  occ. eigenvalues --   -0.45973  -0.45537  -0.45058  -0.43862  -0.43712
 Alpha virt. eigenvalues --    0.19624   0.21459   0.23605   0.23777   0.25246
 Alpha virt. eigenvalues --    0.26000   0.26378   0.28036   0.29406   0.29475
 Alpha virt. eigenvalues --    0.30178   0.31207   0.31663   0.32115   0.32502

 Mulliken charges:
               1
     1  C   -0.298842
     2  C   -0.305315
     3  C   -0.475835
     4  H    0.150558
     5  H    0.149092
     6  H    0.158164
     7  H    0.150979
     8  H    0.154377
     9  H    0.155141
    10  H    0.160646
    11  C   -0.301670
    12  C   -0.300049
    13  C   -0.475944
    14  H    0.152675
    15  H    0.149180
    16  H    0.152817
    17  H    0.151736
    18  H    0.155074
    19  H    0.154878
    20  H    0.160061
    21  C   -0.297737
    22  C   -0.304997
    23  C   -0.475794
    24  H    0.150110
    25  H    0.149824
    26  H    0.152253
    27  H    0.155824
    28  H    0.155485
    29  H    0.155585
    30  H    0.160757
    31  C   -0.304302
    32  C   -0.299655
    33  C   -0.477371
    34  H    0.150371
    35  H    0.154397
    36  H    0.152154
    37  H    0.151996
    38  H    0.155987
    39  H    0.157047
    40  H    0.160346
 Sum of Mulliken charges =  -0.00000

 Dipole moment (field-independent basis, Debye):
    X=              0.0611    Y=              0.0326    Z=             -0.0024  Tot=              0.0693
 Quadrupole moment (field-independent basis, Debye-Ang):
   XX=            -84.7075   YY=            -86.0717   ZZ=            -84.0098
   XY=              1.2400   XZ=             -0.0301   YZ=              0.4373

 Normal termination of Gaussian 16 at Thu May  6 00:30:26 2021.
