 Gaussian 16, Revision A.03,
 Gaussian 16:  EM64L-G16RevA.03 25-Dec-2016

 -------------
 #p 6-31g* mp2
 -------------

 ------------------------------------------------------
 Input file generated by CHIRIPA (05-May-2021 14:57:25)
 ------------------------------------------------------
 Symbolic Z-matrix:
 Charge =  0 Multiplicity = 1

                         Standard orientation:
 ---------------------------------------------------------------------
 Center     Atomic      Atomic             Coordinates (Angstroms)
 Number     Number       Type             X           Y           Z
 ---------------------------------------------------------------------
      1          6           0       -2.914518   -1.788865    1.460672
      2          6           0       -2.025090   -0.789886    1.869914
      3          6           0       -1.874467    0.378534    1.117149
      4          6           0       -2.632442    0.515579   -0.044738
      5          6           0       -3.526816   -0.461705   -0.478675
      6          6           0       -3.661226   -1.621881    0.289748
      7          1           0       -3.025227   -2.693320    2.051520
      8          1           0       -1.443890   -0.916856    2.778832
      9          1           0       -1.193151    1.167814    1.410854
     10          1           0       -4.092530   -0.306554   -1.389342
     11          1           0       -4.352727   -2.396034   -0.030498
     12          7           0       -2.481567    1.748169   -0.849945
     13          8           0       -3.160872    1.844776   -1.869675
     14          8           0       -1.686863    2.594327   -0.446089
     15          6           0        1.458933   -2.208847   -1.242714
     16          6           0        0.894341   -1.609158   -0.112169
     17          6           0        1.549454   -0.557655    0.535685
     18          6           0        2.773163   -0.129094    0.023666
     19          6           0        3.361368   -0.706211   -1.100717
     20          6           0        2.688477   -1.756257   -1.732516
     21          1           0        0.943121   -3.025114   -1.739747
     22          1           0       -0.060416   -1.958576    0.270438
     23          1           0        1.135032   -0.075424    1.412683
     24          1           0        4.314400   -0.336098   -1.458716
     25          1           0        3.129323   -2.220100   -2.610326
     26          7           0        3.476111    0.983313    0.701023
     27          8           0        4.553118    1.342473    0.230173
     28          8           0        2.936766    1.474996    1.689957
 ---------------------------------------------------------------------

 SCF Done:  E(RHF) =  -868.335582968     A.U. after   16 cycles
 E2 =    -0.2604048759D+01 EUMP2 =    -0.87093963172679D+03

 The electronic state is 1-A.
 Alpha  occ. eigenvalues --  -20.61246 -20.61218 -20.60746 -20.60733 -15.86299
 Alpha  occ. eigenvalues --  -15.85794 -11.31974 -11.31197 -11.28585 -11.28561
 Alpha  occ. eigenvalues --  -11.28408 -11.27799 -11.27710 -11.27657 -11.27646
 Alpha  occ. eigenvalues --  -11.27457 -11.26760 -11.26650  -1.60305  -1.59808
 Alpha  occ. eigenvalues --   -1.39848  -1.39366  -1.20223  -1.19343  -1.09543
 Alpha  occ. eigenvalues --   -1.08730  -1.05691  -1.04737  -0.96312  -0.95575
 Alpha  occ. eigenvalues --   -0.87020  -0.86155  -0.83149  -0.82405  -0.78139
 Alpha  occ. eigenvalues --   -0.77456  -0.72509  -0.72019  -0.71637  -0.71291
 Alpha  occ. eigenvalues --   -0.71120  -0.70481  -0.65844  -0.65627  -0.65002
 Alpha  occ. eigenvalues --   -0.64792  -0.63003  -0.62133  -0.56112  -0.55312
 Alpha  occ. eigenvalues --   -0.54071  -0.53718  -0.53039  -0.52654  -0.49296
 Alpha  occ. eigenvalues --   -0.49244  -0.48780  -0.48762  -0.45186  -0.44764
 Alpha  occ. eigenvalues --   -0.38257  -0.37378  -0.37315  -0.36175
 Alpha virt. eigenvalues --    0.04324   0.05105   0.10302   0.11280   0.15704
 Alpha virt. eigenvalues --    0.16597   0.19757   0.21970   0.25074   0.27257
 Alpha virt. eigenvalues --    0.27965   0.29646   0.30224   0.30956   0.31730

 Mulliken charges:
               1
     1  C   -0.175565
     2  C   -0.234695
     3  C   -0.173293
     4  C    0.161857
     5  C   -0.170716
     6  C   -0.219642
     7  H    0.228809
     8  H    0.227981
     9  H    0.284586
    10  H    0.278618
    11  H    0.226187
    12  N    0.487863
    13  O   -0.459461
    14  O   -0.453860
    15  C   -0.172658
    16  C   -0.221184
    17  C   -0.173612
    18  C    0.161769
    19  C   -0.170731
    20  C   -0.217164
    21  H    0.223998
    22  H    0.229518
    23  H    0.263799
    24  H    0.276297
    25  H    0.223615
    26  N    0.489182
    27  O   -0.458591
    28  O   -0.462909
 Sum of Mulliken charges =  -0.00000

 Dipole moment (field-independent basis, Debye):
    X=             -3.1816    Y=             -8.0764    Z=              0.3249  Tot=              8.6865
 Quadrupole moment (field-independent basis, Debye-Ang):
   XX=           -110.7197   YY=           -108.9040   ZZ=           -101.6246
   XY=              1.7482   XZ=            -14.6900   YZ=              3.4449

 Normal termination of Gaussian 16 at Thu May  6 14:41:56 2021.
