 Gaussian 16, Revision A.03,
 Gaussian 16:  EM64L-G16RevA.03 25-Dec-2016

 -------------
 #p 6-31g* mp2
 -------------

 ------------------------------------------------------
 Input file generated by CHIRIPA (05-May-2021 14:51:11)
 ------------------------------------------------------
 Symbolic Z-matrix:
 Charge =  0 Multiplicity = 1

                         Standard orientation:
 ---------------------------------------------------------------------
 Center     Atomic      Atomic             Coordinates (Angstroms)
 Number     Number       Type             X           Y           Z
 ---------------------------------------------------------------------
      1          6           0        2.650295    0.973177    0.338207
      2          6           0        2.425722    2.402334   -0.156831
      3          6           0        2.524010    3.438284    0.963411
      4          1           0        1.912687    0.742187    1.118926
      5          1           0        3.638988    0.908218    0.813245
      6          1           0        1.438314    2.464241   -0.632026
      7          1           0        3.163828    2.629883   -0.936598
      8          1           0        3.512644    3.405694    1.432604
      9          1           0        1.777326    3.239111    1.738907
     10          1           0        2.360227    4.452991    0.587374
     11          6           0        2.555169   -0.073840   -0.770140
     12          6           0        2.779742   -1.502997   -0.275103
     13          6           0        2.681453   -2.538946   -1.395345
     14          1           0        1.566476   -0.008881   -1.245179
     15          1           0        3.292777    0.157150   -1.550860
     16          1           0        2.041635   -1.730546    0.504664
     17          1           0        3.767149   -1.564903    0.200092
     18          1           0        3.428138   -2.339774   -2.170841
     19          1           0        1.692820   -2.506357   -1.864538
     20          1           0        2.845236   -3.553654   -1.019307
     21          6           0       -2.952713    0.226209    0.280271
     22          6           0       -3.814250    0.580715   -0.932190
     23          6           0       -4.507916    1.935710   -0.788619
     24          1           0       -3.581688    0.224130    1.181009
     25          1           0       -2.198421    1.011540    0.427564
     26          1           0       -4.565809   -0.205745   -1.077982
     27          1           0       -3.183188    0.581763   -1.830174
     28          1           0       -3.770047    2.735168   -0.666080
     29          1           0       -5.160522    1.943185    0.090386
     30          1           0       -5.118463    2.169179   -1.666449
     31          6           0       -2.252751   -1.125546    0.151663
     32          6           0       -1.391213   -1.480053    1.364124
     33          6           0       -0.697547   -2.835047    1.220552
     34          1           0       -3.007043   -1.910877    0.004369
     35          1           0       -1.623775   -1.123468   -0.749076
     36          1           0       -2.022275   -1.481099    2.262108
     37          1           0       -0.639655   -0.693592    1.509916
     38          1           0       -0.044941   -2.842523    0.341547
     39          1           0       -1.435417   -3.634505    1.098013
     40          1           0       -0.087001   -3.068516    2.098381
 ---------------------------------------------------------------------

 SCF Done:  E(RHF) =  -470.732938718     A.U. after   11 cycles
 E2 =    -0.1584111615D+01 EUMP2 =    -0.47231705033294D+03

 The electronic state is 1-A.
 Alpha  occ. eigenvalues --  -11.21680 -11.21647 -11.21646 -11.21557 -11.21474
 Alpha  occ. eigenvalues --  -11.21444 -11.21413 -11.21384 -11.21104 -11.21104
 Alpha  occ. eigenvalues --  -11.21102 -11.21087  -1.08514  -1.08444  -1.03627
 Alpha  occ. eigenvalues --   -1.03520  -0.96065  -0.95983  -0.87051  -0.87026
 Alpha  occ. eigenvalues --   -0.79679  -0.79588  -0.78313  -0.78271  -0.65387
 Alpha  occ. eigenvalues --   -0.64885  -0.61296  -0.60668  -0.59422  -0.59354
 Alpha  occ. eigenvalues --   -0.57652  -0.57614  -0.55514  -0.55116  -0.52729
 Alpha  occ. eigenvalues --   -0.52692  -0.52448  -0.52434  -0.50002  -0.49938
 Alpha  occ. eigenvalues --   -0.47990  -0.47906  -0.46780  -0.46512  -0.45945
 Alpha  occ. eigenvalues --   -0.45834  -0.45721  -0.45627  -0.43842  -0.43810
 Alpha virt. eigenvalues --    0.18905   0.22827   0.23555   0.24523   0.25684
 Alpha virt. eigenvalues --    0.26106   0.26973   0.28247   0.28715   0.29465
 Alpha virt. eigenvalues --    0.30706   0.31542   0.31651   0.31996   0.32124

 Mulliken charges:
               1
     1  C   -0.300868
     2  C   -0.299516
     3  C   -0.475777
     4  H    0.151276
     5  H    0.150014
     6  H    0.151283
     7  H    0.152250
     8  H    0.155401
     9  H    0.155169
    10  H    0.160395
    11  C   -0.298116
    12  C   -0.307551
    13  C   -0.476780
    14  H    0.148658
    15  H    0.149925
    16  H    0.160830
    17  H    0.152099
    18  H    0.155646
    19  H    0.154298
    20  H    0.161129
    21  C   -0.298326
    22  C   -0.299721
    23  C   -0.475756
    24  H    0.149997
    25  H    0.149065
    26  H    0.152145
    27  H    0.151896
    28  H    0.155241
    29  H    0.155294
    30  H    0.160465
    31  C   -0.298591
    32  C   -0.303362
    33  C   -0.481812
    34  H    0.150137
    35  H    0.149272
    36  H    0.152654
    37  H    0.153608
    38  H    0.162040
    39  H    0.155900
    40  H    0.160088
 Sum of Mulliken charges =  -0.00000

 Dipole moment (field-independent basis, Debye):
    X=             -0.0016    Y=             -0.0193    Z=              0.0124  Tot=              0.0230
 Quadrupole moment (field-independent basis, Debye-Ang):
   XX=            -83.3302   YY=            -86.1681   ZZ=            -85.0786
   XY=              0.9654   XZ=             -0.5720   YZ=             -0.7969

 Normal termination of Gaussian 16 at Thu May  6 00:40:37 2021.
