 Gaussian 16, Revision A.03,
 Gaussian 16:  EM64L-G16RevA.03 25-Dec-2016

 -------------
 #p 6-31g* mp2
 -------------

 ------------------------------------------------------
 Input file generated by CHIRIPA (05-May-2021 14:57:27)
 ------------------------------------------------------
 Symbolic Z-matrix:
 Charge =  0 Multiplicity = 1

                         Standard orientation:
 ---------------------------------------------------------------------
 Center     Atomic      Atomic             Coordinates (Angstroms)
 Number     Number       Type             X           Y           Z
 ---------------------------------------------------------------------
      1          6           0        1.316026    0.854817    2.401908
      2          6           0        1.142638   -0.488293    2.051891
      3          6           0        1.844373   -1.037586    0.974675
      4          6           0        2.715283   -0.211322    0.266090
      5          6           0        2.909573    1.130481    0.590292
      6          6           0        2.197387    1.658501    1.671279
      7          1           0        0.766842    1.273258    3.240180
      8          1           0        0.458829   -1.114806    2.617516
      9          1           0        1.729148   -2.074176    0.682062
     10          1           0        3.598256    1.730135    0.007583
     11          1           0        2.334034    2.701914    1.940838
     12          7           0        3.463711   -0.781573   -0.876307
     13          8           0        4.225049   -0.032624   -1.484644
     14          8           0        3.274818   -1.966688   -1.141748
     15          6           0       -0.879590    1.654700   -1.488935
     16          6           0       -2.105780    2.166088   -1.051372
     17          6           0       -3.062007    1.323553   -0.476643
     18          6           0       -2.757475   -0.031289   -0.354352
     19          6           0       -1.544882   -0.570860   -0.780696
     20          6           0       -0.603542    0.290264   -1.352441
     21          1           0       -0.142553    2.316421   -1.934239
     22          1           0       -2.322892    3.225305   -1.156108
     23          1           0       -4.019302    1.692926   -0.129416
     24          1           0       -1.357201   -1.631202   -0.662937
     25          1           0        0.347893   -0.109668   -1.691369
     26          7           0       -3.761911   -0.933083    0.252507
     27          8           0       -3.469348   -2.122931    0.348972
     28          8           0       -4.822729   -0.432985    0.620208
 ---------------------------------------------------------------------

 SCF Done:  E(RHF) =  -868.337364636     A.U. after   16 cycles
 E2 =    -0.2603166282D+01 EUMP2 =    -0.87094053091710D+03

 The electronic state is 1-A.
 Alpha  occ. eigenvalues --  -20.61609 -20.61594 -20.61081 -20.61070 -15.86643
 Alpha  occ. eigenvalues --  -15.86127 -11.31882 -11.31405 -11.28461 -11.28400
 Alpha  occ. eigenvalues --  -11.28078 -11.27952 -11.27933 -11.27633 -11.27431
 Alpha  occ. eigenvalues --  -11.27331 -11.26965 -11.26870  -1.60695  -1.60158
 Alpha  occ. eigenvalues --   -1.40243  -1.39714  -1.20057  -1.19552  -1.09452
 Alpha  occ. eigenvalues --   -1.08963  -1.05430  -1.04933  -0.96306  -0.95816
 Alpha  occ. eigenvalues --   -0.86821  -0.86347  -0.83127  -0.82650  -0.78212
 Alpha  occ. eigenvalues --   -0.77723  -0.72843  -0.72343  -0.72062  -0.71488
 Alpha  occ. eigenvalues --   -0.71118  -0.70653  -0.65684  -0.65391  -0.65201
 Alpha  occ. eigenvalues --   -0.64944  -0.62771  -0.62302  -0.55875  -0.55436
 Alpha  occ. eigenvalues --   -0.54172  -0.53486  -0.53094  -0.52802  -0.49621
 Alpha  occ. eigenvalues --   -0.49597  -0.49107  -0.49092  -0.45656  -0.45138
 Alpha  occ. eigenvalues --   -0.38005  -0.37615  -0.37267  -0.36123
 Alpha virt. eigenvalues --    0.04210   0.04853   0.10504   0.11129   0.15845
 Alpha virt. eigenvalues --    0.16334   0.20573   0.21341   0.26024   0.27006
 Alpha virt. eigenvalues --    0.27687   0.28506   0.30366   0.30917   0.31757

 Mulliken charges:
               1
     1  C   -0.168425
     2  C   -0.213905
     3  C   -0.177486
     4  C    0.152471
     5  C   -0.175768
     6  C   -0.217513
     7  H    0.229570
     8  H    0.231017
     9  H    0.276462
    10  H    0.274958
    11  H    0.224395
    12  N    0.486451
    13  O   -0.459476
    14  O   -0.459450
    15  C   -0.171971
    16  C   -0.219636
    17  C   -0.173148
    18  C    0.156618
    19  C   -0.173050
    20  C   -0.212065
    21  H    0.226668
    22  H    0.222590
    23  H    0.274670
    24  H    0.273418
    25  H    0.227315
    26  N    0.487587
    27  O   -0.461956
    28  O   -0.460342
 Sum of Mulliken charges =  -0.00000

 Dipole moment (field-independent basis, Debye):
    X=              0.9762    Y=              5.2227    Z=              2.0473  Tot=              5.6939
 Quadrupole moment (field-independent basis, Debye-Ang):
   XX=           -137.4532   YY=            -99.3179   ZZ=           -101.8831
   XY=             -3.3894   XZ=             14.2765   YZ=             -1.6093

 Normal termination of Gaussian 16 at Wed May  5 22:54:06 2021.
