 Gaussian 16, Revision A.03,
 Gaussian 16:  EM64L-G16RevA.03 25-Dec-2016

 -------------
 #p 6-31g* mp2
 -------------

 ------------------------------------------------------
 Input file generated by CHIRIPA (05-May-2021 14:51:11)
 ------------------------------------------------------
 Symbolic Z-matrix:
 Charge =  0 Multiplicity = 1

                         Standard orientation:
 ---------------------------------------------------------------------
 Center     Atomic      Atomic             Coordinates (Angstroms)
 Number     Number       Type             X           Y           Z
 ---------------------------------------------------------------------
      1          6           0       -2.416444   -0.519465   -0.273392
      2          6           0       -1.688913   -1.812657    0.095849
      3          6           0       -0.229398   -1.820601   -0.359725
      4          1           0       -2.369817   -0.377972   -1.361855
      5          1           0       -1.886609    0.332109    0.175486
      6          1           0       -2.220752   -2.661654   -0.352444
      7          1           0       -1.737442   -1.951186    1.183539
      8          1           0        0.321559   -0.992636    0.098010
      9          1           0       -0.164497   -1.707141   -1.446701
     10          1           0        0.271674   -2.754205   -0.085554
     11          6           0       -3.876512   -0.496440    0.175381
     12          6           0       -4.604043    0.796752   -0.193860
     13          6           0       -6.063558    0.804696    0.261714
     14          1           0       -4.406348   -1.348014   -0.273497
     15          1           0       -3.923139   -0.637932    1.263843
     16          1           0       -4.555514    0.935281   -1.281551
     17          1           0       -4.072204    1.645749    0.254433
     18          1           0       -6.128459    0.691236    1.348689
     19          1           0       -6.614515   -0.023269   -0.196022
     20          1           0       -6.564631    1.738300   -0.012458
     21          6           0        3.007692    1.149430   -0.341733
     22          6           0        2.659926    2.340487    0.551816
     23          6           0        2.384920    3.616467   -0.244451
     24          1           0        3.887239    1.400261   -0.950358
     25          1           0        2.181340    0.973399   -1.044264
     26          1           0        3.486091    2.513353    1.253375
     27          1           0        1.781218    2.086722    1.158523
     28          1           0        1.546818    3.467783   -0.932983
     29          1           0        3.261376    3.896839   -0.837593
     30          1           0        2.138386    4.455271    0.413949
     31          6           0        3.285264   -0.133526    0.439744
     32          6           0        3.633031   -1.324582   -0.453804
     33          6           0        3.908035   -2.600562    0.342462
     34          1           0        4.111616    0.042507    1.142276
     35          1           0        2.405717   -0.384356    1.048370
     36          1           0        4.511738   -1.070816   -1.060511
     37          1           0        2.806865   -1.497448   -1.155363
     38          1           0        3.031580   -2.880935    0.935604
     39          1           0        4.746138   -2.451878    1.030995
     40          1           0        4.154570   -3.439366   -0.315937
 ---------------------------------------------------------------------

 SCF Done:  E(RHF) =  -470.732799795     A.U. after   11 cycles
 E2 =    -0.1583831253D+01 EUMP2 =    -0.47231663104869D+03

 The electronic state is 1-A.
 Alpha  occ. eigenvalues --  -11.21669 -11.21637 -11.21595 -11.21475 -11.21465
 Alpha  occ. eigenvalues --  -11.21401 -11.21346 -11.21277 -11.21147 -11.21098
 Alpha  occ. eigenvalues --  -11.21060 -11.20992  -1.08495  -1.08373  -1.03602
 Alpha  occ. eigenvalues --   -1.03462  -0.96046  -0.95930  -0.87082  -0.86932
 Alpha  occ. eigenvalues --   -0.79663  -0.79537  -0.78301  -0.78193  -0.65217
 Alpha  occ. eigenvalues --   -0.64958  -0.61039  -0.60842  -0.59397  -0.59295
 Alpha  occ. eigenvalues --   -0.57665  -0.57536  -0.55454  -0.55111  -0.52724
 Alpha  occ. eigenvalues --   -0.52631  -0.52471  -0.52335  -0.50068  -0.49796
 Alpha  occ. eigenvalues --   -0.47978  -0.47841  -0.46762  -0.46527  -0.45912
 Alpha  occ. eigenvalues --   -0.45812  -0.45611  -0.45554  -0.43833  -0.43728
 Alpha virt. eigenvalues --    0.20492   0.22984   0.23667   0.24708   0.26023
 Alpha virt. eigenvalues --    0.26261   0.27082   0.27555   0.27833   0.29498
 Alpha virt. eigenvalues --    0.30693   0.30929   0.31744   0.32086   0.32384

 Mulliken charges:
               1
     1  C   -0.298458
     2  C   -0.300722
     3  C   -0.482428
     4  H    0.149707
     5  H    0.149093
     6  H    0.152294
     7  H    0.152003
     8  H    0.161693
     9  H    0.154982
    10  H    0.162238
    11  C   -0.298298
    12  C   -0.299713
    13  C   -0.475747
    14  H    0.149734
    15  H    0.149778
    16  H    0.151996
    17  H    0.152008
    18  H    0.155250
    19  H    0.155247
    20  H    0.160413
    21  C   -0.300234
    22  C   -0.299302
    23  C   -0.475733
    24  H    0.149813
    25  H    0.150958
    26  H    0.152068
    27  H    0.150496
    28  H    0.155383
    29  H    0.155269
    30  H    0.160051
    31  C   -0.301135
    32  C   -0.302212
    33  C   -0.477008
    34  H    0.149752
    35  H    0.151103
    36  H    0.151263
    37  H    0.157865
    38  H    0.156183
    39  H    0.154629
    40  H    0.159719
 Sum of Mulliken charges =  -0.00000

 Dipole moment (field-independent basis, Debye):
    X=             -0.0341    Y=             -0.0142    Z=             -0.0183  Tot=              0.0412
 Quadrupole moment (field-independent basis, Debye-Ang):
   XX=            -85.0209   YY=            -85.6166   ZZ=            -84.2375
   XY=              0.7807   XZ=              0.4464   YZ=              0.7861

 Normal termination of Gaussian 16 at Thu May  6 00:41:47 2021.
