 Gaussian 16, Revision A.03,
 Gaussian 16:  EM64L-G16RevA.03 25-Dec-2016

 -------------
 #p 6-31g* mp2
 -------------

 ------------------------------------------------------
 Input file generated by CHIRIPA (05-May-2021 14:53:18)
 ------------------------------------------------------
 Symbolic Z-matrix:
 Charge =  0 Multiplicity = 1

                         Standard orientation:
 ---------------------------------------------------------------------
 Center     Atomic      Atomic             Coordinates (Angstroms)
 Number     Number       Type             X           Y           Z
 ---------------------------------------------------------------------
      1          6           0       -4.844612    0.268375   -0.036326
      2          6           0       -5.968517   -0.766772   -0.093714
      3          6           0       -7.273685   -0.192317   -0.645376
      4          1           0       -5.165998    1.115094    0.585544
      5          1           0       -4.672615    0.668907   -1.044982
      6          1           0       -6.137402   -1.166239    0.914512
      7          1           0       -5.644345   -1.611214   -0.715363
      8          1           0       -7.127694    0.189341   -1.661065
      9          1           0       -7.623553    0.636844   -0.021930
     10          1           0       -8.063518   -0.949273   -0.677653
     11          6           0       -3.533412   -0.290843    0.513000
     12          6           0       -2.409507    0.744304    0.570388
     13          6           0       -1.104339    0.169849    1.122050
     14          1           0       -3.705409   -0.691375    1.521656
     15          1           0       -3.212026   -1.137563   -0.108869
     16          1           0       -2.733679    1.588745    1.192037
     17          1           0       -2.240622    1.143771   -0.437838
     18          1           0       -0.754471   -0.659312    0.498604
     19          1           0       -1.250330   -0.211810    2.137740
     20          1           0       -0.314506    0.926805    1.154327
     21          6           0        2.665205    2.453637   -0.326098
     22          6           0        1.741015    1.479236   -0.717170
     23          6           0        2.066771    0.121642   -0.643915
     24          6           0        3.331393   -0.227584   -0.172676
     25          6           0        4.273875    0.719712    0.224374
     26          6           0        3.926461    2.071439    0.142600
     27          1           0        2.403738    3.505970   -0.386313
     28          1           0        0.760767    1.773137   -1.081560
     29          1           0        1.370432   -0.653463   -0.940126
     30          1           0        5.243238    0.395972    0.583463
     31          1           0        4.646205    2.825996    0.446997
     32          7           0        3.687721   -1.661702   -0.090615
     33          8           0        4.808435   -1.943396    0.328055
     34          8           0        2.839548   -2.476915   -0.446518
 ---------------------------------------------------------------------

 SCF Done:  E(RHF) =  -669.533979269     A.U. after   15 cycles
 E2 =    -0.2092750721D+01 EUMP2 =    -0.67162672998993D+03

 The electronic state is 1-A.
 Alpha  occ. eigenvalues --  -20.60746 -20.60740 -15.85799 -11.31154 -11.27724
 Alpha  occ. eigenvalues --  -11.27711 -11.27480 -11.26745 -11.26713 -11.22174
 Alpha  occ. eigenvalues --  -11.21824 -11.21756 -11.21676 -11.21481 -11.21265
 Alpha  occ. eigenvalues --   -1.59820  -1.39374  -1.19341  -1.08799  -1.08734
 Alpha  occ. eigenvalues --   -1.04761  -1.03895  -0.96341  -0.95567  -0.87359
 Alpha  occ. eigenvalues --   -0.86144  -0.82404  -0.79977  -0.78594  -0.77447
 Alpha  occ. eigenvalues --   -0.72019  -0.71142  -0.70454  -0.65440  -0.64990
 Alpha  occ. eigenvalues --   -0.64769  -0.62186  -0.61245  -0.59721  -0.57957
 Alpha  occ. eigenvalues --   -0.55648  -0.55220  -0.53466  -0.52978  -0.52737
 Alpha  occ. eigenvalues --   -0.52493  -0.50261  -0.48776  -0.48772  -0.48276
 Alpha  occ. eigenvalues --   -0.47016  -0.46133  -0.46056  -0.44780  -0.44153
 Alpha  occ. eigenvalues --   -0.37327  -0.36238
 Alpha virt. eigenvalues --    0.05089   0.11202   0.16519   0.20054   0.22779
 Alpha virt. eigenvalues --    0.23965   0.25875   0.26084   0.27024   0.28118
 Alpha virt. eigenvalues --    0.29210   0.29536   0.31375   0.31499   0.31990

 Mulliken charges:
               1
     1  C   -0.298394
     2  C   -0.300111
     3  C   -0.475891
     4  H    0.149572
     5  H    0.148206
     6  H    0.153087
     7  H    0.153258
     8  H    0.154916
     9  H    0.155082
    10  H    0.161518
    11  C   -0.298432
    12  C   -0.301195
    13  C   -0.483296
    14  H    0.152479
    15  H    0.151665
    16  H    0.153091
    17  H    0.143480
    18  H    0.154098
    19  H    0.160719
    20  H    0.163305
    21  C   -0.172625
    22  C   -0.220907
    23  C   -0.166171
    24  C    0.157835
    25  C   -0.171170
    26  C   -0.218508
    27  H    0.225604
    28  H    0.226617
    29  H    0.276435
    30  H    0.275468
    31  H    0.223270
    32  N    0.488207
    33  O   -0.460454
    34  O   -0.460759
 Sum of Mulliken charges =  -0.00000

 Dipole moment (field-independent basis, Debye):
    X=             -1.3199    Y=              5.0065    Z=             -0.2288  Tot=              5.1826
 Quadrupole moment (field-independent basis, Debye-Ang):
   XX=            -99.8524   YY=            -97.4386   ZZ=            -93.9676
   XY=             18.9268   XZ=              0.3316   YZ=              0.0288

 Normal termination of Gaussian 16 at Thu May  6 17:19:43 2021.
