 Gaussian 16, Revision A.03,
 Gaussian 16:  EM64L-G16RevA.03 25-Dec-2016

 -------------
 #p 6-31g* mp2
 -------------

 ------------------------------------------------------
 Input file generated by CHIRIPA (05-May-2021 14:53:16)
 ------------------------------------------------------
 Symbolic Z-matrix:
 Charge =  0 Multiplicity = 1

                         Standard orientation:
 ---------------------------------------------------------------------
 Center     Atomic      Atomic             Coordinates (Angstroms)
 Number     Number       Type             X           Y           Z
 ---------------------------------------------------------------------
      1          6           0        3.268849   -0.654530    0.393546
      2          6           0        2.989893   -1.758777   -0.626654
      3          6           0        2.455555   -3.038053    0.018117
      4          1           0        3.991453   -1.022787    1.134609
      5          1           0        2.344096   -0.430599    0.943167
      6          1           0        3.914565   -1.979592   -1.175141
      7          1           0        2.268014   -1.387783   -1.365484
      8          1           0        1.519484   -2.839417    0.550015
      9          1           0        3.175391   -3.434589    0.741440
     10          1           0        2.263010   -3.814122   -0.729214
     11          6           0        3.803537    0.630689   -0.235779
     12          6           0        4.082492    1.734936    0.784421
     13          6           0        4.616830    3.014212    0.139650
     14          1           0        4.728289    0.406758   -0.785400
     15          1           0        3.080932    0.998946   -0.976842
     16          1           0        4.804372    1.363942    1.523251
     17          1           0        3.157820    1.955751    1.332908
     18          1           0        3.896994    3.410747   -0.583673
     19          1           0        5.552901    2.815576   -0.392248
     20          1           0        4.809375    3.790281    0.886981
     21          6           0       -4.829104    1.444644    0.126830
     22          6           0       -4.792610    0.186570    0.737109
     23          6           0       -3.652938   -0.617246    0.639252
     24          6           0       -2.562873   -0.129450   -0.079848
     25          6           0       -2.568659    1.119510   -0.699006
     26          6           0       -3.718969    1.906285   -0.588018
     27          1           0       -5.718561    2.062449    0.207948
     28          1           0       -5.653276   -0.174523    1.292905
     29          1           0       -3.597707   -1.595167    1.101893
     30          1           0       -1.695120    1.452321   -1.246349
     31          1           0       -3.744483    2.882907   -1.062997
     32          7           0       -1.350722   -0.971394   -0.190394
     33          8           0       -0.403531   -0.518727   -0.829580
     34          8           0       -1.370783   -2.068032    0.364238
 ---------------------------------------------------------------------

 SCF Done:  E(RHF) =  -669.536937813     A.U. after   15 cycles
 E2 =    -0.2092509190D+01 EUMP2 =    -0.67162944700330D+03

 The electronic state is 1-A.
 Alpha  occ. eigenvalues --  -20.61226 -20.61215 -15.86212 -11.31449 -11.27996
 Alpha  occ. eigenvalues --  -11.27991 -11.27716 -11.26980 -11.26970 -11.20763
 Alpha  occ. eigenvalues --  -11.20459 -11.20210 -11.19835 -11.19618 -11.18991
 Alpha  occ. eigenvalues --   -1.60250  -1.39811  -1.19603  -1.09025  -1.07085
 Alpha  occ. eigenvalues --   -1.04984  -1.02131  -0.95879  -0.94616  -0.86389
 Alpha  occ. eigenvalues --   -0.85646  -0.82717  -0.78305  -0.77782  -0.76796
 Alpha  occ. eigenvalues --   -0.72427  -0.71551  -0.70710  -0.65261  -0.64990
 Alpha  occ. eigenvalues --   -0.63699  -0.62331  -0.59510  -0.58107  -0.56209
 Alpha  occ. eigenvalues --   -0.55493  -0.53902  -0.53320  -0.53074  -0.51362
 Alpha  occ. eigenvalues --   -0.51055  -0.49244  -0.49155  -0.48496  -0.46577
 Alpha  occ. eigenvalues --   -0.45333  -0.45223  -0.44336  -0.44139  -0.42405
 Alpha  occ. eigenvalues --   -0.37576  -0.36580
 Alpha virt. eigenvalues --    0.04725   0.11077   0.16237   0.21198   0.24072
 Alpha virt. eigenvalues --    0.25826   0.27146   0.27740   0.28334   0.28745
 Alpha virt. eigenvalues --    0.29325   0.30824   0.32334   0.32770   0.32844

 Mulliken charges:
               1
     1  C   -0.295799
     2  C   -0.300151
     3  C   -0.480869
     4  H    0.142032
     5  H    0.153424
     6  H    0.139518
     7  H    0.170754
     8  H    0.176400
     9  H    0.142446
    10  H    0.153759
    11  C   -0.297960
    12  C   -0.298344
    13  C   -0.474543
    14  H    0.145491
    15  H    0.151567
    16  H    0.149999
    17  H    0.149405
    18  H    0.152432
    19  H    0.154264
    20  H    0.156485
    21  C   -0.170219
    22  C   -0.218612
    23  C   -0.170251
    24  C    0.157962
    25  C   -0.170616
    26  C   -0.218565
    27  H    0.226618
    28  H    0.224417
    29  H    0.276290
    30  H    0.275791
    31  H    0.224422
    32  N    0.490536
    33  O   -0.460727
    34  O   -0.457357
 Sum of Mulliken charges =  -0.00000

 Dipole moment (field-independent basis, Debye):
    X=             -4.8433    Y=              2.9642    Z=              0.3350  Tot=              5.6882
 Quadrupole moment (field-independent basis, Debye-Ang):
   XX=            -73.1763   YY=            -94.9832   ZZ=            -94.1434
   XY=             -5.9382   XZ=             -2.0825   YZ=             -2.3856

 Normal termination of Gaussian 16 at Thu May  6 04:20:50 2021.
