 Gaussian 16, Revision A.03,
 Gaussian 16:  EM64L-G16RevA.03 25-Dec-2016

 -------------
 #p 6-31g* mp2
 -------------

 ------------------------------------------------------
 Input file generated by CHIRIPA (05-May-2021 14:53:12)
 ------------------------------------------------------
 Symbolic Z-matrix:
 Charge =  0 Multiplicity = 1

                         Standard orientation:
 ---------------------------------------------------------------------
 Center     Atomic      Atomic             Coordinates (Angstroms)
 Number     Number       Type             X           Y           Z
 ---------------------------------------------------------------------
      1          6           0        4.065330   -0.069475   -0.310473
      2          6           0        2.853313   -0.234817    0.606948
      3          6           0        1.525214   -0.073891   -0.133357
      4          1           0        4.025880    0.920735   -0.784682
      5          1           0        4.005275   -0.807464   -1.122360
      6          1           0        2.916352    0.502351    1.417642
      7          1           0        2.895754   -1.224674    1.079175
      8          1           0        1.436178   -0.818381   -0.931108
      9          1           0        1.456893    0.918457   -0.590718
     10          1           0        0.672141   -0.195947    0.541350
     11          6           0        5.400365   -0.227590    0.415067
     12          6           0        6.612382   -0.062247   -0.502354
     13          6           0        7.940480   -0.223174    0.237951
     14          1           0        5.460420    0.510399    1.226954
     15          1           0        5.439814   -1.217800    0.889276
     16          1           0        6.569941    0.927609   -0.974581
     17          1           0        6.549343   -0.799416   -1.313048
     18          1           0        8.008802   -1.215521    0.695313
     19          1           0        8.029517    0.521316    1.035702
     20          1           0        8.793553   -0.101118   -0.436756
     21          6           0       -5.117595   -1.966222    0.075498
     22          6           0       -5.681401   -0.717731    0.358194
     23          6           0       -4.904058    0.442666    0.296844
     24          6           0       -3.560251    0.317346   -0.052106
     25          6           0       -2.969506   -0.912207   -0.339351
     26          6           0       -3.765831   -2.059311   -0.271759
     27          1           0       -5.728827   -2.862483    0.125581
     28          1           0       -6.730923   -0.642425    0.628153
     29          1           0       -5.314940    1.421866    0.510764
     30          1           0       -1.920379   -0.955532   -0.605568
     31          1           0       -3.325289   -3.027577   -0.491821
     32          7           0       -2.727266    1.538771   -0.120359
     33          8           0       -1.545829    1.401563   -0.430225
     34          8           0       -3.271582    2.610203    0.137304
 ---------------------------------------------------------------------

 SCF Done:  E(RHF) =  -669.535544934     A.U. after   15 cycles
 E2 =    -0.2091254842D+01 EUMP2 =    -0.67162679977622D+03

 The electronic state is 1-A.
 Alpha  occ. eigenvalues --  -20.60808 -20.60803 -15.85846 -11.31204 -11.27776
 Alpha  occ. eigenvalues --  -11.27755 -11.27521 -11.26792 -11.26780 -11.21265
 Alpha  occ. eigenvalues --  -11.20982 -11.20955 -11.20847 -11.20796 -11.20129
 Alpha  occ. eigenvalues --   -1.59881  -1.39435  -1.19378  -1.08778  -1.07951
 Alpha  occ. eigenvalues --   -1.04778  -1.03005  -0.95634  -0.95416  -0.86450
 Alpha  occ. eigenvalues --   -0.86177  -0.82445  -0.79085  -0.77774  -0.77467
 Alpha  occ. eigenvalues --   -0.72072  -0.71200  -0.70486  -0.65034  -0.64784
 Alpha  occ. eigenvalues --   -0.64585  -0.62127  -0.60402  -0.58823  -0.57053
 Alpha  occ. eigenvalues --   -0.55285  -0.54719  -0.53111  -0.52879  -0.52106
 Alpha  occ. eigenvalues --   -0.51859  -0.49387  -0.48824  -0.48808  -0.47388
 Alpha  occ. eigenvalues --   -0.46121  -0.45294  -0.45229  -0.44840  -0.43223
 Alpha  occ. eigenvalues --   -0.37363  -0.36382
 Alpha virt. eigenvalues --    0.05018   0.11254   0.16510   0.21178   0.23313
 Alpha virt. eigenvalues --    0.24606   0.26516   0.27157   0.27684   0.27959
 Alpha virt. eigenvalues --    0.29192   0.30634   0.31668   0.31947   0.32326

 Mulliken charges:
               1
     1  C   -0.298004
     2  C   -0.301413
     3  C   -0.472507
     4  H    0.151747
     5  H    0.146842
     6  H    0.153064
     7  H    0.145731
     8  H    0.142888
     9  H    0.170846
    10  H    0.161657
    11  C   -0.297743
    12  C   -0.299301
    13  C   -0.475430
    14  H    0.149759
    15  H    0.147621
    16  H    0.152562
    17  H    0.150749
    18  H    0.154095
    19  H    0.155226
    20  H    0.159336
    21  C   -0.170572
    22  C   -0.218707
    23  C   -0.170756
    24  C    0.157196
    25  C   -0.173416
    26  C   -0.219289
    27  H    0.225624
    28  H    0.223461
    29  H    0.275559
    30  H    0.280632
    31  H    0.223765
    32  N    0.491492
    33  O   -0.462325
    34  O   -0.460386
 Sum of Mulliken charges =  -0.00000

 Dipole moment (field-independent basis, Debye):
    X=             -3.0944    Y=             -4.1652    Z=              0.2195  Tot=              5.1935
 Quadrupole moment (field-independent basis, Debye-Ang):
   XX=            -72.7675   YY=            -95.4085   ZZ=            -95.5193
   XY=             12.5724   XZ=             -2.3834   YZ=              1.3536

 Normal termination of Gaussian 16 at Thu May  6 02:32:13 2021.
