 Gaussian 16, Revision A.03,
 Gaussian 16:  EM64L-G16RevA.03 25-Dec-2016

 -------------
 #p 6-31g* mp2
 -------------

 ------------------------------------------------------
 Input file generated by CHIRIPA (05-May-2021 14:53:17)
 ------------------------------------------------------
 Symbolic Z-matrix:
 Charge =  0 Multiplicity = 1

                         Standard orientation:
 ---------------------------------------------------------------------
 Center     Atomic      Atomic             Coordinates (Angstroms)
 Number     Number       Type             X           Y           Z
 ---------------------------------------------------------------------
      1          6           0        3.062593   -0.395241   -0.149161
      2          6           0        2.343983   -1.653626    0.338744
      3          6           0        0.827386   -1.574670    0.161282
      4          1           0        2.673168    0.476000    0.395111
      5          1           0        2.824512   -0.233340   -1.209586
      6          1           0        2.584455   -1.813877    1.397568
      7          1           0        2.735300   -2.521998   -0.206618
      8          1           0        0.569570   -1.438576   -0.893995
      9          1           0        0.417868   -0.726433    0.719305
     10          1           0        0.333703   -2.484585    0.516516
     11          6           0        4.579329   -0.459050    0.021627
     12          6           0        5.297938    0.799336   -0.466279
     13          6           0        6.814535    0.720380   -0.288817
     14          1           0        4.817409   -0.620950    1.082051
     15          1           0        4.968753   -1.330291   -0.522646
     16          1           0        4.906622    1.667707    0.079083
     17          1           0        5.057466    0.959587   -1.525103
     18          1           0        7.224053   -0.127858   -0.846840
     19          1           0        7.072352    0.584286    0.766460
     20          1           0        7.308218    1.630295   -0.644051
     21          6           0       -2.098273    2.664116    0.435319
     22          6           0       -3.021928    2.427024   -0.587994
     23          6           0       -3.520034    1.139837   -0.810675
     24          6           0       -3.070863    0.108411    0.012550
     25          6           0       -2.151390    0.312814    1.040206
     26          6           0       -1.666713    1.608116    1.244727
     27          1           0       -1.716548    3.667185    0.601249
     28          1           0       -3.358858    3.245213   -1.218143
     29          1           0       -4.235791    0.928212   -1.595739
     30          1           0       -1.834229   -0.522967    1.652006
     31          1           0       -0.949463    1.789301    2.040195
     32          7           0       -3.591078   -1.258571   -0.213579
     33          8           0       -3.179563   -2.150231    0.525498
     34          8           0       -4.400487   -1.412469   -1.125615
 ---------------------------------------------------------------------

 SCF Done:  E(RHF) =  -669.534573550     A.U. after   15 cycles
 E2 =    -0.2092472778D+01 EUMP2 =    -0.67162704632796D+03

 The electronic state is 1-A.
 Alpha  occ. eigenvalues --  -20.60749 -20.60741 -15.85797 -11.31144 -11.27750
 Alpha  occ. eigenvalues --  -11.27719 -11.27500 -11.26748 -11.26738 -11.21804
 Alpha  occ. eigenvalues --  -11.21661 -11.21573 -11.21514 -11.21245 -11.21008
 Alpha  occ. eigenvalues --   -1.59816  -1.39371  -1.19345  -1.08735  -1.08581
 Alpha  occ. eigenvalues --   -1.04764  -1.03648  -0.96105  -0.95567  -0.87127
 Alpha  occ. eigenvalues --   -0.86140  -0.82412  -0.79728  -0.78404  -0.77445
 Alpha  occ. eigenvalues --   -0.72018  -0.71134  -0.70467  -0.65229  -0.64999
 Alpha  occ. eigenvalues --   -0.64760  -0.62148  -0.61036  -0.59446  -0.57709
 Alpha  occ. eigenvalues --   -0.55464  -0.55221  -0.53222  -0.52902  -0.52695
 Alpha  occ. eigenvalues --   -0.52378  -0.50036  -0.48775  -0.48769  -0.48022
 Alpha  occ. eigenvalues --   -0.46764  -0.45943  -0.45871  -0.44782  -0.43882
 Alpha  occ. eigenvalues --   -0.37322  -0.36275
 Alpha virt. eigenvalues --    0.05060   0.11271   0.16447   0.21069   0.22768
 Alpha virt. eigenvalues --    0.24169   0.26263   0.26890   0.27348   0.27936
 Alpha virt. eigenvalues --    0.29047   0.30401   0.31548   0.31733   0.32131

 Mulliken charges:
               1
     1  C   -0.296910
     2  C   -0.300532
     3  C   -0.479655
     4  H    0.144157
     5  H    0.150497
     6  H    0.150083
     7  H    0.154423
     8  H    0.157185
     9  H    0.145592
    10  H    0.171703
    11  C   -0.298281
    12  C   -0.299298
    13  C   -0.475714
    14  H    0.149056
    15  H    0.151288
    16  H    0.149505
    17  H    0.152225
    18  H    0.156242
    19  H    0.155122
    20  H    0.160040
    21  C   -0.170083
    22  C   -0.218992
    23  C   -0.171024
    24  C    0.156799
    25  C   -0.166260
    26  C   -0.219636
    27  H    0.225548
    28  H    0.223260
    29  H    0.275536
    30  H    0.277965
    31  H    0.222871
    32  N    0.488554
    33  O   -0.460600
    34  O   -0.460665
 Sum of Mulliken charges =  -0.00000

 Dipole moment (field-independent basis, Debye):
    X=              1.7982    Y=              4.7350    Z=              0.7526  Tot=              5.1205
 Quadrupole moment (field-independent basis, Debye-Ang):
   XX=           -106.3473   YY=            -93.3507   ZZ=            -91.4037
   XY=            -16.0375   XZ=             -0.2282   YZ=             -0.9312

 Normal termination of Gaussian 16 at Thu May  6 15:38:00 2021.
