 Gaussian 16, Revision A.03,
 Gaussian 16:  EM64L-G16RevA.03 25-Dec-2016

 -------------
 #p 6-31g* mp2
 -------------

 ------------------------------------------------------
 Input file generated by CHIRIPA (05-May-2021 14:53:17)
 ------------------------------------------------------
 Symbolic Z-matrix:
 Charge =  0 Multiplicity = 1

                         Standard orientation:
 ---------------------------------------------------------------------
 Center     Atomic      Atomic             Coordinates (Angstroms)
 Number     Number       Type             X           Y           Z
 ---------------------------------------------------------------------
      1          6           0       -3.546139    0.441915   -0.326715
      2          6           0       -3.912676   -0.777716    0.519532
      3          6           0       -5.239685   -1.410976    0.100218
      4          1           0       -4.349699    1.187294   -0.251569
      5          1           0       -3.493783    0.144169   -1.383125
      6          1           0       -3.962969   -0.478058    1.574184
      7          1           0       -3.108062   -1.520199    0.442514
      8          1           0       -5.197846   -1.737389   -0.943959
      9          1           0       -6.057611   -0.689327    0.194141
     10          1           0       -5.482306   -2.281084    0.718204
     11          6           0       -2.222076    1.085988    0.080416
     12          6           0       -1.855539    2.305619   -0.765831
     13          6           0       -0.528530    2.938879   -0.346517
     14          1           0       -2.274432    1.383734    1.136825
     15          1           0       -1.418516    0.340609    0.005269
     16          1           0       -2.660153    3.048102   -0.688814
     17          1           0       -1.805246    2.005961   -1.820483
     18          1           0        0.289396    2.217230   -0.440440
     19          1           0       -0.570369    3.265292    0.697659
     20          1           0       -0.285909    3.808987   -0.964504
     21          6           0        1.273073   -2.883440   -0.324155
     22          6           0        1.033427   -2.231527    0.889970
     23          6           0        1.571436   -0.964381    1.133764
     24          6           0        2.347965   -0.375777    0.136850
     25          6           0        2.604723   -0.999768   -1.082986
     26          6           0        2.056575   -2.266567   -1.305029
     27          1           0        0.851197   -3.867654   -0.505092
     28          1           0        0.425327   -2.708194    1.653546
     29          1           0        1.401785   -0.437170    2.064724
     30          1           0        3.214897   -0.499263   -1.825011
     31          1           0        2.244353   -2.770490   -2.248876
     32          7           0        2.922898    0.965510    0.383431
     33          8           0        3.603653    1.462678   -0.511016
     34          8           0        2.681889    1.494245    1.466478
 ---------------------------------------------------------------------

 SCF Done:  E(RHF) =  -669.535700706     A.U. after   15 cycles
 E2 =    -0.2092586921D+01 EUMP2 =    -0.67162828762760D+03

 The electronic state is 1-A.
 Alpha  occ. eigenvalues --  -20.60808 -20.60799 -15.85852 -11.31260 -11.27838
 Alpha  occ. eigenvalues --  -11.27828 -11.27578 -11.26854 -11.26838 -11.21860
 Alpha  occ. eigenvalues --  -11.21466 -11.21364 -11.21333 -11.21286 -11.20560
 Alpha  occ. eigenvalues --   -1.59883  -1.39432  -1.19439  -1.08826  -1.08435
 Alpha  occ. eigenvalues --   -1.04839  -1.03487  -0.95910  -0.95653  -0.86921
 Alpha  occ. eigenvalues --   -0.86233  -0.82478  -0.79571  -0.78235  -0.77520
 Alpha  occ. eigenvalues --   -0.72073  -0.71228  -0.70534  -0.65086  -0.65071
 Alpha  occ. eigenvalues --   -0.64833  -0.62180  -0.60888  -0.59317  -0.57519
 Alpha  occ. eigenvalues --   -0.55337  -0.55195  -0.53185  -0.52924  -0.52591
 Alpha  occ. eigenvalues --   -0.52320  -0.49860  -0.48837  -0.48827  -0.47875
 Alpha  occ. eigenvalues --   -0.46627  -0.45777  -0.45684  -0.44799  -0.43737
 Alpha  occ. eigenvalues --   -0.37413  -0.36422
 Alpha virt. eigenvalues --    0.04997   0.11186   0.16463   0.21279   0.22781
 Alpha virt. eigenvalues --    0.24200   0.26333   0.26959   0.27614   0.27960
 Alpha virt. eigenvalues --    0.28323   0.30521   0.31474   0.31759   0.32185

 Mulliken charges:
               1
     1  C   -0.297516
     2  C   -0.298820
     3  C   -0.475478
     4  H    0.150711
     5  H    0.148715
     6  H    0.151766
     7  H    0.146281
     8  H    0.154704
     9  H    0.156988
    10  H    0.158544
    11  C   -0.301206
    12  C   -0.300724
    13  C   -0.471536
    14  H    0.149135
    15  H    0.149353
    16  H    0.151266
    17  H    0.149901
    18  H    0.151098
    19  H    0.160011
    20  H    0.162781
    21  C   -0.170986
    22  C   -0.219165
    23  C   -0.169782
    24  C    0.154702
    25  C   -0.171374
    26  C   -0.218655
    27  H    0.226050
    28  H    0.224591
    29  H    0.276824
    30  H    0.276138
    31  H    0.223761
    32  N    0.489943
    33  O   -0.459725
    34  O   -0.458297
 Sum of Mulliken charges =  -0.00000

 Dipole moment (field-independent basis, Debye):
    X=             -1.9244    Y=             -4.6507    Z=             -0.8392  Tot=              5.1027
 Quadrupole moment (field-independent basis, Debye-Ang):
   XX=           -104.8933   YY=            -91.4695   ZZ=            -90.6067
   XY=            -11.3615   XZ=             -5.0556   YZ=              0.1634

 Normal termination of Gaussian 16 at Wed May  5 22:01:04 2021.
