 Gaussian 16, Revision A.03,
 Gaussian 16:  EM64L-G16RevA.03 25-Dec-2016

 -------------
 #p 6-31g* mp2
 -------------

 ------------------------------------------------------
 Input file generated by CHIRIPA (05-May-2021 14:51:13)
 ------------------------------------------------------
 Symbolic Z-matrix:
 Charge =  0 Multiplicity = 1

                         Standard orientation:
 ---------------------------------------------------------------------
 Center     Atomic      Atomic             Coordinates (Angstroms)
 Number     Number       Type             X           Y           Z
 ---------------------------------------------------------------------
      1          6           0       -2.450944    0.237289   -1.092188
      2          6           0       -1.846358    1.630368   -0.913878
      3          6           0       -0.995838    2.063012   -2.108545
      4          1           0       -1.642010   -0.489028   -1.250413
      5          1           0       -3.064430    0.225378   -2.003718
      6          1           0       -1.235311    1.640035   -0.002208
      7          1           0       -2.656814    2.353424   -0.755868
      8          1           0       -1.597368    2.081595   -3.023104
      9          1           0       -0.167788    1.364153   -2.265161
     10          1           0       -0.573426    3.061687   -1.959962
     11          6           0       -3.303899   -0.209290    0.093883
     12          6           0       -3.908484   -1.602368   -0.084427
     13          6           0       -4.759004   -2.035012    1.110240
     14          1           0       -2.690413   -0.197378    1.005413
     15          1           0       -4.112832    0.517027    0.252108
     16          1           0       -3.098028   -2.325424   -0.242437
     17          1           0       -4.519532   -1.612036   -0.996098
     18          1           0       -5.587055   -1.336153    1.266856
     19          1           0       -4.157474   -2.053595    2.024799
     20          1           0       -5.181416   -3.033687    0.961657
     21          6           0        2.456242    0.156471    1.113140
     22          6           0        1.766058    1.517437    1.016169
     23          6           0        0.927200    1.844244    2.252012
     24          1           0        1.696281   -0.623370    1.258918
     25          1           0        3.095953    0.140383    2.006396
     26          1           0        1.128908    1.531440    0.122603
     27          1           0        2.527736    2.294107    0.870412
     28          1           0        1.553282    1.857711    3.150033
     29          1           0        0.146505    1.090711    2.397975
     30          1           0        0.442788    2.821489    2.161476
     31          6           0        3.298600   -0.184471   -0.114834
     32          6           0        3.988784   -1.545437   -0.017863
     33          6           0        4.827642   -1.872244   -1.253707
     34          1           0        2.658890   -0.168383   -1.008090
     35          1           0        4.058562    0.595369   -0.260614
     36          1           0        3.227106   -2.322107    0.127894
     37          1           0        4.625935   -1.559440    0.875701
     38          1           0        5.608337   -1.118711   -1.399671
     39          1           0        4.201561   -1.885712   -2.151728
     40          1           0        5.312054   -2.849489   -1.163171
 ---------------------------------------------------------------------

 SCF Done:  E(RHF) =  -470.732853526     A.U. after   11 cycles
 E2 =    -0.1583985205D+01 EUMP2 =    -0.47231683873045D+03

 The electronic state is 1-A.
 Alpha  occ. eigenvalues --  -11.21630 -11.21629 -11.21584 -11.21577 -11.21440
 Alpha  occ. eigenvalues --  -11.21437 -11.21380 -11.21377 -11.21121 -11.21110
 Alpha  occ. eigenvalues --  -11.21091 -11.21091  -1.08496  -1.08427  -1.03626
 Alpha  occ. eigenvalues --   -1.03497  -0.96039  -0.95990  -0.87049  -0.87004
 Alpha  occ. eigenvalues --   -0.79637  -0.79604  -0.78300  -0.78249  -0.65358
 Alpha  occ. eigenvalues --   -0.64891  -0.61329  -0.60625  -0.59443  -0.59296
 Alpha  occ. eigenvalues --   -0.57699  -0.57533  -0.55382  -0.55234  -0.52714
 Alpha  occ. eigenvalues --   -0.52686  -0.52444  -0.52423  -0.50002  -0.49914
 Alpha  occ. eigenvalues --   -0.47975  -0.47898  -0.46738  -0.46549  -0.45908
 Alpha  occ. eigenvalues --   -0.45780  -0.45757  -0.45591  -0.43813  -0.43808
 Alpha virt. eigenvalues --    0.19919   0.23034   0.23702   0.23945   0.25968
 Alpha virt. eigenvalues --    0.26259   0.27062   0.27801   0.28812   0.29125
 Alpha virt. eigenvalues --    0.31277   0.31462   0.31642   0.32061   0.32162

 Mulliken charges:
               1
     1  C   -0.297771
     2  C   -0.309170
     3  C   -0.477148
     4  H    0.148538
     5  H    0.149764
     6  H    0.161927
     7  H    0.152345
     8  H    0.155945
     9  H    0.154525
    10  H    0.161023
    11  C   -0.298749
    12  C   -0.299652
    13  C   -0.475723
    14  H    0.149360
    15  H    0.150055
    16  H    0.151696
    17  H    0.152108
    18  H    0.155326
    19  H    0.155189
    20  H    0.160336
    21  C   -0.297676
    22  C   -0.309314
    23  C   -0.477296
    24  H    0.148687
    25  H    0.149717
    26  H    0.162216
    27  H    0.152288
    28  H    0.156060
    29  H    0.154486
    30  H    0.161001
    31  C   -0.298626
    32  C   -0.299658
    33  C   -0.475735
    34  H    0.149097
    35  H    0.150078
    36  H    0.151752
    37  H    0.152122
    38  H    0.155322
    39  H    0.155209
    40  H    0.160347
 Sum of Mulliken charges =  -0.00000

 Dipole moment (field-independent basis, Debye):
    X=              0.0009    Y=              0.0256    Z=              0.0018  Tot=              0.0257
 Quadrupole moment (field-independent basis, Debye-Ang):
   XX=            -84.1960   YY=            -84.7233   ZZ=            -85.7390
   XY=             -0.0288   XZ=              1.7595   YZ=              0.0613

 Normal termination of Gaussian 16 at Wed May  5 23:13:34 2021.
