 Gaussian 16, Revision A.03,
 Gaussian 16:  EM64L-G16RevA.03 25-Dec-2016

 -------------
 #p 6-31g* mp2
 -------------

 ------------------------------------------------------
 Input file generated by CHIRIPA (05-May-2021 14:55:25)
 ------------------------------------------------------
 Symbolic Z-matrix:
 Charge =  0 Multiplicity = 1

                         Standard orientation:
 ---------------------------------------------------------------------
 Center     Atomic      Atomic             Coordinates (Angstroms)
 Number     Number       Type             X           Y           Z
 ---------------------------------------------------------------------
      1          6           0        0.629224   -1.474167    1.060865
      2          6           0        1.056033   -0.217738    1.503291
      3          6           0        2.230044    0.350952    1.000462
      4          6           0        2.956068   -0.367737    0.051954
      5          6           0        2.556931   -1.621447   -0.408688
      6          6           0        1.379712   -2.170784    0.107967
      7          1           0       -0.284022   -1.908422    1.456845
      8          1           0        0.475201    0.325542    2.243241
      9          1           0        2.583499    1.321962    1.325465
     10          1           0        3.157088   -2.139009   -1.147173
     11          1           0        1.050661   -3.146719   -0.237462
     12          7           0        4.200639    0.224065   -0.487687
     13          8           0        4.822406   -0.429368   -1.322593
     14          8           0        4.530801    1.330147   -0.065534
     15          6           0       -3.208134    1.248352   -0.423784
     16          6           0       -1.941054    1.634915    0.339803
     17          6           0       -1.326364    2.943128   -0.158724
     18          1           0       -2.971658    1.159996   -1.492997
     19          1           0       -3.944514    2.058782   -0.332456
     20          1           0       -1.207796    0.823397    0.248215
     21          1           0       -2.180531    1.722173    1.407348
     22          1           0       -2.037807    3.768376   -0.051885
     23          1           0       -1.059546    2.864493   -1.217604
     24          1           0       -0.421690    3.200520    0.400893
     25          6           0       -3.834292   -0.057252    0.063097
     26          6           0       -5.101372   -0.443815   -0.700491
     27          6           0       -5.716061   -1.752027   -0.201964
     28          1           0       -3.097911   -0.867683   -0.028232
     29          1           0       -4.070767    0.031104    1.132310
     30          1           0       -4.861894   -0.531073   -1.768036
     31          1           0       -5.834629    0.367702   -0.608903
     32          1           0       -5.982879   -1.673394    0.856916
     33          1           0       -5.004617   -2.577276   -0.308803
     34          1           0       -6.620737   -2.009419   -0.761581
 ---------------------------------------------------------------------

 SCF Done:  E(RHF) =  -669.534825482     A.U. after   15 cycles
 E2 =    -0.2092994463D+01 EUMP2 =    -0.67162781994482D+03

 The electronic state is 1-A.
 Alpha  occ. eigenvalues --  -20.60800 -20.60794 -15.85853 -11.31245 -11.27799
 Alpha  occ. eigenvalues --  -11.27786 -11.27533 -11.26836 -11.26797 -11.22170
 Alpha  occ. eigenvalues --  -11.22097 -11.22071 -11.21905 -11.21642 -11.21514
 Alpha  occ. eigenvalues --   -1.59874  -1.39427  -1.19419  -1.09026  -1.08804
 Alpha  occ. eigenvalues --   -1.04827  -1.04075  -0.96525  -0.95637  -0.87536
 Alpha  occ. eigenvalues --   -0.86220  -0.82465  -0.80163  -0.78870  -0.77503
 Alpha  occ. eigenvalues --   -0.72071  -0.71197  -0.70510  -0.65656  -0.65064
 Alpha  occ. eigenvalues --   -0.64816  -0.62176  -0.61474  -0.59902  -0.58158
 Alpha  occ. eigenvalues --   -0.55813  -0.55302  -0.53279  -0.53106  -0.52953
 Alpha  occ. eigenvalues --   -0.52899  -0.50452  -0.48838  -0.48825  -0.48459
 Alpha  occ. eigenvalues --   -0.47185  -0.46390  -0.46318  -0.44827  -0.44343
 Alpha  occ. eigenvalues --   -0.37337  -0.36367
 Alpha virt. eigenvalues --    0.04984   0.11177   0.16383   0.20511   0.22552
 Alpha virt. eigenvalues --    0.23612   0.25473   0.26135   0.26616   0.28261
 Alpha virt. eigenvalues --    0.29191   0.30308   0.31090   0.31331   0.32125

 Mulliken charges:
               1
     1  C   -0.172890
     2  C   -0.217358
     3  C   -0.172221
     4  C    0.158846
     5  C   -0.171266
     6  C   -0.218500
     7  H    0.227815
     8  H    0.227851
     9  H    0.275760
    10  H    0.275758
    11  H    0.223679
    12  N    0.488057
    13  O   -0.460297
    14  O   -0.460068
    15  C   -0.297278
    16  C   -0.310921
    17  C   -0.474278
    18  H    0.152309
    19  H    0.151269
    20  H    0.160149
    21  H    0.144755
    22  H    0.156870
    23  H    0.159442
    24  H    0.156904
    25  C   -0.298217
    26  C   -0.299938
    27  C   -0.475772
    28  H    0.143086
    29  H    0.148053
    30  H    0.153730
    31  H    0.154236
    32  H    0.155101
    33  H    0.152625
    34  H    0.162708
 Sum of Mulliken charges =  -0.00000

 Dipole moment (field-independent basis, Debye):
    X=             -4.4005    Y=             -2.0698    Z=              1.8356  Tot=              5.1978
 Quadrupole moment (field-independent basis, Debye-Ang):
   XX=           -121.1155   YY=            -90.7704   ZZ=            -93.0004
   XY=             -6.0620   XZ=              4.9922   YZ=              2.3263

 Normal termination of Gaussian 16 at Thu May  6 04:49:31 2021.
