 Gaussian 16, Revision A.03,
 Gaussian 16:  EM64L-G16RevA.03 25-Dec-2016

 -------------
 #p 6-31g* mp2
 -------------

 ------------------------------------------------------
 Input file generated by CHIRIPA (05-May-2021 14:53:17)
 ------------------------------------------------------
 Symbolic Z-matrix:
 Charge =  0 Multiplicity = 1

                         Standard orientation:
 ---------------------------------------------------------------------
 Center     Atomic      Atomic             Coordinates (Angstroms)
 Number     Number       Type             X           Y           Z
 ---------------------------------------------------------------------
      1          6           0       -4.303121   -0.391901   -0.066813
      2          6           0       -4.022402   -1.865937   -0.360751
      3          6           0       -5.217248   -2.768393   -0.051380
      4          1           0       -4.583435   -0.282200    0.989755
      5          1           0       -5.171709   -0.066674   -0.656029
      6          1           0       -3.153751   -2.187916    0.227799
      7          1           0       -3.742537   -1.972116   -1.416696
      8          1           0       -6.086496   -2.475007   -0.648820
      9          1           0       -5.494364   -2.692034    1.005018
     10          1           0       -4.994718   -3.817721   -0.268752
     11          6           0       -3.118069    0.522875   -0.371060
     12          6           0       -3.398789    1.996910   -0.077122
     13          6           0       -2.203942    2.899366   -0.386493
     14          1           0       -2.249481    0.197647    0.218156
     15          1           0       -2.837755    0.413173   -1.427628
     16          1           0       -3.678653    2.103090    0.978822
     17          1           0       -4.267439    2.318890   -0.665672
     18          1           0       -1.926826    2.823007   -1.442891
     19          1           0       -1.334694    2.605981    0.210947
     20          1           0       -2.426472    3.948694   -0.169121
     21          6           0        4.842070   -1.421499   -0.672874
     22          6           0        4.669355   -0.105581   -1.114518
     23          6           0        3.596305    0.662976   -0.653612
     24          6           0        2.711045    0.081318    0.252631
     25          6           0        2.856253   -1.227036    0.711341
     26          6           0        3.936565   -1.977047    0.237042
     27          1           0        5.678461   -2.011328   -1.036119
     28          1           0        5.371019    0.328470   -1.821140
     29          1           0        3.438885    1.684122   -0.979028
     30          1           0        2.140315   -1.632284    1.416056
     31          1           0        4.068212   -2.998754    0.581757
     32          7           0        1.571211    0.885137    0.747661
     33          8           0        0.805213    0.349534    1.545792
     34          8           0        1.465390    2.035554    0.328160
 ---------------------------------------------------------------------

 SCF Done:  E(RHF) =  -669.537030582     A.U. after   15 cycles
 E2 =    -0.2091636182D+01 EUMP2 =    -0.67162866676391D+03

 The electronic state is 1-A.
 Alpha  occ. eigenvalues --  -20.61118 -20.61100 -15.86098 -11.31367 -11.27918
 Alpha  occ. eigenvalues --  -11.27913 -11.27647 -11.26911 -11.26901 -11.20921
 Alpha  occ. eigenvalues --  -11.20542 -11.20481 -11.20263 -11.20140 -11.19276
 Alpha  occ. eigenvalues --   -1.60141  -1.39699  -1.19525  -1.08941  -1.07394
 Alpha  occ. eigenvalues --   -1.04911  -1.02454  -0.95792  -0.94883  -0.86315
 Alpha  occ. eigenvalues --   -0.85898  -0.82627  -0.78570  -0.77690  -0.77154
 Alpha  occ. eigenvalues --   -0.72311  -0.71438  -0.70634  -0.65180  -0.64915
 Alpha  occ. eigenvalues --   -0.64024  -0.62258  -0.59847  -0.58340  -0.56495
 Alpha  occ. eigenvalues --   -0.55422  -0.54157  -0.53245  -0.53002  -0.51609
 Alpha  occ. eigenvalues --   -0.51316  -0.49242  -0.49085  -0.48666  -0.46835
 Alpha  occ. eigenvalues --   -0.45600  -0.45098  -0.44711  -0.44509  -0.42715
 Alpha  occ. eigenvalues --   -0.37499  -0.36508
 Alpha virt. eigenvalues --    0.04810   0.11149   0.16311   0.21283   0.23844
 Alpha virt. eigenvalues --    0.25455   0.27210   0.27641   0.28139   0.28553
 Alpha virt. eigenvalues --    0.29182   0.30865   0.32393   0.32513   0.32637

 Mulliken charges:
               1
     1  C   -0.297126
     2  C   -0.298966
     3  C   -0.474995
     4  H    0.149491
     5  H    0.146249
     6  H    0.152158
     7  H    0.149040
     8  H    0.154007
     9  H    0.154908
    10  H    0.156772
    11  C   -0.303106
    12  C   -0.297588
    13  C   -0.486427
    14  H    0.163138
    15  H    0.143625
    16  H    0.150695
    17  H    0.144469
    18  H    0.146720
    19  H    0.186041
    20  H    0.152951
    21  C   -0.170337
    22  C   -0.218614
    23  C   -0.170511
    24  C    0.158955
    25  C   -0.170503
    26  C   -0.218607
    27  H    0.226292
    28  H    0.224136
    29  H    0.276269
    30  H    0.275825
    31  H    0.224098
    32  N    0.488809
    33  O   -0.460753
    34  O   -0.457114
 Sum of Mulliken charges =  -0.00000

 Dipole moment (field-independent basis, Debye):
    X=              4.4605    Y=             -2.8232    Z=             -1.6094  Tot=              5.5187
 Quadrupole moment (field-independent basis, Debye-Ang):
   XX=            -74.7351   YY=            -93.5628   ZZ=            -93.9288
   XY=             -6.7343   XZ=             -4.8539   YZ=             -3.1660

 Normal termination of Gaussian 16 at Thu May  6 02:48:53 2021.
