 Gaussian 16, Revision A.03,
 Gaussian 16:  EM64L-G16RevA.03 25-Dec-2016

 -------------
 #p 6-31g* mp2
 -------------

 ------------------------------------------------------
 Input file generated by CHIRIPA (05-May-2021 14:55:22)
 ------------------------------------------------------
 Symbolic Z-matrix:
 Charge =  0 Multiplicity = 1

                         Standard orientation:
 ---------------------------------------------------------------------
 Center     Atomic      Atomic             Coordinates (Angstroms)
 Number     Number       Type             X           Y           Z
 ---------------------------------------------------------------------
      1          6           0        4.969289    1.333810   -0.074850
      2          6           0        4.354821    0.915248   -1.259653
      3          6           0        3.180055    0.158285   -1.221198
      4          6           0        2.644644   -0.163636    0.024993
      5          6           0        3.233329    0.238542    1.222904
      6          6           0        4.407573    0.994719    1.160468
      7          1           0        5.881673    1.921531   -0.114037
      8          1           0        4.788815    1.177118   -2.220443
      9          1           0        2.683596   -0.178850   -2.123023
     10          1           0        2.777078   -0.038021    2.165647
     11          1           0        4.882601    1.318406    2.082216
     12          7           0        1.401248   -0.964583    0.078396
     13          8           0        0.949496   -1.235093    1.188973
     14          8           0        0.901971   -1.306689   -0.991334
     15          6           0       -3.374476   -0.564868   -0.398167
     16          6           0       -3.059949   -1.754262    0.509798
     17          6           0       -2.514707   -2.957619   -0.259901
     18          1           0       -4.102891   -0.875555   -1.159632
     19          1           0       -2.462887   -0.273532   -0.938098
     20          1           0       -3.971530   -2.042389    1.048891
     21          1           0       -2.332343   -1.440656    1.269308
     22          1           0       -1.591080   -2.692910   -0.784728
     23          1           0       -3.239581   -3.298062   -1.006398
     24          1           0       -2.296660   -3.796428    0.408466
     25          6           0       -3.920425    0.645842    0.356718
     26          6           0       -4.234950    1.835236   -0.551247
     27          6           0       -4.780193    3.038593    0.218452
     28          1           0       -4.832013    0.354506    0.896649
     29          1           0       -3.192008    0.956528    1.118183
     30          1           0       -4.962557    1.521629   -1.310757
     31          1           0       -3.323370    2.123361   -1.090340
     32          1           0       -4.055319    3.379035    0.964949
     33          1           0       -5.703819    2.773884    0.743279
     34          1           0       -4.998239    3.877401   -0.449915
 ---------------------------------------------------------------------

 SCF Done:  E(RHF) =  -669.537072901     A.U. after   15 cycles
 E2 =    -0.2091912911D+01 EUMP2 =    -0.67162898581208D+03

 The electronic state is 1-A.
 Alpha  occ. eigenvalues --  -20.61186 -20.61173 -15.86173 -11.31424 -11.27972
 Alpha  occ. eigenvalues --  -11.27969 -11.27696 -11.26960 -11.26951 -11.20820
 Alpha  occ. eigenvalues --  -11.20476 -11.20334 -11.19959 -11.19825 -11.18993
 Alpha  occ. eigenvalues --   -1.60210  -1.39769  -1.19580  -1.08998  -1.07201
 Alpha  occ. eigenvalues --   -1.04963  -1.02220  -0.95852  -0.94686  -0.86367
 Alpha  occ. eigenvalues --   -0.85714  -0.82687  -0.78384  -0.77750  -0.76918
 Alpha  occ. eigenvalues --   -0.72382  -0.71512  -0.70687  -0.65235  -0.64967
 Alpha  occ. eigenvalues --   -0.63833  -0.62310  -0.59605  -0.58169  -0.56278
 Alpha  occ. eigenvalues --   -0.55473  -0.53972  -0.53299  -0.53053  -0.51415
 Alpha  occ. eigenvalues --   -0.51123  -0.49256  -0.49136  -0.48507  -0.46648
 Alpha  occ. eigenvalues --   -0.45416  -0.45211  -0.44458  -0.44253  -0.42500
 Alpha  occ. eigenvalues --   -0.37554  -0.36559
 Alpha virt. eigenvalues --    0.04764   0.11097   0.16275   0.21233   0.23978
 Alpha virt. eigenvalues --    0.25721   0.27166   0.27795   0.28215   0.28642
 Alpha virt. eigenvalues --    0.29357   0.30825   0.32312   0.32742   0.32774

 Mulliken charges:
               1
     1  C   -0.170276
     2  C   -0.218569
     3  C   -0.170595
     4  C    0.157891
     5  C   -0.170557
     6  C   -0.218606
     7  H    0.226512
     8  H    0.224332
     9  H    0.276115
    10  H    0.276097
    11  H    0.224310
    12  N    0.489351
    13  O   -0.458250
    14  O   -0.459263
    15  C   -0.299662
    16  C   -0.299442
    17  C   -0.484596
    18  H    0.144010
    19  H    0.156214
    20  H    0.141903
    21  H    0.163609
    22  H    0.183160
    23  H    0.142620
    24  H    0.154118
    25  C   -0.297565
    26  C   -0.298373
    27  C   -0.474783
    28  H    0.146486
    29  H    0.148930
    30  H    0.150433
    31  H    0.149945
    32  H    0.153296
    33  H    0.154255
    34  H    0.156950
 Sum of Mulliken charges =  -0.00000

 Dipole moment (field-independent basis, Debye):
    X=              4.9018    Y=              2.8125    Z=             -0.1835  Tot=              5.6543
 Quadrupole moment (field-independent basis, Debye-Ang):
   XX=            -72.9039   YY=            -98.0179   ZZ=            -89.9059
   XY=              7.5852   XZ=             -0.0101   YZ=             -0.0499

 Normal termination of Gaussian 16 at Thu May  6 04:37:29 2021.
