 Gaussian 16, Revision A.03,
 Gaussian 16:  EM64L-G16RevA.03 25-Dec-2016

 -------------
 #p 6-31g* mp2
 -------------

 ------------------------------------------------------
 Input file generated by CHIRIPA (05-May-2021 14:53:11)
 ------------------------------------------------------
 Symbolic Z-matrix:
 Charge =  0 Multiplicity = 1

                         Standard orientation:
 ---------------------------------------------------------------------
 Center     Atomic      Atomic             Coordinates (Angstroms)
 Number     Number       Type             X           Y           Z
 ---------------------------------------------------------------------
      1          6           0        4.215003   -0.399825    0.348649
      2          6           0        2.947237   -0.870294   -0.365083
      3          6           0        1.862030   -1.338691    0.604827
      4          1           0        4.604264   -1.218741    0.968970
      5          1           0        3.958349    0.418154    1.035988
      6          1           0        3.206436   -1.686215   -1.051890
      7          1           0        2.561055   -0.050225   -0.983926
      8          1           0        1.574862   -0.528036    1.282304
      9          1           0        2.223910   -2.173322    1.213953
     10          1           0        0.964671   -1.670611    0.073379
     11          6           0        5.309122    0.071521   -0.607627
     12          6           0        6.576888    0.541990    0.106105
     13          6           0        7.662095    1.010386   -0.863805
     14          1           0        5.565776   -0.746458   -1.294966
     15          1           0        4.919861    0.890436   -1.227948
     16          1           0        6.963069   -0.278079    0.724947
     17          1           0        6.317688    1.357911    0.792912
     18          1           0        7.300214    1.845017   -1.472931
     19          1           0        7.949262    0.199732   -1.541282
     20          1           0        8.559454    1.342307   -0.332357
     21          6           0       -5.864653    0.243413   -1.223478
     22          6           0       -5.401719    1.373395   -0.541309
     23          6           0       -4.214908    1.321095    0.195773
     24          6           0       -3.513060    0.117110    0.229225
     25          6           0       -3.948338   -1.025801   -0.439788
     26          6           0       -5.137766   -0.950474   -1.170633
     27          1           0       -6.787613    0.292984   -1.793638
     28          1           0       -5.964160    2.301922   -0.580572
     29          1           0       -3.833619    2.180816    0.733283
     30          1           0       -3.365872   -1.937286   -0.381936
     31          1           0       -5.494887   -1.829612   -1.699429
     32          7           0       -2.255249    0.049553    1.006239
     33          8           0       -1.655324   -1.023079    1.019913
     34          8           0       -1.893121    1.070514    1.586877
 ---------------------------------------------------------------------

 SCF Done:  E(RHF) =  -669.535762107     A.U. after   15 cycles
 E2 =    -0.2090931555D+01 EUMP2 =    -0.67162669366122D+03

 The electronic state is 1-A.
 Alpha  occ. eigenvalues --  -20.60902 -20.60891 -15.85929 -11.31275 -11.27841
 Alpha  occ. eigenvalues --  -11.27837 -11.27581 -11.26852 -11.26843 -11.20996
 Alpha  occ. eigenvalues --  -11.20652 -11.20584 -11.20449 -11.20390 -11.19304
 Alpha  occ. eigenvalues --   -1.59958  -1.39515  -1.19445  -1.08845  -1.07562
 Alpha  occ. eigenvalues --   -1.04845  -1.02567  -0.95687  -0.94974  -0.86245
 Alpha  occ. eigenvalues --   -0.85979  -0.82517  -0.78660  -0.77568  -0.77345
 Alpha  occ. eigenvalues --   -0.72152  -0.71276  -0.70554  -0.65100  -0.64848
 Alpha  occ. eigenvalues --   -0.64204  -0.62192  -0.59973  -0.58414  -0.56587
 Alpha  occ. eigenvalues --   -0.55349  -0.54273  -0.53176  -0.52937  -0.51640
 Alpha  occ. eigenvalues --   -0.51405  -0.49076  -0.48909  -0.48730  -0.46960
 Alpha  occ. eigenvalues --   -0.45722  -0.44934  -0.44872  -0.44785  -0.42765
 Alpha  occ. eigenvalues --   -0.37424  -0.36447
 Alpha virt. eigenvalues --    0.04945   0.11207   0.16424   0.21337   0.23670
 Alpha virt. eigenvalues --    0.25334   0.27254   0.27470   0.28161   0.28310
 Alpha virt. eigenvalues --    0.29133   0.30894   0.32326   0.32357   0.32568

 Mulliken charges:
               1
     1  C   -0.297576
     2  C   -0.300863
     3  C   -0.474032
     4  H    0.147818
     5  H    0.150788
     6  H    0.145472
     7  H    0.148282
     8  H    0.166186
     9  H    0.147366
    10  H    0.169207
    11  C   -0.297272
    12  C   -0.299048
    13  C   -0.475175
    14  H    0.147280
    15  H    0.148094
    16  H    0.151136
    17  H    0.151922
    18  H    0.154203
    19  H    0.153987
    20  H    0.158597
    21  C   -0.170678
    22  C   -0.218544
    23  C   -0.170785
    24  C    0.158153
    25  C   -0.170883
    26  C   -0.218509
    27  H    0.225912
    28  H    0.223731
    29  H    0.275760
    30  H    0.275570
    31  H    0.223761
    32  N    0.489354
    33  O   -0.459149
    34  O   -0.460068
 Sum of Mulliken charges =  -0.00000

 Dipole moment (field-independent basis, Debye):
    X=             -4.7767    Y=              0.2531    Z=             -2.6484  Tot=              5.4676
 Quadrupole moment (field-independent basis, Debye-Ang):
   XX=            -66.1517   YY=            -89.4799   ZZ=            -96.8463
   XY=             -2.5864   XZ=              9.4686   YZ=              1.4472

 Normal termination of Gaussian 16 at Thu May  6 05:38:35 2021.
