 Gaussian 16, Revision A.03,
 Gaussian 16:  EM64L-G16RevA.03 25-Dec-2016

 -------------
 #p 6-31g* mp2
 -------------

 ------------------------------------------------------
 Input file generated by CHIRIPA (05-May-2021 14:51:13)
 ------------------------------------------------------
 Symbolic Z-matrix:
 Charge =  0 Multiplicity = 1

                         Standard orientation:
 ---------------------------------------------------------------------
 Center     Atomic      Atomic             Coordinates (Angstroms)
 Number     Number       Type             X           Y           Z
 ---------------------------------------------------------------------
      1          6           0       -3.059781   -0.471524   -0.007687
      2          6           0       -3.056669   -1.410588   -1.214390
      3          6           0       -2.779212   -2.864555   -0.831253
      4          1           0       -2.089780   -0.538743    0.503708
      5          1           0       -3.816805   -0.812932    0.711861
      6          1           0       -2.300831   -1.066707   -1.932075
      7          1           0       -4.026721   -1.340982   -1.723084
      8          1           0       -3.538986   -3.230708   -0.133201
      9          1           0       -1.803290   -2.954874   -0.343380
     10          1           0       -2.781572   -3.518455   -1.708903
     11          6           0       -3.335762    0.985501   -0.374624
     12          6           0       -3.338874    1.924566    0.832079
     13          6           0       -3.616331    3.378532    0.448942
     14          1           0       -2.578737    1.326909   -1.094172
     15          1           0       -4.305762    1.052721   -0.886019
     16          1           0       -2.368822    1.854960    1.340773
     17          1           0       -4.094711    1.580684    1.549764
     18          1           0       -4.592253    3.468852   -0.038931
     19          1           0       -2.856557    3.744685   -0.249110
     20          1           0       -3.613971    4.032432    1.326591
     21          6           0        2.748323   -0.863749    0.075961
     22          6           0        2.038434   -1.341800    1.343048
     23          6           0        1.142960   -2.556349    1.096495
     24          1           0        1.997081   -0.618338   -0.687160
     25          1           0        3.350361   -1.687630   -0.331675
     26          1           0        1.439005   -0.516843    1.748939
     27          1           0        2.791448   -1.585919    2.103306
     28          1           0        1.730652   -3.396841    0.713360
     29          1           0        0.370526   -2.321691    0.356981
     30          1           0        0.645260   -2.881354    2.015476
     31          6           0        3.647219    0.349772    0.306351
     32          6           0        4.357108    0.827822   -0.960737
     33          6           0        5.252583    2.042372   -0.714184
     34          1           0        3.045183    1.173653    0.713986
     35          1           0        4.398462    0.104361    1.069471
     36          1           0        3.604095    1.071942   -1.720994
     37          1           0        4.956537    0.002865   -1.366629
     38          1           0        6.025018    1.807713    0.025330
     39          1           0        4.664892    2.882864   -0.331049
     40          1           0        5.750283    2.367376   -1.633165
 ---------------------------------------------------------------------

 SCF Done:  E(RHF) =  -470.733267043     A.U. after   11 cycles
 E2 =    -0.1582734495D+01 EUMP2 =    -0.47231600153846D+03

 The electronic state is 1-A.
 Alpha  occ. eigenvalues --  -11.21665 -11.21638 -11.21625 -11.21602 -11.21456
 Alpha  occ. eigenvalues --  -11.21421 -11.21395 -11.21361 -11.21131 -11.21099
 Alpha  occ. eigenvalues --  -11.21092 -11.21009  -1.08482  -1.08442  -1.03588
 Alpha  occ. eigenvalues --   -1.03528  -0.96043  -0.95970  -0.87069  -0.86977
 Alpha  occ. eigenvalues --   -0.79674  -0.79568  -0.78297  -0.78250  -0.65171
 Alpha  occ. eigenvalues --   -0.65027  -0.61108  -0.60827  -0.59394  -0.59349
 Alpha  occ. eigenvalues --   -0.57673  -0.57566  -0.55451  -0.55159  -0.52731
 Alpha  occ. eigenvalues --   -0.52671  -0.52519  -0.52338  -0.50119  -0.49795
 Alpha  occ. eigenvalues --   -0.48033  -0.47843  -0.46783  -0.46509  -0.45886
 Alpha  occ. eigenvalues --   -0.45777  -0.45751  -0.45632  -0.43833  -0.43790
 Alpha virt. eigenvalues --    0.20574   0.23202   0.23614   0.24715   0.26083
 Alpha virt. eigenvalues --    0.26811   0.27108   0.27542   0.28012   0.28916
 Alpha virt. eigenvalues --    0.30488   0.31668   0.31731   0.31736   0.31907

 Mulliken charges:
               1
     1  C   -0.300041
     2  C   -0.299328
     3  C   -0.482673
     4  H    0.150594
     5  H    0.149855
     6  H    0.151067
     7  H    0.152087
     8  H    0.155188
     9  H    0.162505
    10  H    0.160164
    11  C   -0.298194
    12  C   -0.299550
    13  C   -0.475701
    14  H    0.149110
    15  H    0.149870
    16  H    0.151529
    17  H    0.152130
    18  H    0.155313
    19  H    0.155026
    20  H    0.160315
    21  C   -0.298418
    22  C   -0.299684
    23  C   -0.482303
    24  H    0.149253
    25  H    0.149875
    26  H    0.151638
    27  H    0.152426
    28  H    0.155933
    29  H    0.160568
    30  H    0.161100
    31  C   -0.298329
    32  C   -0.299678
    33  C   -0.475740
    34  H    0.149428
    35  H    0.149876
    36  H    0.151841
    37  H    0.152075
    38  H    0.155281
    39  H    0.155206
    40  H    0.160387
 Sum of Mulliken charges =  -0.00000

 Dipole moment (field-independent basis, Debye):
    X=              0.0220    Y=             -0.0147    Z=              0.0141  Tot=              0.0300
 Quadrupole moment (field-independent basis, Debye-Ang):
   XX=            -83.5773   YY=            -86.2975   ZZ=            -84.7696
   XY=             -0.7730   XZ=             -0.0174   YZ=             -0.0730

 Normal termination of Gaussian 16 at Wed May  5 19:57:30 2021.
