 Gaussian 16, Revision A.03,
 Gaussian 16:  EM64L-G16RevA.03 25-Dec-2016

 -------------
 #p 6-31g* mp2
 -------------

 ------------------------------------------------------
 Input file generated by CHIRIPA (05-May-2021 14:55:22)
 ------------------------------------------------------
 Symbolic Z-matrix:
 Charge =  0 Multiplicity = 1

                         Standard orientation:
 ---------------------------------------------------------------------
 Center     Atomic      Atomic             Coordinates (Angstroms)
 Number     Number       Type             X           Y           Z
 ---------------------------------------------------------------------
      1          6           0       -0.659114   -0.057059    1.566042
      2          6           0       -0.677361   -0.742524    0.346892
      3          6           0       -1.839104   -0.778646   -0.430022
      4          6           0       -2.969609   -0.115400    0.044693
      5          6           0       -2.982859    0.576058    1.255065
      6          6           0       -1.809893    0.598887    2.015445
      7          1           0        0.247715   -0.034162    2.163145
      8          1           0        0.214865   -1.252839   -0.004615
      9          1           0       -1.880963   -1.301799   -1.377638
     10          1           0       -3.887911    1.075301    1.579187
     11          1           0       -1.798629    1.132015    2.961855
     12          7           0       -4.205435   -0.146604   -0.769039
     13          8           0       -5.188209    0.445707   -0.328629
     14          8           0       -4.167901   -0.762782   -1.831843
     15          6           0        3.306104    0.818283    0.035712
     16          6           0        3.554004    1.969234   -0.939912
     17          6           0        3.079950    3.317429   -0.396372
     18          1           0        2.233140    0.765703    0.265775
     19          1           0        3.818823    1.033347    0.983479
     20          1           0        3.042113    1.751415   -1.886030
     21          1           0        4.626476    2.018959   -1.167828
     22          1           0        3.599198    3.560927    0.536200
     23          1           0        2.005834    3.291862   -0.186082
     24          1           0        3.266814    4.126077   -1.109836
     25          6           0        3.774676   -0.536026   -0.493455
     26          6           0        3.526775   -1.686977    0.482169
     27          6           0        4.000830   -3.035173   -0.061372
     28          1           0        3.261956   -0.751089   -1.441222
     29          1           0        4.847639   -0.483445   -0.723517
     30          1           0        2.454303   -1.736703    0.710085
     31          1           0        4.038666   -1.469158    1.428287
     32          1           0        5.074946   -3.009605   -0.271661
     33          1           0        3.481581   -3.278670   -0.993943
     34          1           0        3.813965   -3.843819    0.652093
 ---------------------------------------------------------------------

 SCF Done:  E(RHF) =  -669.535408450     A.U. after   15 cycles
 E2 =    -0.2092454907D+01 EUMP2 =    -0.67162786335739D+03

 The electronic state is 1-A.
 Alpha  occ. eigenvalues --  -20.60777 -20.60772 -15.85831 -11.31207 -11.27775
 Alpha  occ. eigenvalues --  -11.27771 -11.27499 -11.26781 -11.26766 -11.22755
 Alpha  occ. eigenvalues --  -11.22342 -11.22291 -11.22238 -11.21960 -11.21629
 Alpha  occ. eigenvalues --   -1.59853  -1.39406  -1.19379  -1.09350  -1.08768
 Alpha  occ. eigenvalues --   -1.04783  -1.04369  -0.96791  -0.95602  -0.87807
 Alpha  occ. eigenvalues --   -0.86185  -0.82433  -0.80459  -0.79169  -0.77482
 Alpha  occ. eigenvalues --   -0.72049  -0.71176  -0.70478  -0.66093  -0.65024
 Alpha  occ. eigenvalues --   -0.64721  -0.62174  -0.61718  -0.60166  -0.58408
 Alpha  occ. eigenvalues --   -0.56077  -0.55267  -0.53475  -0.53236  -0.53083
 Alpha  occ. eigenvalues --   -0.52880  -0.50735  -0.48833  -0.48804  -0.48733
 Alpha  occ. eigenvalues --   -0.47506  -0.46678  -0.46599  -0.44809  -0.44632
 Alpha  occ. eigenvalues --   -0.37339  -0.36381
 Alpha virt. eigenvalues --    0.05035   0.11148   0.16506   0.18806   0.22750
 Alpha virt. eigenvalues --    0.23466   0.25041   0.25935   0.27184   0.27865
 Alpha virt. eigenvalues --    0.29807   0.30272   0.30999   0.31235   0.31583

 Mulliken charges:
               1
     1  C   -0.173225
     2  C   -0.224010
     3  C   -0.171914
     4  C    0.158831
     5  C   -0.171068
     6  C   -0.219097
     7  H    0.227958
     8  H    0.231266
     9  H    0.275942
    10  H    0.275751
    11  H    0.223780
    12  N    0.487952
    13  O   -0.460299
    14  O   -0.460356
    15  C   -0.303682
    16  C   -0.299611
    17  C   -0.476954
    18  H    0.146363
    19  H    0.149764
    20  H    0.154264
    21  H    0.154140
    22  H    0.154644
    23  H    0.156378
    24  H    0.163527
    25  C   -0.299351
    26  C   -0.304287
    27  C   -0.475928
    28  H    0.149815
    29  H    0.154768
    30  H    0.141250
    31  H    0.155214
    32  H    0.159632
    33  H    0.155877
    34  H    0.162669
 Sum of Mulliken charges =  -0.00000

 Dipole moment (field-independent basis, Debye):
    X=              4.5230    Y=              0.1408    Z=              2.8180  Tot=              5.3309
 Quadrupole moment (field-independent basis, Debye-Ang):
   XX=           -118.4321   YY=            -94.5497   ZZ=            -92.3120
   XY=             -2.0029   XZ=             -9.9884   YZ=              1.6774

 Normal termination of Gaussian 16 at Thu May  6 10:56:39 2021.
