 Gaussian 16, Revision A.03,
 Gaussian 16:  EM64L-G16RevA.03 25-Dec-2016

 -------------
 #p 6-31g* mp2
 -------------

 ------------------------------------------------------
 Input file generated by CHIRIPA (05-May-2021 14:53:18)
 ------------------------------------------------------
 Symbolic Z-matrix:
 Charge =  0 Multiplicity = 1

                         Standard orientation:
 ---------------------------------------------------------------------
 Center     Atomic      Atomic             Coordinates (Angstroms)
 Number     Number       Type             X           Y           Z
 ---------------------------------------------------------------------
      1          6           0        5.373819    0.051435   -0.100846
      2          6           0        5.812435   -1.322805   -0.607863
      3          6           0        7.156404   -1.283012   -1.335844
      4          1           0        5.312130    0.745907   -0.949874
      5          1           0        6.145223    0.449284    0.572983
      6          1           0        5.039793   -1.718548   -1.279449
      7          1           0        5.872902   -2.014137    0.242444
      8          1           0        7.943634   -0.912446   -0.671351
      9          1           0        7.105792   -0.615178   -2.201891
     10          1           0        7.450787   -2.275929   -1.689843
     11          6           0        4.032045    0.027930    0.629097
     12          6           0        3.593429    1.402170    1.136113
     13          6           0        2.249460    1.362377    1.864095
     14          1           0        3.260641   -0.369919   -0.044732
     15          1           0        4.093734   -0.666543    1.478124
     16          1           0        3.532962    2.093502    0.285807
     17          1           0        4.366071    1.797913    1.807700
     18          1           0        2.300073    0.694543    2.730142
     19          1           0        1.462230    0.991811    1.199602
     20          1           0        1.955077    2.355294    2.218093
     21          6           0       -2.029300    1.730928   -0.951961
     22          6           0       -1.579032    0.599246   -0.264157
     23          6           0       -2.481444   -0.383384    0.153741
     24          6           0       -3.833185   -0.201339   -0.134265
     25          6           0       -4.312646    0.915066   -0.817673
     26          6           0       -3.392265    1.884956   -1.226040
     27          1           0       -1.321305    2.489311   -1.272893
     28          1           0       -0.521111    0.476983   -0.049922
     29          1           0       -2.160084   -1.269307    0.687863
     30          1           0       -5.373294    1.009087   -1.016679
     31          1           0       -3.744802    2.762808   -1.760025
     32          7           0       -4.798040   -1.234861    0.303100
     33          8           0       -5.983809   -1.050960    0.037079
     34          8           0       -4.350253   -2.209267    0.903648
 ---------------------------------------------------------------------

 SCF Done:  E(RHF) =  -669.535423588     A.U. after   15 cycles
 E2 =    -0.2090769066D+01 EUMP2 =    -0.67162619265348D+03

 The electronic state is 1-A.
 Alpha  occ. eigenvalues --  -20.60737 -20.60732 -15.85791 -11.31156 -11.27729
 Alpha  occ. eigenvalues --  -11.27721 -11.27473 -11.26745 -11.26725 -11.22391
 Alpha  occ. eigenvalues --  -11.22080 -11.22058 -11.22046 -11.21916 -11.21439
 Alpha  occ. eigenvalues --   -1.59813  -1.39366  -1.19331  -1.09064  -1.08726
 Alpha  occ. eigenvalues --   -1.04735  -1.04171  -0.96630  -0.95560  -0.87649
 Alpha  occ. eigenvalues --   -0.86135  -0.82394  -0.80237  -0.78852  -0.77441
 Alpha  occ. eigenvalues --   -0.72009  -0.71136  -0.70440  -0.65710  -0.64983
 Alpha  occ. eigenvalues --   -0.64759  -0.62131  -0.61538  -0.59999  -0.58224
 Alpha  occ. eigenvalues --   -0.55949  -0.55232  -0.53320  -0.53132  -0.53056
 Alpha  occ. eigenvalues --   -0.52761  -0.50565  -0.48775  -0.48764  -0.48538
 Alpha  occ. eigenvalues --   -0.47268  -0.46397  -0.46310  -0.44772  -0.44411
 Alpha  occ. eigenvalues --   -0.37312  -0.36335
 Alpha virt. eigenvalues --    0.05097   0.11291   0.16576   0.19596   0.22512
 Alpha virt. eigenvalues --    0.23679   0.25191   0.26411   0.27151   0.28274
 Alpha virt. eigenvalues --    0.28583   0.29987   0.31078   0.31464   0.32063

 Mulliken charges:
               1
     1  C   -0.298599
     2  C   -0.300139
     3  C   -0.476042
     4  H    0.149379
     5  H    0.151225
     6  H    0.151906
     7  H    0.153284
     8  H    0.155969
     9  H    0.155211
    10  H    0.161889
    11  C   -0.298085
    12  C   -0.299921
    13  C   -0.479311
    14  H    0.145280
    15  H    0.152262
    16  H    0.150502
    17  H    0.155947
    18  H    0.160777
    19  H    0.145308
    20  H    0.163432
    21  C   -0.172914
    22  C   -0.224251
    23  C   -0.172934
    24  C    0.158804
    25  C   -0.171090
    26  C   -0.218596
    27  H    0.225646
    28  H    0.233091
    29  H    0.276127
    30  H    0.275507
    31  H    0.223274
    32  N    0.488057
    33  O   -0.460616
    34  O   -0.460376
 Sum of Mulliken charges =  -0.00000

 Dipole moment (field-independent basis, Debye):
    X=              3.5891    Y=              3.6504    Z=             -1.4891  Tot=              5.3314
 Quadrupole moment (field-independent basis, Debye-Ang):
   XX=           -118.1796   YY=            -95.2568   ZZ=            -93.6031
   XY=            -17.0262   XZ=              8.3778   YZ=             -1.6322

 Normal termination of Gaussian 16 at Thu May  6 07:36:25 2021.
