 Gaussian 16, Revision A.03,
 Gaussian 16:  EM64L-G16RevA.03 25-Dec-2016

 -------------
 #p 6-31g* mp2
 -------------

 ------------------------------------------------------
 Input file generated by CHIRIPA (05-May-2021 14:51:11)
 ------------------------------------------------------
 Symbolic Z-matrix:
 Charge =  0 Multiplicity = 1

                         Standard orientation:
 ---------------------------------------------------------------------
 Center     Atomic      Atomic             Coordinates (Angstroms)
 Number     Number       Type             X           Y           Z
 ---------------------------------------------------------------------
      1          6           0       -2.479898   -1.382284    0.452931
      2          6           0       -1.105604   -1.877377    0.001063
      3          6           0       -0.555859   -2.991043    0.892870
      4          1           0       -2.410969   -1.023844    1.489133
      5          1           0       -3.182074   -2.227437    0.460600
      6          1           0       -0.406568   -1.031269   -0.007080
      7          1           0       -1.177770   -2.234503   -1.034249
      8          1           0       -1.230813   -3.853040    0.892977
      9          1           0       -0.455229   -2.642970    1.925982
     10          1           0        0.427308   -3.330028    0.551796
     11          6           0       -3.042719   -0.268897   -0.428732
     12          6           0       -4.417013    0.226196    0.023137
     13          6           0       -4.966758    1.339862   -0.868671
     14          1           0       -2.340543    0.576257   -0.436400
     15          1           0       -3.111648   -0.627337   -1.464934
     16          1           0       -4.344847    0.583322    1.058448
     17          1           0       -5.116049   -0.619912    0.031279
     18          1           0       -5.067388    0.991789   -1.901783
     19          1           0       -4.291804    2.201859   -0.868778
     20          1           0       -5.949925    1.678847   -0.527596
     21          6           0        3.308435    0.481696   -0.419310
     22          6           0        3.526254   -0.980594   -0.029117
     23          6           0        4.623943   -1.654957   -0.852590
     24          1           0        3.053677    0.535732   -1.486607
     25          1           0        4.251610    1.031540   -0.294864
     26          1           0        2.582598   -1.527216   -0.152944
     27          1           0        3.780336   -1.031172    1.037419
     28          1           0        5.578485   -1.135175   -0.721138
     29          1           0        4.373941   -1.634038   -1.918264
     30          1           0        4.762992   -2.699591   -0.557183
     31          6           0        2.214182    1.169485    0.395110
     32          6           0        1.996362    2.631774    0.004918
     33          6           0        0.898674    3.306138    0.828390
     34          1           0        1.271006    0.619640    0.270664
     35          1           0        2.468940    1.115448    1.462408
     36          1           0        1.742281    2.682352   -1.061619
     37          1           0        2.940019    3.178397    0.128744
     38          1           0        1.148677    3.285218    1.894065
     39          1           0       -0.055867    2.786355    0.696939
     40          1           0        0.759625    4.350772    0.532983
 ---------------------------------------------------------------------

 SCF Done:  E(RHF) =  -470.733326089     A.U. after   11 cycles
 E2 =    -0.1583686782D+01 EUMP2 =    -0.47231701287046D+03

 The electronic state is 1-A.
 Alpha  occ. eigenvalues --  -11.21636 -11.21632 -11.21625 -11.21599 -11.21446
 Alpha  occ. eigenvalues --  -11.21424 -11.21385 -11.21363 -11.21130 -11.21090
 Alpha  occ. eigenvalues --  -11.21086 -11.21073  -1.08482  -1.08439  -1.03563
 Alpha  occ. eigenvalues --   -1.03548  -0.96009  -0.96001  -0.87038  -0.87003
 Alpha  occ. eigenvalues --   -0.79647  -0.79597  -0.78364  -0.78191  -0.65246
 Alpha  occ. eigenvalues --   -0.64955  -0.60959  -0.60954  -0.59418  -0.59329
 Alpha  occ. eigenvalues --   -0.57618  -0.57616  -0.55345  -0.55244  -0.52716
 Alpha  occ. eigenvalues --   -0.52681  -0.52478  -0.52387  -0.50024  -0.49878
 Alpha  occ. eigenvalues --   -0.48015  -0.47878  -0.46813  -0.46624  -0.46087
 Alpha  occ. eigenvalues --   -0.45793  -0.45780  -0.45243  -0.43815  -0.43804
 Alpha virt. eigenvalues --    0.19857   0.22271   0.23648   0.24334   0.25649
 Alpha virt. eigenvalues --    0.26932   0.26980   0.27335   0.27423   0.29612
 Alpha virt. eigenvalues --    0.30652   0.31539   0.31593   0.31761   0.32042

 Mulliken charges:
               1
     1  C   -0.297613
     2  C   -0.310331
     3  C   -0.476769
     4  H    0.150024
     5  H    0.149838
     6  H    0.160535
     7  H    0.151869
     8  H    0.155284
     9  H    0.155793
    10  H    0.161697
    11  C   -0.299121
    12  C   -0.299702
    13  C   -0.475789
    14  H    0.148986
    15  H    0.149813
    16  H    0.152265
    17  H    0.152113
    18  H    0.155133
    19  H    0.155340
    20  H    0.160431
    21  C   -0.297484
    22  C   -0.304184
    23  C   -0.475685
    24  H    0.149673
    25  H    0.149672
    26  H    0.156320
    27  H    0.152009
    28  H    0.155248
    29  H    0.155226
    30  H    0.160194
    31  C   -0.308161
    32  C   -0.299000
    33  C   -0.476319
    34  H    0.158115
    35  H    0.149696
    36  H    0.152145
    37  H    0.152240
    38  H    0.155397
    39  H    0.154457
    40  H    0.160645
 Sum of Mulliken charges =  -0.00000

 Dipole moment (field-independent basis, Debye):
    X=             -0.0010    Y=             -0.0055    Z=              0.0071  Tot=              0.0090
 Quadrupole moment (field-independent basis, Debye-Ang):
   XX=            -84.9171   YY=            -85.2400   ZZ=            -84.4886
   XY=              1.4563   XZ=              0.8532   YZ=              0.7387

 Normal termination of Gaussian 16 at Thu May  6 07:02:11 2021.
