 Gaussian 16, Revision A.03,
 Gaussian 16:  EM64L-G16RevA.03 25-Dec-2016

 -------------
 #p 6-31g* mp2
 -------------

 ------------------------------------------------------
 Input file generated by CHIRIPA (05-May-2021 14:51:11)
 ------------------------------------------------------
 Symbolic Z-matrix:
 Charge =  0 Multiplicity = 1

                         Standard orientation:
 ---------------------------------------------------------------------
 Center     Atomic      Atomic             Coordinates (Angstroms)
 Number     Number       Type             X           Y           Z
 ---------------------------------------------------------------------
      1          6           0        3.869538    0.366503   -0.009538
      2          6           0        3.894724   -1.119115   -0.370494
      3          6           0        5.296932   -1.723359   -0.289894
      4          1           0        4.544811    0.912345   -0.682597
      5          1           0        4.268096    0.496723    1.006134
      6          1           0        3.494948   -1.246643   -1.384660
      7          1           0        3.219166   -1.661456    0.303378
      8          1           0        5.700975   -1.625445    0.722905
      9          1           0        5.978324   -1.208274   -0.974725
     10          1           0        5.291835   -2.786002   -0.551858
     11          6           0        2.474677    0.984828   -0.085477
     12          6           0        2.449491    2.470446    0.275480
     13          6           0        1.047283    3.074690    0.194880
     14          1           0        2.076119    0.854608   -1.101148
     15          1           0        1.799405    0.438986    0.587582
     16          1           0        3.125049    3.012787   -0.398393
     17          1           0        2.849267    2.597974    1.289645
     18          1           0        0.365891    2.559605    0.879710
     19          1           0        0.643240    2.976776   -0.817920
     20          1           0        1.052381    4.137333    0.456843
     21          6           0       -3.935643   -0.691028    0.062002
     22          6           0       -4.576618    0.637402   -0.341000
     23          6           0       -6.104519    0.590887   -0.307113
     24          1           0       -4.294783   -1.482804   -0.609604
     25          1           0       -4.272860   -0.961304    1.072265
     26          1           0       -4.237206    0.905781   -1.349656
     27          1           0       -4.215761    1.426142    0.331522
     28          1           0       -6.460299    0.347486    0.699255
     29          1           0       -6.481865   -0.175833   -0.991477
     30          1           0       -6.541959    1.550839   -0.598660
     31          6           0       -2.408572   -0.660303    0.033013
     32          6           0       -1.767597   -1.988733    0.436015
     33          6           0       -0.239696   -1.942218    0.402128
     34          1           0       -2.071355   -0.390026   -0.977250
     35          1           0       -2.049431    0.131473    0.704618
     36          1           0       -2.128454   -2.777473   -0.236508
     37          1           0       -2.107010   -2.257111    1.444672
     38          1           0        0.137650   -1.175498    1.086491
     39          1           0        0.116084   -1.698816   -0.604240
     40          1           0        0.197745   -2.902169    0.693675
 ---------------------------------------------------------------------

 SCF Done:  E(RHF) =  -470.732923597     A.U. after   11 cycles
 E2 =    -0.1583452986D+01 EUMP2 =    -0.47231637658318D+03

 The electronic state is 1-A.
 Alpha  occ. eigenvalues --  -11.21592 -11.21584 -11.21544 -11.21513 -11.21395
 Alpha  occ. eigenvalues --  -11.21336 -11.21316 -11.21238 -11.21059 -11.21044
 Alpha  occ. eigenvalues --  -11.21041 -11.21015  -1.08425  -1.08352  -1.03520
 Alpha  occ. eigenvalues --   -1.03467  -0.95988  -0.95904  -0.87002  -0.86927
 Alpha  occ. eigenvalues --   -0.79610  -0.79525  -0.78301  -0.78075  -0.65087
 Alpha  occ. eigenvalues --   -0.64966  -0.60937  -0.60852  -0.59367  -0.59257
 Alpha  occ. eigenvalues --   -0.57692  -0.57434  -0.55339  -0.55139  -0.52697
 Alpha  occ. eigenvalues --   -0.52627  -0.52491  -0.52228  -0.49990  -0.49793
 Alpha  occ. eigenvalues --   -0.48019  -0.47809  -0.46685  -0.46526  -0.45992
 Alpha  occ. eigenvalues --   -0.45739  -0.45601  -0.45272  -0.43772  -0.43712
 Alpha virt. eigenvalues --    0.21378   0.23002   0.23821   0.24413   0.25158
 Alpha virt. eigenvalues --    0.25986   0.26874   0.27403   0.28484   0.29832
 Alpha virt. eigenvalues --    0.30290   0.31250   0.31714   0.31917   0.32197

 Mulliken charges:
               1
     1  C   -0.297934
     2  C   -0.301861
     3  C   -0.475699
     4  H    0.149091
     5  H    0.148840
     6  H    0.151214
     7  H    0.156095
     8  H    0.154906
     9  H    0.154891
    10  H    0.159994
    11  C   -0.303551
    12  C   -0.299461
    13  C   -0.475574
    14  H    0.148520
    15  H    0.157348
    16  H    0.151602
    17  H    0.151322
    18  H    0.154503
    19  H    0.155447
    20  H    0.159961
    21  C   -0.298300
    22  C   -0.299599
    23  C   -0.475712
    24  H    0.149618
    25  H    0.149384
    26  H    0.151968
    27  H    0.152203
    28  H    0.155109
    29  H    0.155093
    30  H    0.160286
    31  C   -0.298381
    32  C   -0.300675
    33  C   -0.477726
    34  H    0.149804
    35  H    0.149677
    36  H    0.151897
    37  H    0.151531
    38  H    0.156635
    39  H    0.157953
    40  H    0.159582
 Sum of Mulliken charges =  -0.00000

 Dipole moment (field-independent basis, Debye):
    X=             -0.0216    Y=             -0.0207    Z=             -0.0039  Tot=              0.0301
 Quadrupole moment (field-independent basis, Debye-Ang):
   XX=            -87.1169   YY=            -85.0850   ZZ=            -82.8436
   XY=              0.6691   XZ=             -0.1435   YZ=              0.0718

 Normal termination of Gaussian 16 at Thu May  6 07:03:40 2021.
