 Gaussian 16, Revision A.03,
 Gaussian 16:  EM64L-G16RevA.03 25-Dec-2016

 -------------
 #p 6-31g* mp2
 -------------

 ------------------------------------------------------
 Input file generated by CHIRIPA (05-May-2021 14:51:12)
 ------------------------------------------------------
 Symbolic Z-matrix:
 Charge =  0 Multiplicity = 1

                         Standard orientation:
 ---------------------------------------------------------------------
 Center     Atomic      Atomic             Coordinates (Angstroms)
 Number     Number       Type             X           Y           Z
 ---------------------------------------------------------------------
      1          6           0        3.337200   -0.604521    0.055589
      2          6           0        4.226878   -1.674451   -0.578214
      3          6           0        4.014552   -3.058974    0.034819
      4          1           0        3.536349   -0.563523    1.135220
      5          1           0        2.284583   -0.898948   -0.057128
      6          1           0        5.277446   -1.377416   -0.465557
      7          1           0        4.025725   -1.712774   -1.656493
      8          1           0        2.975570   -3.380556   -0.090494
      9          1           0        4.234404   -3.043293    1.107208
     10          1           0        4.660460   -3.808518   -0.432992
     11          6           0        3.537964    0.784969   -0.546690
     12          6           0        2.648286    1.854900    0.087113
     13          6           0        2.860612    3.239422   -0.525920
     14          1           0        4.590581    1.079396   -0.433974
     15          1           0        3.338814    0.743971   -1.626322
     16          1           0        2.849438    1.893222    1.165392
     17          1           0        1.597717    1.557864   -0.025544
     18          1           0        2.640760    3.223741   -1.598310
     19          1           0        3.899593    3.561005   -0.400607
     20          1           0        2.214703    3.988966   -0.058110
     21          6           0       -4.132121    0.188878    0.093404
     22          6           0       -5.049127   -0.814965   -0.606158
     23          6           0       -6.435035   -0.241897   -0.903892
     24          1           0       -4.604062    0.516192    1.029931
     25          1           0       -4.032297    1.084129   -0.535844
     26          1           0       -5.146084   -1.708627    0.023590
     27          1           0       -4.574862   -1.140072   -1.541035
     28          1           0       -6.357331    0.637387   -1.551518
     29          1           0       -6.931799    0.065604    0.021997
     30          1           0       -7.074137   -0.976228   -1.404060
     31          6           0       -2.743042   -0.369326    0.397697
     32          6           0       -1.826037    0.634517    1.097259
     33          6           0       -0.440128    0.061449    1.394993
     34          1           0       -2.842867   -1.264577    1.026946
     35          1           0       -2.271102   -0.696640   -0.538830
     36          1           0       -2.300302    0.959624    2.032136
     37          1           0       -1.729079    1.528178    0.467511
     38          1           0        0.056636   -0.246052    0.469105
     39          1           0       -0.517832   -0.817837    2.042620
     40          1           0        0.198973    0.795779    1.895162
 ---------------------------------------------------------------------

 SCF Done:  E(RHF) =  -470.731617352     A.U. after   11 cycles
 E2 =    -0.1583946791D+01 EUMP2 =    -0.47231556414347D+03

 The electronic state is 1-A.
 Alpha  occ. eigenvalues --  -11.21617 -11.21610 -11.21552 -11.21463 -11.21424
 Alpha  occ. eigenvalues --  -11.21364 -11.21333 -11.21268 -11.21083 -11.21032
 Alpha  occ. eigenvalues --  -11.21017 -11.21003  -1.08457  -1.08363  -1.03559
 Alpha  occ. eigenvalues --   -1.03456  -0.95998  -0.95925  -0.87033  -0.86931
 Alpha  occ. eigenvalues --   -0.79681  -0.79503  -0.78304  -0.78116  -0.65180
 Alpha  occ. eigenvalues --   -0.64939  -0.61046  -0.60793  -0.59476  -0.59188
 Alpha  occ. eigenvalues --   -0.57696  -0.57447  -0.55336  -0.55199  -0.52789
 Alpha  occ. eigenvalues --   -0.52560  -0.52473  -0.52273  -0.50012  -0.49870
 Alpha  occ. eigenvalues --   -0.48025  -0.47749  -0.46782  -0.46546  -0.45897
 Alpha  occ. eigenvalues --   -0.45745  -0.45703  -0.45256  -0.43776  -0.43676
 Alpha virt. eigenvalues --    0.21721   0.23083   0.23847   0.24620   0.25729
 Alpha virt. eigenvalues --    0.26461   0.26836   0.27438   0.27998   0.29572
 Alpha virt. eigenvalues --    0.30373   0.31344   0.31696   0.31993   0.32214

 Mulliken charges:
               1
     1  C   -0.303113
     2  C   -0.299174
     3  C   -0.475556
     4  H    0.149650
     5  H    0.155171
     6  H    0.151723
     7  H    0.151351
     8  H    0.155103
     9  H    0.155209
    10  H    0.159981
    11  C   -0.298053
    12  C   -0.305746
    13  C   -0.475204
    14  H    0.149043
    15  H    0.148524
    16  H    0.150537
    17  H    0.161904
    18  H    0.154471
    19  H    0.154737
    20  H    0.159564
    21  C   -0.298228
    22  C   -0.299653
    23  C   -0.475714
    24  H    0.149782
    25  H    0.149485
    26  H    0.151981
    27  H    0.151818
    28  H    0.155189
    29  H    0.155233
    30  H    0.160288
    31  C   -0.298301
    32  C   -0.301654
    33  C   -0.480660
    34  H    0.149770
    35  H    0.149141
    36  H    0.152212
    37  H    0.151948
    38  H    0.157055
    39  H    0.155421
    40  H    0.164767
 Sum of Mulliken charges =  -0.00000

 Dipole moment (field-independent basis, Debye):
    X=             -0.0309    Y=             -0.0119    Z=              0.0294  Tot=              0.0443
 Quadrupole moment (field-independent basis, Debye-Ang):
   XX=            -85.4871   YY=            -85.9898   ZZ=            -83.6524
   XY=              0.4289   XZ=             -0.0078   YZ=              0.2930

 Normal termination of Gaussian 16 at Wed May  5 21:32:34 2021.
