 Gaussian 16, Revision A.03,
 Gaussian 16:  EM64L-G16RevA.03 25-Dec-2016

 -------------
 #p 6-31g* mp2
 -------------

 ------------------------------------------------------
 Input file generated by CHIRIPA (05-May-2021 14:55:18)
 ------------------------------------------------------
 Symbolic Z-matrix:
 Charge =  0 Multiplicity = 1

                         Standard orientation:
 ---------------------------------------------------------------------
 Center     Atomic      Atomic             Coordinates (Angstroms)
 Number     Number       Type             X           Y           Z
 ---------------------------------------------------------------------
      1          6           0        2.190051   -2.354258   -1.021201
      2          6           0        1.376028   -1.457898   -1.721504
      3          6           0        1.401501   -0.092600   -1.421734
      4          6           0        2.256765    0.343822   -0.411116
      5          6           0        3.079769   -0.524429    0.304492
      6          6           0        3.037829   -1.885489   -0.012217
      7          1           0        2.163867   -3.413208   -1.260649
      8          1           0        0.716651   -1.819117   -2.505589
      9          1           0        0.781876    0.623228   -1.948111
     10          1           0        3.726736   -0.134503    1.080900
     11          1           0        3.671118   -2.579319    0.533302
     12          7           0        2.292449    1.786958   -0.084797
     13          8           0        3.054661    2.146250    0.809954
     14          8           0        1.557530    2.531471   -0.729957
     15          6           0       -3.237129    0.282178    0.063921
     16          6           0       -4.618129   -0.258692   -0.307945
     17          6           0       -5.317787    0.587902   -1.371689
     18          1           0       -3.339678    1.314944    0.424233
     19          1           0       -2.613081    0.326794   -0.839388
     20          1           0       -5.238942   -0.303577    0.596041
     21          1           0       -4.512303   -1.290356   -0.667233
     22          1           0       -4.721793    0.623133   -2.289377
     23          1           0       -5.452563    1.615518   -1.018925
     24          1           0       -6.303306    0.183315   -1.622528
     25          6           0       -2.525134   -0.553476    1.126216
     26          6           0       -1.144134   -0.012605    1.498082
     27          6           0       -0.444476   -0.859200    2.561826
     28          1           0       -3.149183   -0.598092    2.029525
     29          1           0       -2.422584   -1.586242    0.765904
     30          1           0       -1.249960    1.019058    1.857371
     31          1           0       -0.523320    0.032279    0.594095
     32          1           0       -0.309701   -1.886816    2.209061
     33          1           0       -1.040469   -0.894430    3.479514
     34          1           0        0.541043   -0.454613    2.812665
 ---------------------------------------------------------------------

 SCF Done:  E(RHF) =  -669.534739182     A.U. after   15 cycles
 E2 =    -0.2094122402D+01 EUMP2 =    -0.67162886158437D+03

 The electronic state is 1-A.
 Alpha  occ. eigenvalues --  -20.60819 -20.60807 -15.85866 -11.31252 -11.27845
 Alpha  occ. eigenvalues --  -11.27822 -11.27594 -11.26872 -11.26857 -11.21660
 Alpha  occ. eigenvalues --  -11.21415 -11.21377 -11.21326 -11.21114 -11.21001
 Alpha  occ. eigenvalues --   -1.59887  -1.39440  -1.19457  -1.08836  -1.08410
 Alpha  occ. eigenvalues --   -1.04865  -1.03498  -0.95965  -0.95665  -0.86980
 Alpha  occ. eigenvalues --   -0.86256  -0.82495  -0.79569  -0.78229  -0.77535
 Alpha  occ. eigenvalues --   -0.72086  -0.71215  -0.70557  -0.65103  -0.65064
 Alpha  occ. eigenvalues --   -0.64853  -0.62204  -0.60933  -0.59341  -0.57585
 Alpha  occ. eigenvalues --   -0.55354  -0.55294  -0.53175  -0.52946  -0.52608
 Alpha  occ. eigenvalues --   -0.52386  -0.49916  -0.48849  -0.48840  -0.47884
 Alpha  occ. eigenvalues --   -0.46611  -0.45777  -0.45702  -0.44813  -0.43761
 Alpha  occ. eigenvalues --   -0.37381  -0.36388
 Alpha virt. eigenvalues --    0.04968   0.11102   0.16467   0.21112   0.22886
 Alpha virt. eigenvalues --    0.24205   0.26028   0.27084   0.27407   0.27980
 Alpha virt. eigenvalues --    0.28799   0.30793   0.31459   0.31586   0.31911

 Mulliken charges:
               1
     1  C   -0.171360
     2  C   -0.215524
     3  C   -0.179279
     4  C    0.165090
     5  C   -0.171135
     6  C   -0.216983
     7  H    0.226051
     8  H    0.223837
     9  H    0.276298
    10  H    0.275986
    11  H    0.224105
    12  N    0.488953
    13  O   -0.460730
    14  O   -0.460020
    15  C   -0.296744
    16  C   -0.299566
    17  C   -0.475344
    18  H    0.154559
    19  H    0.143837
    20  H    0.152850
    21  H    0.148885
    22  H    0.153381
    23  H    0.157587
    24  H    0.159839
    25  C   -0.297464
    26  C   -0.307428
    27  C   -0.474789
    28  H    0.149888
    29  H    0.145045
    30  H    0.157957
    31  H    0.156332
    32  H    0.150748
    33  H    0.154920
    34  H    0.160218
 Sum of Mulliken charges =  -0.00000

 Dipole moment (field-independent basis, Debye):
    X=             -0.0459    Y=             -5.0168    Z=             -1.1501  Tot=              5.1472
 Quadrupole moment (field-independent basis, Debye-Ang):
   XX=            -93.5514   YY=            -98.6400   ZZ=            -91.8629
   XY=            -12.6017   XZ=             -0.6293   YZ=              1.9762

 Normal termination of Gaussian 16 at Thu May  6 01:16:48 2021.
