 Gaussian 16, Revision A.03,
 Gaussian 16:  EM64L-G16RevA.03 25-Dec-2016

 -------------
 #p 6-31g* mp2
 -------------

 ------------------------------------------------------
 Input file generated by CHIRIPA (05-May-2021 14:51:08)
 ------------------------------------------------------
 Symbolic Z-matrix:
 Charge =  0 Multiplicity = 1

                         Standard orientation:
 ---------------------------------------------------------------------
 Center     Atomic      Atomic             Coordinates (Angstroms)
 Number     Number       Type             X           Y           Z
 ---------------------------------------------------------------------
      1          6           0        2.623631    1.051121   -0.114290
      2          6           0        3.015189    2.516031    0.082453
      3          6           0        1.835090    3.472144   -0.093634
      4          1           0        2.193896    0.924604   -1.117418
      5          1           0        1.830479    0.791648    0.600538
      6          1           0        3.808334    2.772279   -0.631602
      7          1           0        3.444218    2.639037    1.085159
      8          1           0        1.044008    3.244738    0.628223
      9          1           0        1.410192    3.378737   -1.098292
     10          1           0        2.137405    4.513992    0.051346
     11          6           0        3.792719    0.083086    0.058536
     12          6           0        3.401161   -1.381824   -0.138206
     13          6           0        4.581260   -2.337937    0.037881
     14          1           0        4.585871    0.342559   -0.656292
     15          1           0        4.222454    0.209603    1.061664
     16          1           0        2.972132   -1.504830   -1.140912
     17          1           0        2.608016   -1.638072    0.575848
     18          1           0        5.006158   -2.244530    1.042539
     19          1           0        5.372342   -2.110531   -0.683976
     20          1           0        4.278945   -3.379785   -0.107099
     21          6           0       -2.484525   -0.596065    0.270617
     22          6           0       -1.708911   -1.794798   -0.276598
     23          6           0       -0.262799   -1.838941    0.217979
     24          1           0       -1.968221    0.329577   -0.018454
     25          1           0       -2.472518   -0.630776    1.368819
     26          1           0       -1.723552   -1.758590   -1.373454
     27          1           0       -2.227225   -2.717687    0.013648
     28          1           0       -0.231032   -1.899361    1.310656
     29          1           0        0.275502   -0.934815   -0.084327
     30          1           0        0.273213   -2.703742   -0.185345
     31          6           0       -3.931825   -0.538142   -0.214864
     32          6           0       -4.707440    0.660591    0.332352
     33          6           0       -6.153551    0.704734   -0.162226
     34          1           0       -3.943832   -0.503432   -1.313066
     35          1           0       -4.448129   -1.463784    0.074208
     36          1           0       -4.189126    1.583480    0.042105
     37          1           0       -4.692798    0.624383    1.429207
     38          1           0       -6.691853   -0.199392    0.140080
     39          1           0       -6.185318    0.765154   -1.254902
     40          1           0       -6.689564    1.569535    0.241098
 ---------------------------------------------------------------------

 SCF Done:  E(RHF) =  -470.731904867     A.U. after   11 cycles
 E2 =    -0.1584014000D+01 EUMP2 =    -0.47231591886679D+03

 The electronic state is 1-A.
 Alpha  occ. eigenvalues --  -11.21610 -11.21580 -11.21527 -11.21448 -11.21393
 Alpha  occ. eigenvalues --  -11.21374 -11.21318 -11.21314 -11.21095 -11.21055
 Alpha  occ. eigenvalues --  -11.20997 -11.20922  -1.08435  -1.08372  -1.03528
 Alpha  occ. eigenvalues --   -1.03455  -0.95965  -0.95938  -0.87019  -0.86931
 Alpha  occ. eigenvalues --   -0.79710  -0.79470  -0.78328  -0.78073  -0.65064
 Alpha  occ. eigenvalues --   -0.65004  -0.60900  -0.60887  -0.59437  -0.59210
 Alpha  occ. eigenvalues --   -0.57696  -0.57436  -0.55291  -0.55195  -0.52772
 Alpha  occ. eigenvalues --   -0.52614  -0.52372  -0.52321  -0.49943  -0.49865
 Alpha  occ. eigenvalues --   -0.47940  -0.47871  -0.46704  -0.46583  -0.45956
 Alpha  occ. eigenvalues --   -0.45746  -0.45651  -0.45216  -0.43779  -0.43662
 Alpha virt. eigenvalues --    0.22172   0.23099   0.24011   0.24231   0.25832
 Alpha virt. eigenvalues --    0.26471   0.26889   0.27502   0.27713   0.29695
 Alpha virt. eigenvalues --    0.30497   0.31120   0.31675   0.31746   0.32340

 Mulliken charges:
               1
     1  C   -0.303019
     2  C   -0.298824
     3  C   -0.475965
     4  H    0.148874
     5  H    0.153138
     6  H    0.151998
     7  H    0.152110
     8  H    0.155245
     9  H    0.154709
    10  H    0.160483
    11  C   -0.297413
    12  C   -0.305573
    13  C   -0.475345
    14  H    0.148973
    15  H    0.149214
    16  H    0.151070
    17  H    0.162862
    18  H    0.154670
    19  H    0.154470
    20  H    0.159669
    21  C   -0.298633
    22  C   -0.300500
    23  C   -0.483103
    24  H    0.149812
    25  H    0.148949
    26  H    0.151433
    27  H    0.151196
    28  H    0.152485
    29  H    0.166216
    30  H    0.160956
    31  C   -0.298149
    32  C   -0.299649
    33  C   -0.475674
    34  H    0.149451
    35  H    0.149586
    36  H    0.152066
    37  H    0.151746
    38  H    0.155112
    39  H    0.155158
    40  H    0.160194
 Sum of Mulliken charges =  -0.00000

 Dipole moment (field-independent basis, Debye):
    X=              0.0182    Y=              0.0099    Z=              0.0101  Tot=              0.0230
 Quadrupole moment (field-independent basis, Debye-Ang):
   XX=            -86.6366   YY=            -85.2570   ZZ=            -83.2158
   XY=              0.9653   XZ=             -0.7464   YZ=             -0.4043

 Normal termination of Gaussian 16 at Thu May  6 02:06:19 2021.
