 Gaussian 16, Revision A.03,
 Gaussian 16:  EM64L-G16RevA.03 25-Dec-2016

 -------------
 #p 6-31g* mp2
 -------------

 ------------------------------------------------------
 Input file generated by CHIRIPA (05-May-2021 14:53:12)
 ------------------------------------------------------
 Symbolic Z-matrix:
 Charge =  0 Multiplicity = 1

                         Standard orientation:
 ---------------------------------------------------------------------
 Center     Atomic      Atomic             Coordinates (Angstroms)
 Number     Number       Type             X           Y           Z
 ---------------------------------------------------------------------
      1          6           0        2.981092    1.232327    0.414894
      2          6           0        1.868373    1.799478   -0.467251
      3          6           0        1.117943    2.954186    0.197053
      4          1           0        2.548840    0.891781    1.365752
      5          1           0        3.688268    2.035899    0.663029
      6          1           0        1.164254    0.994768   -0.714788
      7          1           0        2.303296    2.138539   -1.416196
      8          1           0        1.803022    3.776033    0.429072
      9          1           0        0.657509    2.625765    1.134465
     10          1           0        0.326975    3.344518   -0.450921
     11          6           0        3.740446    0.077281   -0.235472
     12          6           0        4.853166   -0.489870    0.646673
     13          6           0        5.603596   -1.644577   -0.017631
     14          1           0        3.033270   -0.726290   -0.483607
     15          1           0        4.172699    0.417827   -1.186330
     16          1           0        4.418243   -0.828930    1.595618
     17          1           0        5.557285    0.314840    0.894210
     18          1           0        6.064030   -1.316156   -0.955043
     19          1           0        4.918516   -2.466425   -0.249649
     20          1           0        6.394564   -2.034910    0.630343
     21          6           0       -1.167771   -2.558785   -0.292687
     22          6           0       -2.420548   -2.655015    0.321977
     23          6           0       -3.236716   -1.527263    0.450795
     24          6           0       -2.766539   -0.313648   -0.048567
     25          6           0       -1.523268   -0.185682   -0.665974
     26          6           0       -0.723912   -1.326597   -0.783834
     27          1           0       -0.540282   -3.439962   -0.388499
     28          1           0       -2.767839   -3.610648    0.704335
     29          1           0       -4.210898   -1.573448    0.922232
     30          1           0       -1.204309    0.780626   -1.037364
     31          1           0        0.248558   -1.248896   -1.261653
     32          7           0       -3.621680    0.887219    0.082007
     33          8           0       -3.184457    1.944861   -0.366174
     34          8           0       -4.712970    0.748080    0.630060
 ---------------------------------------------------------------------

 SCF Done:  E(RHF) =  -669.534750234     A.U. after   15 cycles
 E2 =    -0.2093067341D+01 EUMP2 =    -0.67162781757457D+03

 The electronic state is 1-A.
 Alpha  occ. eigenvalues --  -20.60771 -20.60766 -15.85823 -11.31187 -11.27770
 Alpha  occ. eigenvalues --  -11.27731 -11.27513 -11.26783 -11.26757 -11.22154
 Alpha  occ. eigenvalues --  -11.22141 -11.22040 -11.21869 -11.21605 -11.21215
 Alpha  occ. eigenvalues --   -1.59844  -1.39397  -1.19370  -1.08982  -1.08762
 Alpha  occ. eigenvalues --   -1.04788  -1.04007  -0.96428  -0.95596  -0.87429
 Alpha  occ. eigenvalues --   -0.86169  -0.82448  -0.80094  -0.78839  -0.77466
 Alpha  occ. eigenvalues --   -0.72043  -0.71167  -0.70489  -0.65661  -0.65017
 Alpha  occ. eigenvalues --   -0.64779  -0.62276  -0.61275  -0.59778  -0.58047
 Alpha  occ. eigenvalues --   -0.55717  -0.55266  -0.53117  -0.53064  -0.52899
 Alpha  occ. eigenvalues --   -0.52799  -0.50361  -0.48802  -0.48800  -0.48387
 Alpha  occ. eigenvalues --   -0.47137  -0.46346  -0.46263  -0.44802  -0.44260
 Alpha  occ. eigenvalues --   -0.37352  -0.36350
 Alpha virt. eigenvalues --    0.05028   0.11231   0.16412   0.19745   0.22749
 Alpha virt. eigenvalues --    0.23471   0.24640   0.26216   0.26620   0.28427
 Alpha virt. eigenvalues --    0.29490   0.30747   0.31300   0.31500   0.32164

 Mulliken charges:
               1
     1  C   -0.297884
     2  C   -0.306105
     3  C   -0.479348
     4  H    0.151985
     5  H    0.153190
     6  H    0.141746
     7  H    0.153663
     8  H    0.157542
     9  H    0.159307
    10  H    0.169144
    11  C   -0.298435
    12  C   -0.300135
    13  C   -0.475519
    14  H    0.140417
    15  H    0.151328
    16  H    0.152831
    17  H    0.154845
    18  H    0.156348
    19  H    0.151774
    20  H    0.162334
    21  C   -0.171435
    22  C   -0.218797
    23  C   -0.170831
    24  C    0.157213
    25  C   -0.172944
    26  C   -0.222795
    27  H    0.225607
    28  H    0.223495
    29  H    0.275614
    30  H    0.280849
    31  H    0.227748
    32  N    0.488338
    33  O   -0.460712
    34  O   -0.460379
 Sum of Mulliken charges =  -0.00000

 Dipole moment (field-independent basis, Debye):
    X=              3.0784    Y=             -4.0933    Z=             -0.3744  Tot=              5.1354
 Quadrupole moment (field-independent basis, Debye-Ang):
   XX=           -108.8689   YY=            -90.8142   ZZ=            -94.3326
   XY=             14.2326   XZ=             -0.5888   YZ=             -1.6206

 Normal termination of Gaussian 16 at Thu May  6 11:59:01 2021.
