 Gaussian 16, Revision A.03,
 Gaussian 16:  EM64L-G16RevA.03 25-Dec-2016

 -------------
 #p 6-31g* mp2
 -------------

 ------------------------------------------------------
 Input file generated by CHIRIPA (05-May-2021 14:53:16)
 ------------------------------------------------------
 Symbolic Z-matrix:
 Charge =  0 Multiplicity = 1

                         Standard orientation:
 ---------------------------------------------------------------------
 Center     Atomic      Atomic             Coordinates (Angstroms)
 Number     Number       Type             X           Y           Z
 ---------------------------------------------------------------------
      1          6           0        3.340400   -0.614289   -0.175445
      2          6           0        2.839361   -2.014152    0.181387
      3          6           0        1.369994   -2.227051   -0.183890
      4          1           0        2.721026    0.132394    0.340100
      5          1           0        3.201235   -0.446068   -1.252352
      6          1           0        2.980705   -2.180199    1.257057
      7          1           0        3.460121   -2.757593   -0.334916
      8          1           0        1.216267   -2.088267   -1.258928
      9          1           0        0.734128   -1.507593    0.342090
     10          1           0        1.032621   -3.234273    0.079822
     11          6           0        4.807619   -0.386177    0.183668
     12          6           0        5.308659    1.013685   -0.173164
     13          6           0        6.778026    1.226585    0.192113
     14          1           0        4.946785   -0.554398    1.260575
     15          1           0        5.426993   -1.132860   -0.331876
     16          1           0        4.687899    1.757127    0.343139
     17          1           0        5.167314    1.179733   -1.248834
     18          1           0        7.413892    0.507126   -0.333867
     19          1           0        6.931752    1.087801    1.267151
     20          1           0        7.115399    2.233807   -0.071599
     21          6           0       -1.705742    2.434634   -0.086473
     22          6           0       -3.089612    2.576562    0.059412
     23          6           0       -3.917691    1.451133    0.106762
     24          6           0       -3.325619    0.193217    0.004837
     25          6           0       -1.950245    0.019153   -0.141241
     26          6           0       -1.141470    1.158632   -0.186157
     27          1           0       -1.069967    3.314352   -0.122310
     28          1           0       -3.530595    3.566283    0.137070
     29          1           0       -4.992045    1.532192    0.219056
     30          1           0       -1.539765   -0.980506   -0.216114
     31          1           0       -0.067054    1.045389   -0.299520
     32          7           0       -4.192051   -1.005661    0.053676
     33          8           0       -3.645854   -2.102864   -0.038263
     34          8           0       -5.400951   -0.825439    0.182972
 ---------------------------------------------------------------------

 SCF Done:  E(RHF) =  -669.535467676     A.U. after   15 cycles
 E2 =    -0.2091758281D+01 EUMP2 =    -0.67162722595637D+03

 The electronic state is 1-A.
 Alpha  occ. eigenvalues --  -20.60690 -20.60684 -15.85740 -11.31088 -11.27678
 Alpha  occ. eigenvalues --  -11.27607 -11.27419 -11.26694 -11.26649 -11.22267
 Alpha  occ. eigenvalues --  -11.22187 -11.22173 -11.21978 -11.21852 -11.21539
 Alpha  occ. eigenvalues --   -1.59765  -1.39318  -1.19268  -1.09099  -1.08669
 Alpha  occ. eigenvalues --   -1.04676  -1.04163  -0.96634  -0.95504  -0.87655
 Alpha  occ. eigenvalues --   -0.86066  -0.82342  -0.80245  -0.78931  -0.77375
 Alpha  occ. eigenvalues --   -0.71961  -0.71088  -0.70388  -0.65727  -0.64924
 Alpha  occ. eigenvalues --   -0.64674  -0.62119  -0.61492  -0.59974  -0.58227
 Alpha  occ. eigenvalues --   -0.55933  -0.55178  -0.53305  -0.53104  -0.52999
 Alpha  occ. eigenvalues --   -0.52686  -0.50569  -0.48729  -0.48716  -0.48533
 Alpha  occ. eigenvalues --   -0.47262  -0.46464  -0.46371  -0.44727  -0.44419
 Alpha  occ. eigenvalues --   -0.37258  -0.36271
 Alpha virt. eigenvalues --    0.05130   0.11373   0.16580   0.19817   0.22460
 Alpha virt. eigenvalues --    0.23642   0.25267   0.25838   0.26479   0.28320
 Alpha virt. eigenvalues --    0.29234   0.29772   0.31144   0.31407   0.31541

 Mulliken charges:
               1
     1  C   -0.300886
     2  C   -0.300277
     3  C   -0.483574
     4  H    0.143536
     5  H    0.149677
     6  H    0.155464
     7  H    0.156327
     8  H    0.156681
     9  H    0.147995
    10  H    0.171377
    11  C   -0.298531
    12  C   -0.299915
    13  C   -0.476046
    14  H    0.151637
    15  H    0.152593
    16  H    0.149458
    17  H    0.152023
    18  H    0.156796
    19  H    0.156319
    20  H    0.161046
    21  C   -0.171185
    22  C   -0.218837
    23  C   -0.170729
    24  C    0.159308
    25  C   -0.178415
    26  C   -0.224797
    27  H    0.225360
    28  H    0.223043
    29  H    0.275244
    30  H    0.284246
    31  H    0.228227
    32  N    0.488043
    33  O   -0.460300
    34  O   -0.460907
 Sum of Mulliken charges =  -0.00000

 Dipole moment (field-independent basis, Debye):
    X=              3.2674    Y=              4.0819    Z=             -0.1716  Tot=              5.2314
 Quadrupole moment (field-independent basis, Debye-Ang):
   XX=           -112.3620   YY=            -91.3416   ZZ=            -94.7907
   XY=            -16.9745   XZ=             -0.3127   YZ=              0.5679

 Normal termination of Gaussian 16 at Thu May  6 02:44:11 2021.
