 Gaussian 16, Revision A.03,
 Gaussian 16:  EM64L-G16RevA.03 25-Dec-2016

 -------------
 #p 6-31g* mp2
 -------------

 ------------------------------------------------------
 Input file generated by CHIRIPA (05-May-2021 14:57:22)
 ------------------------------------------------------
 Symbolic Z-matrix:
 Charge =  0 Multiplicity = 1

                         Standard orientation:
 ---------------------------------------------------------------------
 Center     Atomic      Atomic             Coordinates (Angstroms)
 Number     Number       Type             X           Y           Z
 ---------------------------------------------------------------------
      1          6           0        0.725980    1.701834   -1.438474
      2          6           0        1.817157    2.182858   -0.707400
      3          6           0        2.726045    1.296293   -0.122188
      4          6           0        2.512364   -0.071136   -0.288823
      5          6           0        1.434866   -0.581235   -1.011379
      6          6           0        0.538647    0.323752   -1.587867
      7          1           0        0.024855    2.397695   -1.889692
      8          1           0        1.965142    3.252578   -0.589734
      9          1           0        3.579329    1.641471    0.448930
     10          1           0        1.313695   -1.653030   -1.111336
     11          1           0       -0.307882   -0.052670   -2.155089
     12          7           0        3.467856   -1.019455    0.326097
     13          8           0        3.257357   -2.219564    0.164652
     14          8           0        4.409178   -0.544680    0.957872
     15          6           0       -1.681256    2.224914    1.148927
     16          6           0       -1.047662    1.099311    1.685673
     17          6           0       -1.412780   -0.185468    1.272662
     18          6           0       -2.420011   -0.308487    0.316816
     19          6           0       -3.070012    0.793536   -0.236658
     20          6           0       -2.688633    2.068709    0.191162
     21          1           0       -1.391307    3.219231    1.475516
     22          1           0       -0.264991    1.217605    2.429634
     23          1           0       -0.938805   -1.074029    1.671693
     24          1           0       -3.846752    0.643833   -0.976714
     25          1           0       -3.182423    2.941069   -0.227411
     26          7           0       -2.815153   -1.663541   -0.128260
     27          8           0       -3.705450   -1.745087   -0.971681
     28          8           0       -2.227086   -2.618427    0.374736
 ---------------------------------------------------------------------

 SCF Done:  E(RHF) =  -868.335378522     A.U. after   16 cycles
 E2 =    -0.2606689573D+01 EUMP2 =    -0.87094206809522D+03

 The electronic state is 1-A.
 Alpha  occ. eigenvalues --  -20.61398 -20.61374 -20.60980 -20.60955 -15.86434
 Alpha  occ. eigenvalues --  -15.86026 -11.31781 -11.31427 -11.28444 -11.28283
 Alpha  occ. eigenvalues --  -11.28131 -11.28058 -11.27917 -11.27723 -11.27462
 Alpha  occ. eigenvalues --  -11.27261 -11.27077 -11.26903  -1.60475  -1.60053
 Alpha  occ. eigenvalues --   -1.40022  -1.39601  -1.20024  -1.19585  -1.09400
 Alpha  occ. eigenvalues --   -1.08988  -1.05384  -1.05013  -0.96222  -0.95816
 Alpha  occ. eigenvalues --   -0.86784  -0.86413  -0.83035  -0.82651  -0.78078
 Alpha  occ. eigenvalues --   -0.77695  -0.72639  -0.72234  -0.71834  -0.71395
 Alpha  occ. eigenvalues --   -0.71105  -0.70703  -0.65633  -0.65378  -0.65251
 Alpha  occ. eigenvalues --   -0.65018  -0.62716  -0.62353  -0.55899  -0.55522
 Alpha  occ. eigenvalues --   -0.54746  -0.53460  -0.53109  -0.52366  -0.49409
 Alpha  occ. eigenvalues --   -0.49400  -0.49005  -0.48987  -0.45420  -0.44997
 Alpha  occ. eigenvalues --   -0.38549  -0.37410  -0.36950  -0.36136
 Alpha virt. eigenvalues --    0.04247   0.04990   0.10599   0.10967   0.15886
 Alpha virt. eigenvalues --    0.16322   0.20572   0.21294   0.26635   0.26700
 Alpha virt. eigenvalues --    0.27649   0.28326   0.30039   0.30846   0.31759

 Mulliken charges:
               1
     1  C   -0.163122
     2  C   -0.222577
     3  C   -0.175124
     4  C    0.155287
     5  C   -0.174450
     6  C   -0.216808
     7  H    0.222460
     8  H    0.219380
     9  H    0.274365
    10  H    0.283169
    11  H    0.226400
    12  N    0.487178
    13  O   -0.456377
    14  O   -0.462192
    15  C   -0.170540
    16  C   -0.210547
    17  C   -0.168205
    18  C    0.156084
    19  C   -0.177580
    20  C   -0.224287
    21  H    0.224537
    22  H    0.227207
    23  H    0.279935
    24  H    0.275523
    25  H    0.222478
    26  N    0.485591
    27  O   -0.461190
    28  O   -0.456593
 Sum of Mulliken charges =  -0.00000

 Dipole moment (field-independent basis, Debye):
    X=             -2.0017    Y=              7.9441    Z=             -0.5099  Tot=              8.2083
 Quadrupole moment (field-independent basis, Debye-Ang):
   XX=           -126.5153   YY=           -105.4010   ZZ=           -100.9807
   XY=             -2.7515   XZ=             -4.5868   YZ=              0.5104

 Normal termination of Gaussian 16 at Thu May  6 17:54:39 2021.
