 Gaussian 16, Revision A.03,
 Gaussian 16:  EM64L-G16RevA.03 25-Dec-2016

 -------------
 #p 6-31g* mp2
 -------------

 ------------------------------------------------------
 Input file generated by CHIRIPA (05-May-2021 14:57:27)
 ------------------------------------------------------
 Symbolic Z-matrix:
 Charge =  0 Multiplicity = 1

                         Standard orientation:
 ---------------------------------------------------------------------
 Center     Atomic      Atomic             Coordinates (Angstroms)
 Number     Number       Type             X           Y           Z
 ---------------------------------------------------------------------
      1          6           0       -2.456780    1.621689    1.869066
      2          6           0       -1.899497    0.394135    2.241985
      3          6           0       -1.693986   -0.610338    1.291538
      4          6           0       -2.058977   -0.352137   -0.028842
      5          6           0       -2.616328    0.860519   -0.431477
      6          6           0       -2.812789    1.850560    0.535876
      7          1           0       -2.612910    2.396381    2.613963
      8          1           0       -1.622064    0.213600    3.276627
      9          1           0       -1.264424   -1.569833    1.552810
     10          1           0       -2.882859    1.011082   -1.470568
     11          1           0       -3.245778    2.802933    0.243387
     12          7           0       -1.846202   -1.407887   -1.043986
     13          8           0       -2.176227   -1.155588   -2.200734
     14          8           0       -1.353434   -2.467693   -0.663686
     15          6           0        2.507134   -1.695143    1.500468
     16          6           0        1.997457   -1.977303    0.228801
     17          6           0        1.764656   -0.947293   -0.687403
     18          6           0        2.054109    0.359238   -0.296912
     19          6           0        2.562625    0.672361    0.962713
     20          6           0        2.787596   -0.373542    1.862726
     21          1           0        2.684939   -2.501453    2.205909
     22          1           0        1.778719   -3.002731   -0.055268
     23          1           0        1.370710   -1.137497   -1.678386
     24          1           0        2.770908    1.704512    1.217075
     25          1           0        3.183483   -0.151453    2.849638
     26          7           0        1.811798    1.458076   -1.258287
     27          8           0        2.075051    2.600728   -0.889939
     28          8           0        1.363208    1.155886   -2.361956
 ---------------------------------------------------------------------

 SCF Done:  E(RHF) =  -868.339225240     A.U. after   16 cycles
 E2 =    -0.2603243704D+01 EUMP2 =    -0.87094246894385D+03

 The electronic state is 1-A.
 Alpha  occ. eigenvalues --  -20.61053 -20.60959 -20.60618 -20.60586 -15.86016
 Alpha  occ. eigenvalues --  -15.85647 -11.31162 -11.30956 -11.27774 -11.27665
 Alpha  occ. eigenvalues --  -11.27549 -11.27456 -11.27342 -11.27240 -11.26744
 Alpha  occ. eigenvalues --  -11.26636 -11.26619 -11.26357  -1.60075  -1.59685
 Alpha  occ. eigenvalues --   -1.39631  -1.39236  -1.19338  -1.19111  -1.08776
 Alpha  occ. eigenvalues --   -1.08537  -1.04700  -1.04470  -0.95644  -0.95375
 Alpha  occ. eigenvalues --   -0.86111  -0.85888  -0.82495  -0.82167  -0.77563
 Alpha  occ. eigenvalues --   -0.77221  -0.72266  -0.71876  -0.71449  -0.70982
 Alpha  occ. eigenvalues --   -0.70447  -0.70194  -0.64995  -0.64746  -0.64712
 Alpha  occ. eigenvalues --   -0.64444  -0.62053  -0.61779  -0.55233  -0.55016
 Alpha  occ. eigenvalues --   -0.53282  -0.52822  -0.52601  -0.52528  -0.49034
 Alpha  occ. eigenvalues --   -0.48994  -0.48632  -0.48617  -0.45088  -0.44653
 Alpha  occ. eigenvalues --   -0.37450  -0.37039  -0.36274  -0.35981
 Alpha virt. eigenvalues --    0.04901   0.05274   0.11356   0.11543   0.16416
 Alpha virt. eigenvalues --    0.16821   0.21393   0.21832   0.27356   0.27645
 Alpha virt. eigenvalues --    0.28455   0.28601   0.31018   0.31288   0.32475

 Mulliken charges:
               1
     1  C   -0.169747
     2  C   -0.219475
     3  C   -0.166881
     4  C    0.154066
     5  C   -0.167246
     6  C   -0.217568
     7  H    0.225811
     8  H    0.220149
     9  H    0.270823
    10  H    0.280246
    11  H    0.226585
    12  N    0.487469
    13  O   -0.452183
    14  O   -0.471081
    15  C   -0.178572
    16  C   -0.211986
    17  C   -0.180537
    18  C    0.159381
    19  C   -0.172673
    20  C   -0.220149
    21  H    0.223895
    22  H    0.235686
    23  H    0.286039
    24  H    0.272336
    25  H    0.219757
    26  N    0.487348
    27  O   -0.464523
    28  O   -0.456971
 Sum of Mulliken charges =  -0.00000

 Dipole moment (field-independent basis, Debye):
    X=             -0.0730    Y=             -0.1617    Z=              6.6810  Tot=              6.6834
 Quadrupole moment (field-independent basis, Debye-Ang):
   XX=            -98.4034   YY=           -106.8973   ZZ=           -102.9976
   XY=            -16.0169   XZ=              2.0831   YZ=              1.3342

 Normal termination of Gaussian 16 at Wed May  5 16:34:07 2021.
