 Gaussian 16, Revision A.03,
 Gaussian 16:  EM64L-G16RevA.03 25-Dec-2016

 -------------
 #p 6-31g* mp2
 -------------

 ------------------------------------------------------
 Input file generated by CHIRIPA (05-May-2021 14:53:13)
 ------------------------------------------------------
 Symbolic Z-matrix:
 Charge =  0 Multiplicity = 1

                         Standard orientation:
 ---------------------------------------------------------------------
 Center     Atomic      Atomic             Coordinates (Angstroms)
 Number     Number       Type             X           Y           Z
 ---------------------------------------------------------------------
      1          6           0        3.904339    0.534944   -0.358158
      2          6           0        3.365664    1.840223    0.228408
      3          6           0        2.267352    2.466002   -0.631770
      4          1           0        4.292071    0.726673   -1.368034
      5          1           0        3.075525   -0.177511   -0.471602
      6          1           0        4.195487    2.549523    0.342002
      7          1           0        2.979344    1.645403    1.237079
      8          1           0        1.420877    1.779429   -0.735202
      9          1           0        2.643930    2.688685   -1.635365
     10          1           0        1.896643    3.398075   -0.193964
     11          6           0        5.002965   -0.102689    0.490472
     12          6           0        5.541641   -1.407969   -0.096093
     13          6           0        6.639953   -2.033747    0.764085
     14          1           0        5.831780    0.609766    0.603917
     15          1           0        4.615234   -0.294419    1.500348
     16          1           0        5.927961   -1.213148   -1.104765
     17          1           0        4.711818   -2.117268   -0.209688
     18          1           0        6.263375   -2.256430    1.767679
     19          1           0        7.486428   -1.347174    0.867516
     20          1           0        7.010662   -2.965821    0.326278
     21          6           0       -5.852823   -0.587590    0.694987
     22          6           0       -5.129328    0.483344    1.229942
     23          6           0       -3.813614    0.724822    0.823575
     24          6           0       -3.249964   -0.128368   -0.123871
     25          6           0       -3.944942   -1.203616   -0.675354
     26          6           0       -5.259367   -1.426174   -0.254281
     27          1           0       -6.874401   -0.767827    1.016374
     28          1           0       -5.587659    1.136235    1.967310
     29          1           0       -3.230692    1.546622    1.221402
     30          1           0       -3.461133   -1.837214   -1.408773
     31          1           0       -5.818851   -2.258638   -0.671445
     32          7           0       -1.857759    0.117260   -0.561858
     33          8           0       -1.383911   -0.648955   -1.397932
     34          8           0       -1.266758    1.071345   -0.060783
 ---------------------------------------------------------------------

 SCF Done:  E(RHF) =  -669.536479168     A.U. after   15 cycles
 E2 =    -0.2090956577D+01 EUMP2 =    -0.67162743574479D+03

 The electronic state is 1-A.
 Alpha  occ. eigenvalues --  -20.61050 -20.61025 -15.86051 -11.31345 -11.27902
 Alpha  occ. eigenvalues --  -11.27898 -11.27634 -11.26902 -11.26892 -11.20811
 Alpha  occ. eigenvalues --  -11.20447 -11.20439 -11.20244 -11.20137 -11.19204
 Alpha  occ. eigenvalues --   -1.60090  -1.39646  -1.19508  -1.08920  -1.07348
 Alpha  occ. eigenvalues --   -1.04899  -1.02389  -0.95767  -0.94818  -0.86301
 Alpha  occ. eigenvalues --   -0.85832  -0.82599  -0.78497  -0.77657  -0.77116
 Alpha  occ. eigenvalues --   -0.72269  -0.71398  -0.70616  -0.65163  -0.64902
 Alpha  occ. eigenvalues --   -0.63983  -0.62246  -0.59779  -0.58266  -0.56431
 Alpha  occ. eigenvalues --   -0.55408  -0.54094  -0.53233  -0.52990  -0.51529
 Alpha  occ. eigenvalues --   -0.51250  -0.49234  -0.49029  -0.48531  -0.46773
 Alpha  occ. eigenvalues --   -0.45511  -0.45065  -0.44667  -0.44519  -0.42658
 Alpha  occ. eigenvalues --   -0.37486  -0.36498
 Alpha virt. eigenvalues --    0.04876   0.11158   0.16384   0.21297   0.23889
 Alpha virt. eigenvalues --    0.25523   0.27217   0.27719   0.28181   0.28559
 Alpha virt. eigenvalues --    0.29254   0.30867   0.32389   0.32593   0.32739

 Mulliken charges:
               1
     1  C   -0.299257
     2  C   -0.297806
     3  C   -0.486013
     4  H    0.147026
     5  H    0.157098
     6  H    0.144603
     7  H    0.149671
     8  H    0.187376
     9  H    0.146646
    10  H    0.152977
    11  C   -0.297371
    12  C   -0.299047
    13  C   -0.475048
    14  H    0.146561
    15  H    0.147740
    16  H    0.150927
    17  H    0.152698
    18  H    0.153801
    19  H    0.153731
    20  H    0.157969
    21  C   -0.170469
    22  C   -0.218565
    23  C   -0.170769
    24  C    0.157693
    25  C   -0.170601
    26  C   -0.218609
    27  H    0.226180
    28  H    0.224034
    29  H    0.276103
    30  H    0.275959
    31  H    0.223989
    32  N    0.489064
    33  O   -0.459219
    34  O   -0.459071
 Sum of Mulliken charges =  -0.00000

 Dipole moment (field-independent basis, Debye):
    X=             -5.3501    Y=             -0.9552    Z=              1.5050  Tot=              5.6392
 Quadrupole moment (field-independent basis, Debye-Ang):
   XX=            -65.0232   YY=            -92.3830   ZZ=            -93.9002
   XY=              4.3338   XZ=             -5.3149   YZ=              2.8746

 Normal termination of Gaussian 16 at Wed May  5 17:03:37 2021.
