 Gaussian 16, Revision A.03,
 Gaussian 16:  EM64L-G16RevA.03 25-Dec-2016

 -------------
 #p 6-31g* mp2
 -------------

 ------------------------------------------------------
 Input file generated by CHIRIPA (05-May-2021 14:53:13)
 ------------------------------------------------------
 Symbolic Z-matrix:
 Charge =  0 Multiplicity = 1

                         Standard orientation:
 ---------------------------------------------------------------------
 Center     Atomic      Atomic             Coordinates (Angstroms)
 Number     Number       Type             X           Y           Z
 ---------------------------------------------------------------------
      1          6           0        2.892458    1.068568    0.059583
      2          6           0        3.488970    2.357887   -0.505937
      3          6           0        2.519761    3.538330   -0.435341
      4          1           0        1.974120    0.824304   -0.491721
      5          1           0        2.594614    1.237707    1.103650
      6          1           0        3.786870    2.185964   -1.548201
      7          1           0        4.406099    2.599006    0.046651
      8          1           0        2.231059    3.738257    0.601617
      9          1           0        1.608312    3.322868   -1.002297
     10          1           0        2.966559    4.449670   -0.844841
     11          6           0        3.849409   -0.120520   -0.004014
     12          6           0        3.252896   -1.409840    0.561506
     13          6           0        4.222106   -2.590282    0.490910
     14          1           0        4.147253   -0.289660   -1.048081
     15          1           0        4.767747    0.123743    0.547290
     16          1           0        2.335768   -1.650958    0.008918
     17          1           0        2.954997   -1.237917    1.603770
     18          1           0        5.133554   -2.374821    1.057865
     19          1           0        4.510807   -2.790209   -0.546048
     20          1           0        3.775307   -3.501622    0.900410
     21          6           0       -4.493848    1.199473    0.642297
     22          6           0       -4.470148    0.645696   -0.641951
     23          6           0       -3.444259   -0.225280   -1.020766
     24          6           0       -2.453694   -0.522094   -0.085900
     25          6           0       -2.449659    0.013567    1.201089
     26          6           0       -3.485306    0.882200    1.558103
     27          1           0       -5.294574    1.875157    0.928102
     28          1           0       -5.252075    0.890310   -1.355252
     29          1           0       -3.401514   -0.668184   -2.008402
     30          1           0       -1.656287   -0.249079    1.890290
     31          1           0       -3.501155    1.310782    2.556157
     32          7           0       -1.362466   -1.442918   -0.475394
     33          8           0       -0.501519   -1.688536    0.366674
     34          8           0       -1.388771   -1.901604   -1.615374
 ---------------------------------------------------------------------

 SCF Done:  E(RHF) =  -669.536226993     A.U. after   15 cycles
 E2 =    -0.2091280861D+01 EUMP2 =    -0.67162750785393D+03

 The electronic state is 1-A.
 Alpha  occ. eigenvalues --  -20.60990 -20.60960 -15.85997 -11.31298 -11.27860
 Alpha  occ. eigenvalues --  -11.27853 -11.27594 -11.26861 -11.26851 -11.21073
 Alpha  occ. eigenvalues --  -11.20751 -11.20632 -11.20407 -11.20127 -11.19922
 Alpha  occ. eigenvalues --   -1.60036  -1.39591  -1.19464  -1.08874  -1.07560
 Alpha  occ. eigenvalues --   -1.04857  -1.02652  -0.95719  -0.95168  -0.86259
 Alpha  occ. eigenvalues --   -0.86192  -0.82553  -0.78745  -0.77616  -0.77281
 Alpha  occ. eigenvalues --   -0.72215  -0.71347  -0.70573  -0.65120  -0.64861
 Alpha  occ. eigenvalues --   -0.64196  -0.62204  -0.60049  -0.58562  -0.56736
 Alpha  occ. eigenvalues --   -0.55364  -0.54479  -0.53190  -0.52949  -0.51878
 Alpha  occ. eigenvalues --   -0.51584  -0.49179  -0.48981  -0.48978  -0.47044
 Alpha  occ. eigenvalues --   -0.45777  -0.45205  -0.44827  -0.44480  -0.42915
 Alpha  occ. eigenvalues --   -0.37442  -0.36456
 Alpha virt. eigenvalues --    0.04902   0.11198   0.16392   0.21325   0.23633
 Alpha virt. eigenvalues --    0.25169   0.27216   0.27523   0.27937   0.28560
 Alpha virt. eigenvalues --    0.28798   0.30956   0.32196   0.32351   0.32732

 Mulliken charges:
               1
     1  C   -0.296307
     2  C   -0.298953
     3  C   -0.474844
     4  H    0.152181
     5  H    0.145296
     6  H    0.151933
     7  H    0.150330
     8  H    0.152174
     9  H    0.153637
    10  H    0.158311
    11  C   -0.298124
    12  C   -0.307228
    13  C   -0.475251
    14  H    0.148027
    15  H    0.144375
    16  H    0.180621
    17  H    0.146552
    18  H    0.148440
    19  H    0.153080
    20  H    0.161219
    21  C   -0.170461
    22  C   -0.218601
    23  C   -0.170748
    24  C    0.157702
    25  C   -0.170379
    26  C   -0.218496
    27  H    0.226070
    28  H    0.223815
    29  H    0.275729
    30  H    0.276216
    31  H    0.223935
    32  N    0.488667
    33  O   -0.459276
    34  O   -0.459644
 Sum of Mulliken charges =  -0.00000

 Dipole moment (field-independent basis, Debye):
    X=             -4.1358    Y=              3.1099    Z=              1.3290  Tot=              5.3426
 Quadrupole moment (field-independent basis, Debye-Ang):
   XX=            -76.8924   YY=           -100.1144   ZZ=            -90.1927
   XY=             -5.4772   XZ=             -0.8754   YZ=             -0.0920

 Normal termination of Gaussian 16 at Thu May  6 01:00:47 2021.
