 Gaussian 16, Revision A.03,
 Gaussian 16:  EM64L-G16RevA.03 25-Dec-2016

 -------------
 #p 6-31g* mp2
 -------------

 ------------------------------------------------------
 Input file generated by CHIRIPA (05-May-2021 14:57:26)
 ------------------------------------------------------
 Symbolic Z-matrix:
 Charge =  0 Multiplicity = 1

                         Standard orientation:
 ---------------------------------------------------------------------
 Center     Atomic      Atomic             Coordinates (Angstroms)
 Number     Number       Type             X           Y           Z
 ---------------------------------------------------------------------
      1          6           0        2.627146    2.179862   -0.161641
      2          6           0        3.968908    2.152837   -0.555932
      3          6           0        4.700915    0.962954   -0.502155
      4          6           0        4.056753   -0.186432   -0.046900
      5          6           0        2.721296   -0.191582    0.352871
      6          6           0        2.008712    1.009629    0.290705
      7          1           0        2.066049    3.108591   -0.206674
      8          1           0        4.451781    3.060125   -0.907652
      9          1           0        5.740874    0.913730   -0.801288
     10          1           0        2.267233   -1.112137    0.699028
     11          1           0        0.966810    1.027650    0.597557
     12          7           0        4.821415   -1.452104    0.014471
     13          8           0        4.230868   -2.451101    0.419313
     14          8           0        5.996825   -1.421175   -0.343429
     15          6           0       -2.876198    2.214127    0.559888
     16          6           0       -4.042610    2.147334   -0.209230
     17          6           0       -4.635568    0.913723   -0.494103
     18          6           0       -4.032676   -0.238363    0.008399
     19          6           0       -2.870561   -0.204532    0.777578
     20          6           0       -2.294921    1.040051    1.049973
     21          1           0       -2.422299    3.176688    0.776338
     22          1           0       -4.496234    3.057502   -0.591151
     23          1           0       -5.538575    0.833145   -1.086981
     24          1           0       -2.441514   -1.129058    1.144439
     25          1           0       -1.389071    1.088898    1.647547
     26          7           0       -4.651247   -1.550139   -0.286579
     27          8           0       -4.100555   -2.550585    0.167825
     28          8           0       -5.675063   -1.553025   -0.966600
 ---------------------------------------------------------------------

 SCF Done:  E(RHF) =  -868.336469790     A.U. after   16 cycles
 E2 =    -0.2599788791D+01 EUMP2 =    -0.87093625858126D+03

 The electronic state is 1-A.
 Alpha  occ. eigenvalues --  -20.61243 -20.61238 -20.61064 -20.61059 -15.86306
 Alpha  occ. eigenvalues --  -15.86124 -11.31859 -11.31618 -11.28517 -11.28446
 Alpha  occ. eigenvalues --  -11.28312 -11.28238 -11.28190 -11.28032 -11.27639
 Alpha  occ. eigenvalues --  -11.27480 -11.27339 -11.27235  -1.60316  -1.60137
 Alpha  occ. eigenvalues --   -1.39864  -1.39687  -1.20077  -1.19817  -1.09443
 Alpha  occ. eigenvalues --   -1.09197  -1.05520  -1.05248  -0.96236  -0.96005
 Alpha  occ. eigenvalues --   -0.86923  -0.86641  -0.83076  -0.82837  -0.78088
 Alpha  occ. eigenvalues --   -0.77849  -0.72520  -0.72340  -0.71642  -0.71462
 Alpha  occ. eigenvalues --   -0.71194  -0.70945  -0.65737  -0.65676  -0.65478
 Alpha  occ. eigenvalues --   -0.65183  -0.62912  -0.62538  -0.56039  -0.55771
 Alpha  occ. eigenvalues --   -0.53843  -0.53694  -0.53558  -0.53257  -0.49296
 Alpha  occ. eigenvalues --   -0.49262  -0.49109  -0.49086  -0.45227  -0.45064
 Alpha  occ. eigenvalues --   -0.38075  -0.37813  -0.37120  -0.36844
 Alpha virt. eigenvalues --    0.04477   0.04696   0.10386   0.10801   0.15821
 Alpha virt. eigenvalues --    0.16142   0.18742   0.21866   0.24763   0.27234
 Alpha virt. eigenvalues --    0.28059   0.28519   0.29338   0.31504   0.31731

 Mulliken charges:
               1
     1  C   -0.171355
     2  C   -0.218146
     3  C   -0.170068
     4  C    0.159233
     5  C   -0.171054
     6  C   -0.220418
     7  H    0.222655
     8  H    0.224518
     9  H    0.277326
    10  H    0.276512
    11  H    0.217946
    12  N    0.488016
    13  O   -0.458667
    14  O   -0.459151
    15  C   -0.171146
    16  C   -0.218299
    17  C   -0.168843
    18  C    0.159189
    19  C   -0.169873
    20  C   -0.223672
    21  H    0.223796
    22  H    0.225554
    23  H    0.278408
    24  H    0.277501
    25  H    0.218363
    26  N    0.488020
    27  O   -0.458001
    28  O   -0.458343
 Sum of Mulliken charges =  -0.00000

 Dipole moment (field-independent basis, Debye):
    X=             -0.6176    Y=              8.9856    Z=              0.7149  Tot=              9.0351
 Quadrupole moment (field-independent basis, Debye-Ang):
   XX=           -137.1285   YY=           -107.3903   ZZ=           -104.2766
   XY=             -0.2901   XZ=             -4.3508   YZ=             -2.8835

 Normal termination of Gaussian 16 at Thu May  6 16:27:22 2021.
