 Gaussian 16, Revision A.03,
 Gaussian 16:  EM64L-G16RevA.03 25-Dec-2016

 -------------
 #p 6-31g* mp2
 -------------

 ------------------------------------------------------
 Input file generated by CHIRIPA (05-May-2021 14:53:14)
 ------------------------------------------------------
 Symbolic Z-matrix:
 Charge =  0 Multiplicity = 1

                         Standard orientation:
 ---------------------------------------------------------------------
 Center     Atomic      Atomic             Coordinates (Angstroms)
 Number     Number       Type             X           Y           Z
 ---------------------------------------------------------------------
      1          6           0       -5.685493   -0.359891   -0.023903
      2          6           0       -6.262484    0.591159   -1.072984
      3          6           0       -7.724534    0.289772   -1.403695
      4          1           0       -5.775529   -1.393212   -0.385963
      5          1           0       -6.290190   -0.295558    0.891300
      6          1           0       -5.656051    0.526072   -1.985463
      7          1           0       -6.170890    1.622349   -0.708468
      8          1           0       -8.347502    0.373916   -0.507352
      9          1           0       -7.829738   -0.728590   -1.791604
     10          1           0       -8.116868    0.981472   -2.155683
     11          6           0       -4.224663   -0.071270    0.317276
     12          6           0       -3.647672   -1.022320    1.366356
     13          6           0       -2.185623   -0.720933    1.697068
     14          1           0       -3.619966   -0.135604   -0.597928
     15          1           0       -4.134628    0.962050    0.679335
     16          1           0       -3.739266   -2.053511    1.001840
     17          1           0       -4.254106   -0.957234    2.278836
     18          1           0       -2.080418    0.297428    2.084976
     19          1           0       -1.562654   -0.805077    0.800725
     20          1           0       -1.793288   -1.412634    2.449055
     21          6           0        1.818912    1.478924    0.546314
     22          6           0        1.717193    0.111655    0.269279
     23          6           0        2.847661   -0.624421   -0.097851
     24          6           0        4.069558    0.041728   -0.178494
     25          6           0        4.203141    1.402842    0.091350
     26          6           0        3.059374    2.119026    0.456623
     27          1           0        0.935571    2.043000    0.830787
     28          1           0        0.755129   -0.388083    0.338127
     29          1           0        2.797361   -1.683913   -0.317770
     30          1           0        5.175825    1.873327    0.014222
     31          1           0        3.141351    3.180760    0.671201
     32          7           0        5.273373   -0.726993   -0.566174
     33          8           0        6.338342   -0.116748   -0.630046
     34          8           0        5.129160   -1.925206   -0.798827
 ---------------------------------------------------------------------

 SCF Done:  E(RHF) =  -669.535587104     A.U. after   15 cycles
 E2 =    -0.2090771940D+01 EUMP2 =    -0.67162635904445D+03

 The electronic state is 1-A.
 Alpha  occ. eigenvalues --  -20.60706 -20.60701 -15.85758 -11.31108 -11.27677
 Alpha  occ. eigenvalues --  -11.27663 -11.27402 -11.26692 -11.26635 -11.22471
 Alpha  occ. eigenvalues --  -11.22281 -11.22146 -11.22107 -11.21959 -11.21482
 Alpha  occ. eigenvalues --   -1.59782  -1.39336  -1.19275  -1.09131  -1.08672
 Alpha  occ. eigenvalues --   -1.04677  -1.04258  -0.96733  -0.95511  -0.87760
 Alpha  occ. eigenvalues --   -0.86073  -0.82345  -0.80336  -0.78914  -0.77395
 Alpha  occ. eigenvalues --   -0.71977  -0.71105  -0.70382  -0.65764  -0.64926
 Alpha  occ. eigenvalues --   -0.64697  -0.62072  -0.61623  -0.60101  -0.58318
 Alpha  occ. eigenvalues --   -0.56050  -0.55166  -0.53440  -0.53225  -0.53007
 Alpha  occ. eigenvalues --   -0.52694  -0.50666  -0.48756  -0.48734  -0.48617
 Alpha  occ. eigenvalues --   -0.47348  -0.46464  -0.46362  -0.44745  -0.44492
 Alpha  occ. eigenvalues --   -0.37255  -0.36280
 Alpha virt. eigenvalues --    0.05138   0.11367   0.16636   0.20049   0.22353
 Alpha virt. eigenvalues --    0.23766   0.25128   0.26056   0.27006   0.27783
 Alpha virt. eigenvalues --    0.29102   0.29565   0.31155   0.31434   0.31983

 Mulliken charges:
               1
     1  C   -0.298850
     2  C   -0.300113
     3  C   -0.476093
     4  H    0.151291
     5  H    0.150878
     6  H    0.152356
     7  H    0.151789
     8  H    0.155861
     9  H    0.156190
    10  H    0.161557
    11  C   -0.299011
    12  C   -0.299278
    13  C   -0.481142
    14  H    0.148809
    15  H    0.148766
    16  H    0.155256
    17  H    0.155679
    18  H    0.153992
    19  H    0.147900
    20  H    0.165723
    21  C   -0.173499
    22  C   -0.225108
    23  C   -0.173142
    24  C    0.158966
    25  C   -0.171423
    26  C   -0.218567
    27  H    0.225939
    28  H    0.234647
    29  H    0.275742
    30  H    0.275244
    31  H    0.223002
    32  N    0.488014
    33  O   -0.460746
    34  O   -0.460628
 Sum of Mulliken charges =  -0.00000

 Dipole moment (field-independent basis, Debye):
    X=             -4.5007    Y=              2.6785    Z=              1.4042  Tot=              5.4224
 Quadrupole moment (field-independent basis, Debye-Ang):
   XX=           -128.4434   YY=            -90.8385   ZZ=            -95.5371
   XY=             13.4324   XZ=              5.9322   YZ=              0.3491

 Normal termination of Gaussian 16 at Thu May  6 20:20:38 2021.
