 Gaussian 16, Revision A.03,
 Gaussian 16:  EM64L-G16RevA.03 25-Dec-2016

 -------------
 #p 6-31g* mp2
 -------------

 ------------------------------------------------------
 Input file generated by CHIRIPA (05-May-2021 14:55:22)
 ------------------------------------------------------
 Symbolic Z-matrix:
 Charge =  0 Multiplicity = 1

                         Standard orientation:
 ---------------------------------------------------------------------
 Center     Atomic      Atomic             Coordinates (Angstroms)
 Number     Number       Type             X           Y           Z
 ---------------------------------------------------------------------
      1          6           0        0.496118   -0.586900   -0.722323
      2          6           0        0.932251    0.730228   -0.544886
      3          6           0        2.263130    0.998616   -0.211302
      4          6           0        3.134806   -0.079002   -0.062281
      5          6           0        2.730529   -1.402218   -0.232427
      6          6           0        1.395064   -1.647050   -0.565803
      7          1           0       -0.539521   -0.786241   -0.981378
      8          1           0        0.236334    1.555530   -0.665801
      9          1           0        2.627463    2.008649   -0.068078
     10          1           0        3.447610   -2.204099   -0.105146
     11          1           0        1.059156   -2.670960   -0.702989
     12          7           0        4.546175    0.192660    0.290759
     13          8           0        5.294405   -0.774303    0.416351
     14          8           0        4.877452    1.367407    0.435196
     15          6           0       -3.558339   -0.516568    0.475637
     16          6           0       -4.284564   -1.687104   -0.188008
     17          6           0       -3.961367   -3.030739    0.466199
     18          1           0       -2.475052   -0.694779    0.434728
     19          1           0       -3.829433   -0.481881    1.539920
     20          1           0       -4.013257   -1.718732   -1.251027
     21          1           0       -5.366241   -1.505995   -0.145686
     22          1           0       -4.248387   -3.023758    1.522688
     23          1           0       -2.887716   -3.237704    0.411068
     24          1           0       -4.491097   -3.853603   -0.023843
     25          6           0       -3.871282    0.833433   -0.167243
     26          6           0       -3.145056    2.003970    0.496401
     27          6           0       -3.468253    3.347604   -0.157805
     28          1           0       -3.600188    0.798747   -1.231527
     29          1           0       -4.954569    1.011644   -0.126335
     30          1           0       -2.063380    1.822861    0.454080
     31          1           0       -3.416363    2.035598    1.559420
     32          1           0       -4.541904    3.554569   -0.102674
     33          1           0       -3.181233    3.340623   -1.214295
     34          1           0       -2.938523    4.170469    0.332236
 ---------------------------------------------------------------------

 SCF Done:  E(RHF) =  -669.535175322     A.U. after   15 cycles
 E2 =    -0.2092356296D+01 EUMP2 =    -0.67162753161823D+03

 The electronic state is 1-A.
 Alpha  occ. eigenvalues --  -20.60774 -20.60769 -15.85828 -11.31209 -11.27776
 Alpha  occ. eigenvalues --  -11.27772 -11.27506 -11.26796 -11.26784 -11.22639
 Alpha  occ. eigenvalues --  -11.22582 -11.22463 -11.22401 -11.21976 -11.21956
 Alpha  occ. eigenvalues --   -1.59849  -1.39402  -1.19381  -1.09477  -1.08773
 Alpha  occ. eigenvalues --   -1.04786  -1.04511  -0.96947  -0.95608  -0.87956
 Alpha  occ. eigenvalues --   -0.86185  -0.82441  -0.80566  -0.79283  -0.77481
 Alpha  occ. eigenvalues --   -0.72046  -0.71172  -0.70529  -0.66163  -0.65032
 Alpha  occ. eigenvalues --   -0.64763  -0.62203  -0.61859  -0.60302  -0.58551
 Alpha  occ. eigenvalues --   -0.56316  -0.55246  -0.53610  -0.53347  -0.53110
 Alpha  occ. eigenvalues --   -0.52883  -0.50888  -0.48891  -0.48799  -0.48782
 Alpha  occ. eigenvalues --   -0.47612  -0.46800  -0.46749  -0.44804  -0.44771
 Alpha  occ. eigenvalues --   -0.37346  -0.36383
 Alpha virt. eigenvalues --    0.05018   0.11174   0.16389   0.18226   0.22205
 Alpha virt. eigenvalues --    0.23369   0.25383   0.26290   0.26736   0.27234
 Alpha virt. eigenvalues --    0.29760   0.30738   0.30896   0.31230   0.32460

 Mulliken charges:
               1
     1  C   -0.173562
     2  C   -0.222767
     3  C   -0.171068
     4  C    0.158872
     5  C   -0.170706
     6  C   -0.219623
     7  H    0.230174
     8  H    0.227556
     9  H    0.275949
    10  H    0.275762
    11  H    0.223586
    12  N    0.488001
    13  O   -0.460307
    14  O   -0.460272
    15  C   -0.303399
    16  C   -0.301238
    17  C   -0.474713
    18  H    0.144000
    19  H    0.155458
    20  H    0.149229
    21  H    0.156510
    22  H    0.159110
    23  H    0.149588
    24  H    0.163505
    25  C   -0.299652
    26  C   -0.303736
    27  C   -0.476938
    28  H    0.146051
    29  H    0.154933
    30  H    0.145907
    31  H    0.157587
    32  H    0.159412
    33  H    0.153807
    34  H    0.162985
 Sum of Mulliken charges =  -0.00000

 Dipole moment (field-independent basis, Debye):
    X=             -5.1813    Y=             -0.9340    Z=             -1.1610  Tot=              5.3913
 Quadrupole moment (field-independent basis, Debye-Ang):
   XX=           -124.6048   YY=            -90.5072   ZZ=            -95.1637
   XY=             -3.7465   XZ=             -4.5117   YZ=              0.6931

 Normal termination of Gaussian 16 at Thu May  6 15:52:19 2021.
