 Gaussian 16, Revision A.03,
 Gaussian 16:  EM64L-G16RevA.03 25-Dec-2016

 -------------
 #p 6-31g* mp2
 -------------

 ------------------------------------------------------
 Input file generated by CHIRIPA (05-May-2021 14:53:17)
 ------------------------------------------------------
 Symbolic Z-matrix:
 Charge =  0 Multiplicity = 1

                         Standard orientation:
 ---------------------------------------------------------------------
 Center     Atomic      Atomic             Coordinates (Angstroms)
 Number     Number       Type             X           Y           Z
 ---------------------------------------------------------------------
      1          6           0       -2.649590    0.619908   -0.135238
      2          6           0       -2.006289    1.983284    0.120407
      3          6           0       -0.482550    1.950204   -0.001731
      4          1           0       -2.239181   -0.111010    0.574880
      5          1           0       -2.368745    0.272178   -1.139034
      6          1           0       -2.289392    2.328969    1.122889
      7          1           0       -2.418419    2.711083   -0.590278
      8          1           0       -0.183357    1.629770   -1.004930
      9          1           0       -0.053598    1.245484    0.717971
     10          1           0       -0.043361    2.935165    0.184883
     11          6           0       -4.172549    0.636862   -0.016756
     12          6           0       -4.815850   -0.726514   -0.272401
     13          6           0       -6.339589   -0.693434   -0.150263
     14          1           0       -4.453394    0.984591    0.987040
     15          1           0       -4.582958    1.367780   -0.726875
     16          1           0       -4.403720   -1.454314    0.438284
     17          1           0       -4.532747   -1.072199   -1.274883
     18          1           0       -6.768541    0.011286   -0.869965
     19          1           0       -6.638782   -0.373000    0.852936
     20          1           0       -6.778778   -1.678395   -0.336877
     21          6           0        0.545145   -1.762877    0.564062
     22          6           0        1.052523   -1.737004   -0.739171
     23          6           0        2.226247   -1.035475   -1.030339
     24          6           0        2.869828   -0.367958    0.010581
     25          6           0        2.389295   -0.374964    1.319141
     26          6           0        1.213971   -1.082973    1.587256
     27          1           0       -0.367252   -2.310359    0.781295
     28          1           0        0.535212   -2.264112   -1.535784
     29          1           0        2.641082   -0.998879   -2.030334
     30          1           0        2.927183    0.160121    2.092302
     31          1           0        0.822245   -1.101330    2.600300
     32          7           0        4.113243    0.378150   -0.285463
     33          8           0        4.661490    0.958097    0.649270
     34          8           0        4.516040    0.368875   -1.446628
 ---------------------------------------------------------------------

 SCF Done:  E(RHF) =  -669.534214325     A.U. after   15 cycles
 E2 =    -0.2094414589D+01 EUMP2 =    -0.67162862891473D+03

 The electronic state is 1-A.
 Alpha  occ. eigenvalues --  -20.60787 -20.60782 -15.85843 -11.31242 -11.27822
 Alpha  occ. eigenvalues --  -11.27803 -11.27540 -11.26821 -11.26799 -11.22203
 Alpha  occ. eigenvalues --  -11.21931 -11.21864 -11.21835 -11.21561 -11.20977
 Alpha  occ. eigenvalues --   -1.59862  -1.39415  -1.19424  -1.08908  -1.08788
 Alpha  occ. eigenvalues --   -1.04835  -1.03897  -0.96331  -0.95633  -0.87348
 Alpha  occ. eigenvalues --   -0.86221  -0.82467  -0.79986  -0.78728  -0.77509
 Alpha  occ. eigenvalues --   -0.72061  -0.71182  -0.70521  -0.65535  -0.65070
 Alpha  occ. eigenvalues --   -0.64826  -0.62172  -0.61322  -0.59723  -0.57993
 Alpha  occ. eigenvalues --   -0.55688  -0.55309  -0.53561  -0.52996  -0.52916
 Alpha  occ. eigenvalues --   -0.52399  -0.50266  -0.48823  -0.48814  -0.48196
 Alpha  occ. eigenvalues --   -0.47035  -0.46202  -0.46199  -0.44813  -0.44178
 Alpha  occ. eigenvalues --   -0.37333  -0.36362
 Alpha virt. eigenvalues --    0.04994   0.11152   0.16401   0.20682   0.22677
 Alpha virt. eigenvalues --    0.24059   0.25563   0.26480   0.27291   0.27749
 Alpha virt. eigenvalues --    0.29268   0.30890   0.31197   0.31546   0.31820

 Mulliken charges:
               1
     1  C   -0.296684
     2  C   -0.299747
     3  C   -0.482445
     4  H    0.141217
     5  H    0.147588
     6  H    0.150430
     7  H    0.152986
     8  H    0.154358
     9  H    0.162165
    10  H    0.160997
    11  C   -0.298271
    12  C   -0.298966
    13  C   -0.475721
    14  H    0.150101
    15  H    0.152202
    16  H    0.146448
    17  H    0.150899
    18  H    0.157145
    19  H    0.156065
    20  H    0.160487
    21  C   -0.164636
    22  C   -0.217256
    23  C   -0.170931
    24  C    0.162558
    25  C   -0.169572
    26  C   -0.224955
    27  H    0.226443
    28  H    0.223979
    29  H    0.275889
    30  H    0.276082
    31  H    0.223727
    32  N    0.488022
    33  O   -0.460235
    34  O   -0.460367
 Sum of Mulliken charges =  -0.00000

 Dipole moment (field-independent basis, Debye):
    X=             -4.3090    Y=             -2.6469    Z=              1.0235  Tot=              5.1596
 Quadrupole moment (field-independent basis, Debye-Ang):
   XX=           -121.7002   YY=            -93.2004   ZZ=            -89.1587
   XY=             -6.1300   XZ=              3.5441   YZ=              0.8738

 Normal termination of Gaussian 16 at Wed May  5 20:25:30 2021.
