 Gaussian 16, Revision A.03,
 Gaussian 16:  EM64L-G16RevA.03 25-Dec-2016

 -------------
 #p 6-31g* mp2
 -------------

 ------------------------------------------------------
 Input file generated by CHIRIPA (05-May-2021 14:57:26)
 ------------------------------------------------------
 Symbolic Z-matrix:
 Charge =  0 Multiplicity = 1

                         Standard orientation:
 ---------------------------------------------------------------------
 Center     Atomic      Atomic             Coordinates (Angstroms)
 Number     Number       Type             X           Y           Z
 ---------------------------------------------------------------------
      1          6           0        6.290129   -0.738791    0.423670
      2          6           0        5.347009   -1.457197   -0.318581
      3          6           0        4.085981   -0.913415   -0.580606
      4          6           0        3.800376    0.357021   -0.082899
      5          6           0        4.718706    1.097571    0.659762
      6          6           0        5.973526    0.534056    0.909616
      7          1           0        7.267315   -1.168878    0.622490
      8          1           0        5.590128   -2.445917   -0.697226
      9          1           0        3.337033   -1.447713   -1.152463
     10          1           0        4.447278    2.080966    1.024012
     11          1           0        6.703993    1.094273    1.486348
     12          7           0        2.468668    0.943144   -0.353850
     13          8           0        2.241597    2.064265    0.095776
     14          8           0        1.677162    0.270328   -1.010717
     15          6           0       -1.722358   -1.260397   -0.257511
     16          6           0       -2.396186   -1.402444    0.959985
     17          6           0       -3.669556   -0.852529    1.135111
     18          6           0       -4.241971   -0.163748    0.066836
     19          6           0       -3.596011   -0.005257   -1.158279
     20          6           0       -2.323362   -0.563486   -1.310902
     21          1           0       -0.733454   -1.690813   -0.384813
     22          1           0       -1.931879   -1.943160    1.779797
     23          1           0       -4.213615   -0.947528    2.066987
     24          1           0       -4.084565    0.539181   -1.957228
     25          1           0       -1.802407   -0.451601   -2.257544
     26          7           0       -5.589650    0.422823    0.240321
     27          8           0       -6.072242    1.025060   -0.716264
     28          8           0       -6.137849    0.269234    1.329597
 ---------------------------------------------------------------------

 SCF Done:  E(RHF) =  -868.339263978     A.U. after   16 cycles
 E2 =    -0.2598577741D+01 EUMP2 =    -0.87093784171962D+03

 The electronic state is 1-A.
 Alpha  occ. eigenvalues --  -20.61722 -20.61646 -20.59965 -20.59957 -15.86727
 Alpha  occ. eigenvalues --  -15.85012 -11.31927 -11.30181 -11.28510 -11.28439
 Alpha  occ. eigenvalues --  -11.28160 -11.27456 -11.27415 -11.26783 -11.26706
 Alpha  occ. eigenvalues --  -11.26346 -11.25738 -11.25592  -1.60745  -1.59044
 Alpha  occ. eigenvalues --   -1.40310  -1.38603  -1.20078  -1.18327  -1.09497
 Alpha  occ. eigenvalues --   -1.07733  -1.05457  -1.03713  -0.96364  -0.94607
 Alpha  occ. eigenvalues --   -0.86861  -0.85106  -0.83207  -0.81460  -0.78278
 Alpha  occ. eigenvalues --   -0.76554  -0.72963  -0.72059  -0.71236  -0.71179
 Alpha  occ. eigenvalues --   -0.70364  -0.69382  -0.65733  -0.65451  -0.63975
 Alpha  occ. eigenvalues --   -0.63708  -0.62810  -0.61080  -0.55948  -0.54148
 Alpha  occ. eigenvalues --   -0.53790  -0.53544  -0.52034  -0.51803  -0.49716
 Alpha  occ. eigenvalues --   -0.49671  -0.48001  -0.47975  -0.45746  -0.44054
 Alpha  occ. eigenvalues --   -0.38040  -0.37053  -0.36233  -0.35316
 Alpha virt. eigenvalues --    0.04228   0.05996   0.10603   0.12353   0.15747
 Alpha virt. eigenvalues --    0.17561   0.20716   0.22474   0.26626   0.27452
 Alpha virt. eigenvalues --    0.28326   0.29244   0.30483   0.31540   0.32721

 Mulliken charges:
               1
     1  C   -0.170147
     2  C   -0.218230
     3  C   -0.171622
     4  C    0.158216
     5  C   -0.170443
     6  C   -0.218308
     7  H    0.227998
     8  H    0.224674
     9  H    0.271107
    10  H    0.277532
    11  H    0.226061
    12  N    0.489984
    13  O   -0.453617
    14  O   -0.471515
    15  C   -0.163384
    16  C   -0.220199
    17  C   -0.171759
    18  C    0.157538
    19  C   -0.172104
    20  C   -0.214232
    21  H    0.229830
    22  H    0.218084
    23  H    0.271771
    24  H    0.273117
    25  H    0.227403
    26  N    0.488341
    27  O   -0.462408
    28  O   -0.463688
 Sum of Mulliken charges =  -0.00000

 Dipole moment (field-independent basis, Debye):
    X=              9.9692    Y=             -4.0307    Z=              0.3006  Tot=             10.7574
 Quadrupole moment (field-independent basis, Debye-Ang):
   XX=           -110.5713   YY=           -102.4994   ZZ=           -100.2009
   XY=              3.0399   XZ=              7.4190   YZ=              1.1728

 Normal termination of Gaussian 16 at Thu May  6 01:59:50 2021.
