 Gaussian 16, Revision A.03,
 Gaussian 16:  EM64L-G16RevA.03 25-Dec-2016

 -------------
 #p 6-31g* mp2
 -------------

 ------------------------------------------------------
 Input file generated by CHIRIPA (05-May-2021 14:51:11)
 ------------------------------------------------------
 Symbolic Z-matrix:
 Charge =  0 Multiplicity = 1

                         Standard orientation:
 ---------------------------------------------------------------------
 Center     Atomic      Atomic             Coordinates (Angstroms)
 Number     Number       Type             X           Y           Z
 ---------------------------------------------------------------------
      1          6           0        2.304009    0.739138    0.097660
      2          6           0        2.562742    2.149859   -0.432347
      3          6           0        2.231529    3.236016    0.591545
      4          1           0        1.250276    0.654160    0.396609
      5          1           0        2.900555    0.581421    1.006865
      6          1           0        1.966940    2.304381   -1.341060
      7          1           0        3.615936    2.231429   -0.730248
      8          1           0        2.835535    3.109970    1.495918
      9          1           0        1.177170    3.183336    0.881636
     10          1           0        2.423844    4.236578    0.191858
     11          6           0        2.630391   -0.357598   -0.914453
     12          6           0        2.371658   -1.768320   -0.384446
     13          6           0        2.702870   -2.854477   -1.408339
     14          1           0        2.033845   -0.199882   -1.823658
     15          1           0        3.684123   -0.272621   -1.213403
     16          1           0        1.318464   -1.849890   -0.086545
     17          1           0        2.967460   -1.922842    0.524266
     18          1           0        3.757230   -2.801797   -1.698429
     19          1           0        2.098865   -2.728430   -2.312712
     20          1           0        2.510555   -3.855039   -1.008652
     21          6           0       -2.125912   -0.014711    1.068667
     22          6           0       -1.475739   -1.216705    1.754575
     23          6           0       -0.797068   -0.848522    3.074287
     24          1           0       -1.361889    0.753739    0.887835
     25          1           0       -2.863751    0.432186    1.749309
     26          1           0       -0.740335   -1.662036    1.072315
     27          1           0       -2.241361   -1.982461    1.933622
     28          1           0       -1.522932   -0.424294    3.775538
     29          1           0       -0.013378   -0.102048    2.909337
     30          1           0       -0.338886   -1.722524    3.547626
     31          6           0       -2.808488   -0.366829   -0.251874
     32          6           0       -3.458660    0.835166   -0.937781
     33          6           0       -4.137332    0.466983   -2.257494
     34          1           0       -2.070649   -0.813725   -0.932515
     35          1           0       -3.572510   -1.135279   -0.071041
     36          1           0       -2.693039    1.600922   -1.116829
     37          1           0       -4.194065    1.280496   -0.255522
     38          1           0       -4.921021   -0.279491   -2.092543
     39          1           0       -3.411468    0.042755   -2.958745
     40          1           0       -4.595514    1.340985   -2.730833
 ---------------------------------------------------------------------

 SCF Done:  E(RHF) =  -470.733146483     A.U. after   11 cycles
 E2 =    -0.1584354782D+01 EUMP2 =    -0.47231750126526D+03

 The electronic state is 1-A.
 Alpha  occ. eigenvalues --  -11.21662 -11.21648 -11.21640 -11.21606 -11.21471
 Alpha  occ. eigenvalues --  -11.21458 -11.21411 -11.21398 -11.21124 -11.21110
 Alpha  occ. eigenvalues --  -11.21109 -11.21041  -1.08521  -1.08449  -1.03589
 Alpha  occ. eigenvalues --   -1.03552  -0.96032  -0.96002  -0.87050  -0.87017
 Alpha  occ. eigenvalues --   -0.79711  -0.79565  -0.78318  -0.78289  -0.65390
 Alpha  occ. eigenvalues --   -0.64870  -0.61056  -0.60895  -0.59436  -0.59337
 Alpha  occ. eigenvalues --   -0.57661  -0.57594  -0.55338  -0.55274  -0.52723
 Alpha  occ. eigenvalues --   -0.52690  -0.52459  -0.52427  -0.49998  -0.49945
 Alpha  occ. eigenvalues --   -0.48067  -0.47930  -0.46934  -0.46460  -0.46143
 Alpha  occ. eigenvalues --   -0.45798  -0.45636  -0.45412  -0.43840  -0.43812
 Alpha virt. eigenvalues --    0.19106   0.23044   0.23751   0.23861   0.25669
 Alpha virt. eigenvalues --    0.26780   0.26945   0.27923   0.28167   0.30007
 Alpha virt. eigenvalues --    0.30350   0.31480   0.31630   0.31812   0.32189

 Mulliken charges:
               1
     1  C   -0.306166
     2  C   -0.299414
     3  C   -0.476285
     4  H    0.156321
     5  H    0.150125
     6  H    0.151723
     7  H    0.152434
     8  H    0.155536
     9  H    0.154986
    10  H    0.160700
    11  C   -0.297491
    12  C   -0.308535
    13  C   -0.475105
    14  H    0.148995
    15  H    0.150165
    16  H    0.159587
    17  H    0.152438
    18  H    0.155403
    19  H    0.154937
    20  H    0.160505
    21  C   -0.301900
    22  C   -0.307571
    23  C   -0.477213
    24  H    0.151406
    25  H    0.150233
    26  H    0.158986
    27  H    0.152388
    28  H    0.154949
    29  H    0.157593
    30  H    0.160322
    31  C   -0.298213
    32  C   -0.299661
    33  C   -0.475713
    34  H    0.148639
    35  H    0.150176
    36  H    0.151588
    37  H    0.152260
    38  H    0.155370
    39  H    0.155053
    40  H    0.160446
 Sum of Mulliken charges =  -0.00000

 Dipole moment (field-independent basis, Debye):
    X=              0.0141    Y=             -0.0035    Z=              0.0064  Tot=              0.0158
 Quadrupole moment (field-independent basis, Debye-Ang):
   XX=            -83.2950   YY=            -85.5411   ZZ=            -85.7565
   XY=              0.2479   XZ=             -0.4740   YZ=             -0.7851

 Normal termination of Gaussian 16 at Thu May  6 07:01:27 2021.
