 Gaussian 16, Revision A.03,
 Gaussian 16:  EM64L-G16RevA.03 25-Dec-2016

 -------------
 #p 6-31g* mp2
 -------------

 ------------------------------------------------------
 Input file generated by CHIRIPA (05-May-2021 14:57:23)
 ------------------------------------------------------
 Symbolic Z-matrix:
 Charge =  0 Multiplicity = 1

                         Standard orientation:
 ---------------------------------------------------------------------
 Center     Atomic      Atomic             Coordinates (Angstroms)
 Number     Number       Type             X           Y           Z
 ---------------------------------------------------------------------
      1          6           0       -4.537285    1.568171   -0.606203
      2          6           0       -5.011012    0.328583   -0.164020
      3          6           0       -4.120403   -0.708682    0.128290
      4          6           0       -2.756416   -0.470647   -0.033478
      5          6           0       -2.253580    0.753271   -0.472192
      6          6           0       -3.162505    1.776192   -0.758609
      7          1           0       -5.236246    2.368373   -0.830988
      8          1           0       -6.078153    0.164185   -0.044741
      9          1           0       -4.459924   -1.678136    0.472242
     10          1           0       -1.184205    0.887156   -0.581424
     11          1           0       -2.791750    2.737845   -1.101844
     12          7           0       -1.803873   -1.561161    0.272858
     13          8           0       -0.606923   -1.326127    0.122176
     14          8           0       -2.272257   -2.630290    0.657847
     15          6           0        2.155904    2.523271    0.983249
     16          6           0        1.885291    1.352118    1.698576
     17          6           0        2.300249    0.109737    1.209858
     18          6           0        2.986640    0.075102   -0.002973
     19          6           0        3.271323    1.224293   -0.738910
     20          6           0        2.846838    2.455740   -0.231070
     21          1           0        1.829854    3.484136    1.370324
     22          1           0        1.348889    1.401545    2.641907
     23          1           0        2.104043   -0.812508    1.743134
     24          1           0        3.807989    1.143206   -1.676371
     25          1           0        3.058392    3.363638   -0.788752
     26          7           0        3.430979   -1.234364   -0.530479
     27          8           0        4.034042   -1.238015   -1.601431
     28          8           0        3.167777   -2.232276    0.137003
 ---------------------------------------------------------------------

 SCF Done:  E(RHF) =  -868.337427914     A.U. after   16 cycles
 E2 =    -0.2600810717D+01 EUMP2 =    -0.87093823863083D+03

 The electronic state is 1-A.
 Alpha  occ. eigenvalues --  -20.60944 -20.60918 -20.59909 -20.59828 -15.85986
 Alpha  occ. eigenvalues --  -15.84933 -11.31395 -11.30478 -11.27967 -11.27963
 Alpha  occ. eigenvalues --  -11.27735 -11.27206 -11.27053 -11.27036 -11.27016
 Alpha  occ. eigenvalues --  -11.26985 -11.26284 -11.26181  -1.60004  -1.58935
 Alpha  occ. eigenvalues --   -1.39559  -1.38482  -1.19578  -1.18736  -1.08965
 Alpha  occ. eigenvalues --   -1.08115  -1.04987  -1.04171  -0.95790  -0.94899
 Alpha  occ. eigenvalues --   -0.86382  -0.85565  -0.82624  -0.81731  -0.77664
 Alpha  occ. eigenvalues --   -0.76708  -0.72219  -0.71338  -0.71163  -0.70682
 Alpha  occ. eigenvalues --   -0.70235  -0.69877  -0.65232  -0.64990  -0.64398
 Alpha  occ. eigenvalues --   -0.64198  -0.62329  -0.61497  -0.55487  -0.54743
 Alpha  occ. eigenvalues --   -0.53319  -0.53088  -0.52493  -0.52273  -0.48951
 Alpha  occ. eigenvalues --   -0.48943  -0.47946  -0.47884  -0.44959  -0.43845
 Alpha  occ. eigenvalues --   -0.37569  -0.36792  -0.36591  -0.35741
 Alpha virt. eigenvalues --    0.04829   0.05877   0.11047   0.11891   0.16335
 Alpha virt. eigenvalues --    0.17249   0.21171   0.21887   0.27056   0.27795
 Alpha virt. eigenvalues --    0.28045   0.28837   0.30670   0.31384   0.32200

 Mulliken charges:
               1
     1  C   -0.170813
     2  C   -0.218685
     3  C   -0.170735
     4  C    0.157549
     5  C   -0.173282
     6  C   -0.219253
     7  H    0.225599
     8  H    0.224148
     9  H    0.276637
    10  H    0.277510
    11  H    0.221712
    12  N    0.489776
    13  O   -0.463259
    14  O   -0.457091
    15  C   -0.176072
    16  C   -0.224678
    17  C   -0.151248
    18  C    0.157998
    19  C   -0.172522
    20  C   -0.222644
    21  H    0.220378
    22  H    0.221333
    23  H    0.284069
    24  H    0.273713
    25  H    0.218780
    26  N    0.489149
    27  O   -0.466630
    28  O   -0.451439
 Sum of Mulliken charges =  -0.00000

 Dipole moment (field-independent basis, Debye):
    X=             -5.0458    Y=              8.0410    Z=              0.8735  Tot=              9.5332
 Quadrupole moment (field-independent basis, Debye-Ang):
   XX=            -93.1655   YY=           -106.2964   ZZ=           -102.4823
   XY=              7.5998   XZ=              6.1340   YZ=             -2.6899

 Normal termination of Gaussian 16 at Wed May  5 17:50:04 2021.
