 Gaussian 16, Revision A.03,
 Gaussian 16:  EM64L-G16RevA.03 25-Dec-2016

 -------------
 #p 6-31g* mp2
 -------------

 ------------------------------------------------------
 Input file generated by CHIRIPA (05-May-2021 14:57:22)
 ------------------------------------------------------
 Symbolic Z-matrix:
 Charge =  0 Multiplicity = 1

                         Standard orientation:
 ---------------------------------------------------------------------
 Center     Atomic      Atomic             Coordinates (Angstroms)
 Number     Number       Type             X           Y           Z
 ---------------------------------------------------------------------
      1          6           0        3.264973    1.447870    2.044856
      2          6           0        3.261568    2.039414    0.777345
      3          6           0        3.027682    1.268574   -0.365306
      4          6           0        2.799811   -0.097089   -0.203036
      5          6           0        2.796873   -0.715677    1.046216
      6          6           0        3.033024    0.074634    2.175017
      7          1           0        3.447542    2.054240    2.927115
      8          1           0        3.441405    3.105654    0.673246
      9          1           0        3.019459    1.700747   -1.358571
     10          1           0        2.614458   -1.781020    1.118228
     11          1           0        3.035083   -0.387470    3.158125
     12          7           0        2.551008   -0.923449   -1.405377
     13          8           0        2.352908   -2.124520   -1.235604
     14          8           0        2.558806   -0.354432   -2.494779
     15          6           0       -2.378395   -2.375865    0.836526
     16          6           0       -3.447663   -1.644099    1.363503
     17          6           0       -3.713208   -0.348508    0.910206
     18          6           0       -2.885523    0.186804   -0.075526
     19          6           0       -1.812613   -0.517079   -0.620229
     20          6           0       -1.565715   -1.811016   -0.151916
     21          1           0       -2.179356   -3.381669    1.194490
     22          1           0       -4.080465   -2.080228    2.131225
     23          1           0       -4.534318    0.240232    1.300825
     24          1           0       -1.199338   -0.055560   -1.384634
     25          1           0       -0.734607   -2.376985   -0.562992
     26          7           0       -3.156772    1.557512   -0.563360
     27          8           0       -2.412776    2.006527   -1.432550
     28          8           0       -4.108239    2.156904   -0.067297
 ---------------------------------------------------------------------

 SCF Done:  E(RHF) =  -868.339769432     A.U. after   16 cycles
 E2 =    -0.2599310107D+01 EUMP2 =    -0.87093907953924D+03

 The electronic state is 1-A.
 Alpha  occ. eigenvalues --  -20.61515 -20.61446 -20.60566 -20.60556 -15.86494
 Alpha  occ. eigenvalues --  -15.85611 -11.31578 -11.30891 -11.28163 -11.28066
 Alpha  occ. eigenvalues --  -11.27794 -11.27472 -11.27365 -11.27150 -11.27090
 Alpha  occ. eigenvalues --  -11.27012 -11.26493 -11.26274  -1.60549  -1.59643
 Alpha  occ. eigenvalues --   -1.40107  -1.39197  -1.19724  -1.19042  -1.09172
 Alpha  occ. eigenvalues --   -1.08456  -1.05079  -1.04412  -0.96051  -0.95309
 Alpha  occ. eigenvalues --   -0.86494  -0.85813  -0.82889  -0.82128  -0.77975
 Alpha  occ. eigenvalues --   -0.77185  -0.72711  -0.71874  -0.71827  -0.70966
 Alpha  occ. eigenvalues --   -0.70826  -0.70154  -0.65378  -0.65078  -0.64684
 Alpha  occ. eigenvalues --   -0.64376  -0.62433  -0.61734  -0.55588  -0.54929
 Alpha  occ. eigenvalues --   -0.53427  -0.53168  -0.52774  -0.52472  -0.49493
 Alpha  occ. eigenvalues --   -0.49445  -0.48591  -0.48581  -0.45551  -0.44622
 Alpha  occ. eigenvalues --   -0.37691  -0.37041  -0.36664  -0.36012
 Alpha virt. eigenvalues --    0.04498   0.05310   0.10963   0.11644   0.16033
 Alpha virt. eigenvalues --    0.16829   0.21078   0.21868   0.26981   0.27412
 Alpha virt. eigenvalues --    0.28288   0.28593   0.30694   0.31448   0.32158

 Mulliken charges:
               1
     1  C   -0.169419
     2  C   -0.217465
     3  C   -0.168954
     4  C    0.155730
     5  C   -0.170849
     6  C   -0.218036
     7  H    0.227801
     8  H    0.227364
     9  H    0.278925
    10  H    0.271536
    11  H    0.223489
    12  N    0.486091
    13  O   -0.468256
    14  O   -0.454313
    15  C   -0.172831
    16  C   -0.218805
    17  C   -0.172685
    18  C    0.158239
    19  C   -0.174946
    20  C   -0.227556
    21  H    0.224958
    22  H    0.221296
    23  H    0.273661
    24  H    0.278988
    25  H    0.240989
    26  N    0.487811
    27  O   -0.460239
    28  O   -0.462522
 Sum of Mulliken charges =  -0.00000

 Dipole moment (field-independent basis, Debye):
    X=              2.0951    Y=             -1.7726    Z=              5.9110  Tot=              6.5170
 Quadrupole moment (field-independent basis, Debye-Ang):
   XX=           -103.6497   YY=           -104.5991   ZZ=           -103.8560
   XY=             23.1592   XZ=              3.8326   YZ=             -2.6422

 Normal termination of Gaussian 16 at Thu May  6 21:07:09 2021.
