 Gaussian 16, Revision A.03,
 Gaussian 16:  EM64L-G16RevA.03 25-Dec-2016

 -------------
 #p 6-31g* mp2
 -------------

 ------------------------------------------------------
 Input file generated by CHIRIPA (05-May-2021 14:53:18)
 ------------------------------------------------------
 Symbolic Z-matrix:
 Charge =  0 Multiplicity = 1

                         Standard orientation:
 ---------------------------------------------------------------------
 Center     Atomic      Atomic             Coordinates (Angstroms)
 Number     Number       Type             X           Y           Z
 ---------------------------------------------------------------------
      1          6           0        3.540073   -0.076528   -0.375754
      2          6           0        3.308133   -1.469901    0.209653
      3          6           0        4.587174   -2.305345    0.271960
      4          1           0        3.964598   -0.175459   -1.384187
      5          1           0        4.292281    0.447515    0.230015
      6          1           0        2.555572   -1.990649   -0.396227
      7          1           0        2.883933   -1.367643    1.216734
      8          1           0        5.340737   -1.810378    0.893049
      9          1           0        5.010511   -2.436923   -0.729076
     10          1           0        4.398467   -3.297543    0.693613
     11          6           0        2.270715    0.770658   -0.444569
     12          6           0        2.502655    2.164031   -1.029975
     13          6           0        1.223614    2.999474   -1.092283
     14          1           0        1.518508    0.246614   -1.050338
     15          1           0        1.846191    0.869589    0.563864
     16          1           0        2.926856    2.061773   -2.037057
     17          1           0        3.255216    2.684778   -0.424096
     18          1           0        0.800277    3.131053   -0.091246
     19          1           0        0.470051    2.504507   -1.713372
     20          1           0        1.412321    3.991673   -1.513935
     21          6           0       -0.881887    0.686841    2.197079
     22          6           0       -0.479667   -0.491718    1.560102
     23          6           0       -1.240909   -1.031568    0.519131
     24          6           0       -2.404021   -0.363758    0.139012
     25          6           0       -2.831096    0.812074    0.754084
     26          6           0       -2.054251    1.333836    1.792749
     27          1           0       -0.284476    1.099184    3.004835
     28          1           0        0.430350   -0.996327    1.872009
     29          1           0       -0.952758   -1.942552    0.008744
     30          1           0       -3.743063    1.292490    0.421014
     31          1           0       -2.369057    2.249268    2.285624
     32          7           0       -3.218173   -0.925699   -0.961797
     33          8           0       -4.238810   -0.318275   -1.277986
     34          8           0       -2.820253   -1.962931   -1.487579
 ---------------------------------------------------------------------

 SCF Done:  E(RHF) =  -669.534364577     A.U. after   15 cycles
 E2 =    -0.2094248294D+01 EUMP2 =    -0.67162861287126D+03

 The electronic state is 1-A.
 Alpha  occ. eigenvalues --  -20.60769 -20.60764 -15.85820 -11.31186 -11.27718
 Alpha  occ. eigenvalues --  -11.27697 -11.27462 -11.26778 -11.26709 -11.22418
 Alpha  occ. eigenvalues --  -11.21943 -11.21921 -11.21746 -11.21659 -11.21342
 Alpha  occ. eigenvalues --   -1.59844  -1.39398  -1.19342  -1.08970  -1.08734
 Alpha  occ. eigenvalues --   -1.04738  -1.04033  -0.96445  -0.95582  -0.87466
 Alpha  occ. eigenvalues --   -0.86151  -0.82414  -0.80137  -0.78793  -0.77434
 Alpha  occ. eigenvalues --   -0.72039  -0.71166  -0.70455  -0.65645  -0.64991
 Alpha  occ. eigenvalues --   -0.64710  -0.62094  -0.61434  -0.59830  -0.58074
 Alpha  occ. eigenvalues --   -0.55724  -0.55254  -0.53260  -0.53122  -0.52827
 Alpha  occ. eigenvalues --   -0.52786  -0.50394  -0.48804  -0.48794  -0.48423
 Alpha  occ. eigenvalues --   -0.47181  -0.46266  -0.46213  -0.44803  -0.44274
 Alpha  occ. eigenvalues --   -0.37273  -0.36245
 Alpha virt. eigenvalues --    0.05029   0.11206   0.16472   0.19920   0.22880
 Alpha virt. eigenvalues --    0.23585   0.25128   0.25669   0.27471   0.28432
 Alpha virt. eigenvalues --    0.29409   0.29732   0.31126   0.31472   0.32067

 Mulliken charges:
               1
     1  C   -0.298136
     2  C   -0.302752
     3  C   -0.475334
     4  H    0.153383
     5  H    0.149355
     6  H    0.152547
     7  H    0.142154
     8  H    0.156230
     9  H    0.159239
    10  H    0.161009
    11  C   -0.299426
    12  C   -0.300214
    13  C   -0.475211
    14  H    0.152667
    15  H    0.145657
    16  H    0.154070
    17  H    0.150188
    18  H    0.151311
    19  H    0.158915
    20  H    0.160712
    21  C   -0.173461
    22  C   -0.215061
    23  C   -0.174282
    24  C    0.158716
    25  C   -0.171362
    26  C   -0.217432
    27  H    0.224994
    28  H    0.230141
    29  H    0.275438
    30  H    0.275474
    31  H    0.223470
    32  N    0.487946
    33  O   -0.460298
    34  O   -0.460647
 Sum of Mulliken charges =  -0.00000

 Dipole moment (field-independent basis, Debye):
    X=              2.9185    Y=              1.9696    Z=              3.7900  Tot=              5.1731
 Quadrupole moment (field-independent basis, Debye-Ang):
   XX=           -107.3192   YY=            -94.1423   ZZ=            -93.4364
   XY=             -8.2053   XZ=             -9.5144   YZ=             -0.2539

 Normal termination of Gaussian 16 at Thu May  6 14:00:01 2021.
