 Gaussian 16, Revision A.03,
 Gaussian 16:  EM64L-G16RevA.03 25-Dec-2016

 -------------
 #p 6-31g* mp2
 -------------

 ------------------------------------------------------
 Input file generated by CHIRIPA (05-May-2021 14:51:12)
 ------------------------------------------------------
 Symbolic Z-matrix:
 Charge =  0 Multiplicity = 1

                         Standard orientation:
 ---------------------------------------------------------------------
 Center     Atomic      Atomic             Coordinates (Angstroms)
 Number     Number       Type             X           Y           Z
 ---------------------------------------------------------------------
      1          6           0        2.471798   -1.325438    0.339184
      2          6           0        1.162457   -1.169723    1.113370
      3          6           0        0.638461   -2.497321    1.661735
      4          1           0        2.319063   -2.031103   -0.488858
      5          1           0        3.227768   -1.775163    0.997706
      6          1           0        0.409578   -0.719150    0.453996
      7          1           0        1.318275   -0.464199    1.939550
      8          1           0        1.368889   -2.948756    2.340913
      9          1           0        0.455028   -3.205155    0.846919
     10          1           0       -0.298235   -2.362845    2.211623
     11          6           0        3.008251   -0.006896   -0.215247
     12          6           0        4.317592   -0.162611   -0.989433
     13          6           0        4.841588    1.164988   -1.537798
     14          1           0        2.252281    0.442830   -0.873769
     15          1           0        3.160985    0.698770    0.612795
     16          1           0        4.161773   -0.868134   -1.815613
     17          1           0        5.070471   -0.613184   -0.330059
     18          1           0        5.025020    1.872821   -0.722982
     19          1           0        4.111160    1.616422   -2.216976
     20          1           0        5.778284    1.030512   -2.087686
     21          6           0       -3.437760    0.521658   -0.337130
     22          6           0       -3.579222   -0.883253   -0.923815
     23          6           0       -4.980677   -1.157333   -1.470256
     24          1           0       -4.177612    0.653690    0.464200
     25          1           0       -3.681216    1.261394   -1.112318
     26          1           0       -3.334230   -1.620090   -0.148144
     27          1           0       -2.838818   -1.012021   -1.723714
     28          1           0       -5.231381   -0.444682   -2.262644
     29          1           0       -5.729607   -1.056205   -0.678122
     30          1           0       -5.059548   -2.167184   -1.884793
     31          6           0       -2.042289    0.810675    0.213194
     32          6           0       -1.900827    2.215586    0.799878
     33          6           0       -0.499372    2.489666    1.346320
     34          1           0       -1.798833    0.070939    0.988380
     35          1           0       -1.302436    0.678644   -0.588137
     36          1           0       -2.641230    2.344355    1.599776
     37          1           0       -2.145819    2.952423    0.024207
     38          1           0        0.249559    2.388538    0.554185
     39          1           0       -0.248667    1.777016    2.138707
     40          1           0       -0.420501    3.499517    1.760857
 ---------------------------------------------------------------------

 SCF Done:  E(RHF) =  -470.732063599     A.U. after   11 cycles
 E2 =    -0.1584733604D+01 EUMP2 =    -0.47231679720349D+03

 The electronic state is 1-A.
 Alpha  occ. eigenvalues --  -11.21631 -11.21602 -11.21579 -11.21420 -11.21389
 Alpha  occ. eigenvalues --  -11.21360 -11.21355 -11.21277 -11.21092 -11.21059
 Alpha  occ. eigenvalues --  -11.21021 -11.21004  -1.08480  -1.08347  -1.03560
 Alpha  occ. eigenvalues --   -1.03449  -0.95992  -0.95928  -0.87003  -0.86949
 Alpha  occ. eigenvalues --   -0.79748  -0.79464  -0.78482  -0.77945  -0.65095
 Alpha  occ. eigenvalues --   -0.65001  -0.60950  -0.60875  -0.59460  -0.59207
 Alpha  occ. eigenvalues --   -0.57659  -0.57491  -0.55283  -0.55215  -0.52681
 Alpha  occ. eigenvalues --   -0.52627  -0.52431  -0.52359  -0.49936  -0.49864
 Alpha  occ. eigenvalues --   -0.48205  -0.47696  -0.46748  -0.46595  -0.46142
 Alpha  occ. eigenvalues --   -0.45771  -0.45614  -0.44989  -0.43795  -0.43718
 Alpha virt. eigenvalues --    0.21217   0.22792   0.23699   0.23843   0.24987
 Alpha virt. eigenvalues --    0.26004   0.26500   0.27999   0.29040   0.29771
 Alpha virt. eigenvalues --    0.30369   0.31036   0.31556   0.31827   0.32105

 Mulliken charges:
               1
     1  C   -0.297754
     2  C   -0.309318
     3  C   -0.476370
     4  H    0.148869
     5  H    0.148740
     6  H    0.164477
     7  H    0.152251
     8  H    0.154887
     9  H    0.155078
    10  H    0.158591
    11  C   -0.299134
    12  C   -0.299594
    13  C   -0.475665
    14  H    0.148570
    15  H    0.150759
    16  H    0.151750
    17  H    0.152090
    18  H    0.155353
    19  H    0.154736
    20  H    0.160198
    21  C   -0.297014
    22  C   -0.300076
    23  C   -0.475631
    24  H    0.149683
    25  H    0.149390
    26  H    0.152323
    27  H    0.151287
    28  H    0.155208
    29  H    0.155308
    30  H    0.160357
    31  C   -0.303703
    32  C   -0.299300
    33  C   -0.478789
    34  H    0.155068
    35  H    0.149480
    36  H    0.151688
    37  H    0.151597
    38  H    0.157561
    39  H    0.157686
    40  H    0.159360
 Sum of Mulliken charges =  -0.00000

 Dipole moment (field-independent basis, Debye):
    X=             -0.0330    Y=              0.0218    Z=              0.0008  Tot=              0.0396
 Quadrupole moment (field-independent basis, Debye-Ang):
   XX=            -85.6815   YY=            -85.6758   ZZ=            -83.6420
   XY=             -0.5385   XZ=             -0.0027   YZ=              0.1134

 Normal termination of Gaussian 16 at Thu May  6 05:31:50 2021.
