 Gaussian 16, Revision A.03,
 Gaussian 16:  EM64L-G16RevA.03 25-Dec-2016

 -------------
 #p 6-31g* mp2
 -------------

 ------------------------------------------------------
 Input file generated by CHIRIPA (05-May-2021 14:51:08)
 ------------------------------------------------------
 Symbolic Z-matrix:
 Charge =  0 Multiplicity = 1

                         Standard orientation:
 ---------------------------------------------------------------------
 Center     Atomic      Atomic             Coordinates (Angstroms)
 Number     Number       Type             X           Y           Z
 ---------------------------------------------------------------------
      1          6           0        4.253369   -0.744193   -0.016685
      2          6           0        5.749556   -1.015019    0.144749
      3          6           0        6.072053   -2.505579    0.254395
      4          1           0        3.714825   -1.175399    0.838287
      5          1           0        3.887843   -1.266192   -0.911840
      6          1           0        6.112438   -0.491536    1.038560
      7          1           0        6.284621   -0.582952   -0.710610
      8          1           0        5.737358   -3.039037   -0.641151
      9          1           0        5.564197   -2.947102    1.117957
     10          1           0        7.147006   -2.676377    0.369136
     11          6           0        3.915131    0.741410   -0.127621
     12          6           0        2.418944    1.012236   -0.289055
     13          6           0        2.096447    2.502796   -0.398701
     14          1           0        4.280657    1.263409    0.767534
     15          1           0        4.453676    1.172616   -0.982593
     16          1           0        1.883879    0.580169    0.566304
     17          1           0        2.056062    0.488753   -1.182866
     18          1           0        2.604303    2.944319   -1.262263
     19          1           0        2.431142    3.036254    0.496845
     20          1           0        1.021495    2.673594   -0.513442
     21          6           0       -3.596433    0.506327   -0.228691
     22          6           0       -3.095665    1.540720    0.779897
     23          6           0       -2.120573    2.543960    0.163053
     24          1           0       -2.736111   -0.029499   -0.652577
     25          1           0       -4.083935    1.026118   -1.065084
     26          1           0       -2.610475    1.019066    1.614812
     27          1           0       -3.957292    2.074014    1.201573
     28          1           0       -2.597472    3.090321   -0.657104
     29          1           0       -1.243002    2.029379   -0.241518
     30          1           0       -1.775188    3.274175    0.901535
     31          6           0       -4.572067   -0.503544    0.372997
     32          6           0       -5.072835   -1.537937   -0.635591
     33          6           0       -6.047927   -2.541177   -0.018747
     34          1           0       -4.084565   -1.023335    1.209389
     35          1           0       -5.432389    0.032283    0.796883
     36          1           0       -4.211208   -2.071231   -1.057268
     37          1           0       -5.558026   -1.016282   -1.470506
     38          1           0       -6.925499   -2.026596    0.385823
     39          1           0       -5.571028   -3.087538    0.801410
     40          1           0       -6.393312   -3.271392   -0.757229
 ---------------------------------------------------------------------

 SCF Done:  E(RHF) =  -470.733239796     A.U. after   11 cycles
 E2 =    -0.1582283018D+01 EUMP2 =    -0.47231552281421D+03

 The electronic state is 1-A.
 Alpha  occ. eigenvalues --  -11.21615 -11.21604 -11.21603 -11.21596 -11.21411
 Alpha  occ. eigenvalues --  -11.21403 -11.21351 -11.21343 -11.21084 -11.21074
 Alpha  occ. eigenvalues --  -11.21073 -11.20983  -1.08439  -1.08423  -1.03551
 Alpha  occ. eigenvalues --   -1.03506  -0.96022  -0.95933  -0.87057  -0.86933
 Alpha  occ. eigenvalues --   -0.79629  -0.79557  -0.78250  -0.78239  -0.65072
 Alpha  occ. eigenvalues --   -0.65052  -0.60973  -0.60907  -0.59375  -0.59330
 Alpha  occ. eigenvalues --   -0.57691  -0.57511  -0.55289  -0.55233  -0.52834
 Alpha  occ. eigenvalues --   -0.52602  -0.52467  -0.52246  -0.49916  -0.49890
 Alpha  occ. eigenvalues --   -0.47983  -0.47827  -0.46621  -0.46617  -0.45792
 Alpha  occ. eigenvalues --   -0.45778  -0.45714  -0.45707  -0.43834  -0.43708
 Alpha virt. eigenvalues --    0.21998   0.23030   0.23460   0.24865   0.26430
 Alpha virt. eigenvalues --    0.26661   0.26907   0.27525   0.27631   0.28923
 Alpha virt. eigenvalues --    0.30476   0.31412   0.31562   0.31716   0.32174

 Mulliken charges:
               1
     1  C   -0.298269
     2  C   -0.299655
     3  C   -0.475701
     4  H    0.149455
     5  H    0.149408
     6  H    0.151955
     7  H    0.151991
     8  H    0.155151
     9  H    0.155114
    10  H    0.160277
    11  C   -0.298071
    12  C   -0.299805
    13  C   -0.482673
    14  H    0.149619
    15  H    0.149794
    16  H    0.151456
    17  H    0.151297
    18  H    0.154848
    19  H    0.154902
    20  H    0.168112
    21  C   -0.298655
    22  C   -0.299430
    23  C   -0.480761
    24  H    0.150027
    25  H    0.149529
    26  H    0.151978
    27  H    0.151998
    28  H    0.155449
    29  H    0.159676
    30  H    0.160896
    31  C   -0.298301
    32  C   -0.299679
    33  C   -0.475711
    34  H    0.149543
    35  H    0.149658
    36  H    0.152012
    37  H    0.151925
    38  H    0.155175
    39  H    0.155195
    40  H    0.160271
 Sum of Mulliken charges =  -0.00000

 Dipole moment (field-independent basis, Debye):
    X=             -0.0222    Y=              0.0097    Z=             -0.0002  Tot=              0.0242
 Quadrupole moment (field-independent basis, Debye-Ang):
   XX=            -84.8716   YY=            -86.1147   ZZ=            -83.7819
   XY=             -0.6867   XZ=              0.2713   YZ=              0.2404

 Normal termination of Gaussian 16 at Thu May  6 03:42:08 2021.
