 Gaussian 16, Revision A.03,
 Gaussian 16:  EM64L-G16RevA.03 25-Dec-2016

 -------------
 #p 6-31g* mp2
 -------------

 ------------------------------------------------------
 Input file generated by CHIRIPA (05-May-2021 14:51:12)
 ------------------------------------------------------
 Symbolic Z-matrix:
 Charge =  0 Multiplicity = 1

                         Standard orientation:
 ---------------------------------------------------------------------
 Center     Atomic      Atomic             Coordinates (Angstroms)
 Number     Number       Type             X           Y           Z
 ---------------------------------------------------------------------
      1          6           0        2.858994    1.001731    0.221928
      2          6           0        2.506909    2.264333   -0.565383
      3          6           0        2.066689    3.418967    0.335073
      4          1           0        1.988252    0.693388    0.816637
      5          1           0        3.659351    1.235536    0.937581
      6          1           0        1.708410    2.027881   -1.280300
      7          1           0        3.378528    2.569596   -1.158434
      8          1           0        2.862218    3.683228    1.039275
      9          1           0        1.182611    3.138435    0.916716
     10          1           0        1.819779    4.311444   -0.248349
     11          6           0        3.300932   -0.161377   -0.664412
     12          6           0        3.653017   -1.423978    0.122899
     13          6           0        4.093236   -2.578612   -0.777556
     14          1           0        2.500575   -0.395182   -1.380065
     15          1           0        4.171673    0.146966   -1.259121
     16          1           0        2.781397   -1.729242    0.715951
     17          1           0        4.451515   -1.187526    0.837817
     18          1           0        4.977314   -2.298080   -1.359200
     19          1           0        3.297707   -2.842873   -1.481758
     20          1           0        4.340146   -3.471089   -0.194135
     21          6           0       -2.481779   -0.894575    0.244785
     22          6           0       -1.346762   -0.395303    1.139463
     23          6           0       -0.157185   -1.355170    1.176286
     24          1           0       -2.814327   -1.879399    0.600424
     25          1           0       -2.097875   -1.043419   -0.773969
     26          1           0       -1.733025   -0.246125    2.155910
     27          1           0       -1.017006    0.588532    0.781769
     28          1           0        0.255226   -1.496238    0.171987
     29          1           0       -0.464862   -2.335638    1.553935
     30          1           0        0.642590   -0.978737    1.821669
     31          6           0       -3.678147    0.054221    0.197698
     32          6           0       -4.813163   -0.445052   -0.696980
     33          6           0       -6.002740    0.514816   -0.733802
     34          1           0       -4.062050    0.203064    1.216452
     35          1           0       -3.345598    1.039044   -0.157940
     36          1           0       -5.142919   -1.428886   -0.339284
     37          1           0       -4.426900   -0.594229   -1.713426
     38          1           0       -5.695063    1.495284   -1.111452
     39          1           0       -6.415150    0.655884    0.270497
     40          1           0       -6.802516    0.138383   -1.379184
 ---------------------------------------------------------------------

 SCF Done:  E(RHF) =  -470.732080775     A.U. after   11 cycles
 E2 =    -0.1584412774D+01 EUMP2 =    -0.47231649354888D+03

 The electronic state is 1-A.
 Alpha  occ. eigenvalues --  -11.21721 -11.21648 -11.21574 -11.21483 -11.21448
 Alpha  occ. eigenvalues --  -11.21417 -11.21327 -11.21255 -11.21178 -11.21105
 Alpha  occ. eigenvalues --  -11.21066 -11.20998  -1.08521  -1.08359  -1.03620
 Alpha  occ. eigenvalues --   -1.03469  -0.96088  -0.95914  -0.87104  -0.86939
 Alpha  occ. eigenvalues --   -0.79716  -0.79516  -0.78320  -0.78181  -0.65305
 Alpha  occ. eigenvalues --   -0.64908  -0.61001  -0.60879  -0.59465  -0.59282
 Alpha  occ. eigenvalues --   -0.57730  -0.57497  -0.55442  -0.55122  -0.52850
 Alpha  occ. eigenvalues --   -0.52577  -0.52523  -0.52329  -0.50037  -0.49846
 Alpha  occ. eigenvalues --   -0.48006  -0.47852  -0.46746  -0.46535  -0.45882
 Alpha  occ. eigenvalues --   -0.45780  -0.45688  -0.45594  -0.43786  -0.43692
 Alpha virt. eigenvalues --    0.20159   0.23002   0.23375   0.24611   0.26126
 Alpha virt. eigenvalues --    0.26298   0.27134   0.27428   0.28143   0.29905
 Alpha virt. eigenvalues --    0.30091   0.30940   0.31771   0.32102   0.32427

 Mulliken charges:
               1
     1  C   -0.306538
     2  C   -0.298909
     3  C   -0.476430
     4  H    0.159609
     5  H    0.148847
     6  H    0.150842
     7  H    0.151856
     8  H    0.155352
     9  H    0.155202
    10  H    0.160095
    11  C   -0.297663
    12  C   -0.307366
    13  C   -0.475230
    14  H    0.148025
    15  H    0.149518
    16  H    0.161883
    17  H    0.150906
    18  H    0.154724
    19  H    0.154329
    20  H    0.159988
    21  C   -0.298546
    22  C   -0.302761
    23  C   -0.481398
    24  H    0.150158
    25  H    0.149555
    26  H    0.152703
    27  H    0.152996
    28  H    0.157796
    29  H    0.156641
    30  H    0.163088
    31  C   -0.298440
    32  C   -0.299714
    33  C   -0.475766
    34  H    0.149766
    35  H    0.149827
    36  H    0.152049
    37  H    0.151988
    38  H    0.155313
    39  H    0.155282
    40  H    0.160424
 Sum of Mulliken charges =  -0.00000

 Dipole moment (field-independent basis, Debye):
    X=             -0.0654    Y=             -0.0275    Z=              0.0426  Tot=              0.0828
 Quadrupole moment (field-independent basis, Debye-Ang):
   XX=            -84.8337   YY=            -85.7197   ZZ=            -84.4206
   XY=              1.3937   XZ=             -0.1357   YZ=             -0.8207

 Normal termination of Gaussian 16 at Thu May  6 07:05:41 2021.
