 Gaussian 16, Revision A.03,
 Gaussian 16:  EM64L-G16RevA.03 25-Dec-2016

 -------------
 #p 6-31g* mp2
 -------------

 ------------------------------------------------------
 Input file generated by CHIRIPA (05-May-2021 14:51:12)
 ------------------------------------------------------
 Symbolic Z-matrix:
 Charge =  0 Multiplicity = 1

                         Standard orientation:
 ---------------------------------------------------------------------
 Center     Atomic      Atomic             Coordinates (Angstroms)
 Number     Number       Type             X           Y           Z
 ---------------------------------------------------------------------
      1          6           0       -5.690351    0.265145   -0.243476
      2          6           0       -6.927716   -0.559461    0.112807
      3          6           0       -8.233984    0.148975   -0.247160
      4          1           0       -5.739917    1.232026    0.275783
      5          1           0       -5.703654    0.487204   -1.319537
      6          1           0       -6.911369   -0.781074    1.187627
      7          1           0       -6.875103   -1.524567   -0.407210
      8          1           0       -8.276546    0.356121   -1.321348
      9          1           0       -8.313018    1.103837    0.282550
     10          1           0       -9.105721   -0.458186    0.016068
     11          6           0       -4.376731   -0.429786    0.110363
     12          6           0       -3.139366    0.394820   -0.245921
     13          6           0       -1.833098   -0.313615    0.114047
     14          1           0       -4.363427   -0.651845    1.186424
     15          1           0       -4.327164   -1.396666   -0.408897
     16          1           0       -3.191978    1.359927    0.274096
     17          1           0       -3.155712    0.616434   -1.320740
     18          1           0       -1.754064   -1.268478   -0.415663
     19          1           0       -1.790536   -0.520761    1.188235
     20          1           0       -0.961361    0.293546   -0.149181
     21          6           0        5.716978    0.324909   -0.173227
     22          6           0        6.814149   -0.732634   -0.047526
     23          6           0        8.175612   -0.232360   -0.531199
     24          1           0        5.641029    0.642411   -1.222212
     25          1           0        6.007351    1.214690    0.402420
     26          1           0        6.521158   -1.620680   -0.622109
     27          1           0        6.887365   -1.047794    1.001250
     28          1           0        8.493649    0.640126    0.048646
     29          1           0        8.125361    0.063985   -1.583936
     30          1           0        8.945208   -1.004255   -0.432407
     31          6           0        4.350103   -0.160270    0.306340
     32          6           0        3.252932    0.897274    0.180639
     33          6           0        1.891469    0.397001    0.664313
     34          1           0        4.059732   -1.050049   -0.269306
     35          1           0        4.426052   -0.477771    1.355326
     36          1           0        3.179717    1.212435   -0.868136
     37          1           0        3.545923    1.785320    0.755223
     38          1           0        1.941721    0.100655    1.717050
     39          1           0        1.573433   -0.475486    0.084467
     40          1           0        1.121873    1.168896    0.565520
 ---------------------------------------------------------------------

 SCF Done:  E(RHF) =  -470.732663448     A.U. after   11 cycles
 E2 =    -0.1582410171D+01 EUMP2 =    -0.47231507361905D+03

 The electronic state is 1-A.
 Alpha  occ. eigenvalues --  -11.21593 -11.21576 -11.21570 -11.21520 -11.21392
 Alpha  occ. eigenvalues --  -11.21355 -11.21333 -11.21293 -11.21065 -11.21047
 Alpha  occ. eigenvalues --  -11.21022 -11.20890  -1.08418  -1.08374  -1.03531
 Alpha  occ. eigenvalues --   -1.03453  -0.96022  -0.95863  -0.87094  -0.86828
 Alpha  occ. eigenvalues --   -0.79657  -0.79457  -0.78232  -0.78187  -0.65049
 Alpha  occ. eigenvalues --   -0.65007  -0.60927  -0.60864  -0.59594  -0.59093
 Alpha  occ. eigenvalues --   -0.57647  -0.57455  -0.55266  -0.55193  -0.53058
 Alpha  occ. eigenvalues --   -0.52449  -0.52325  -0.52144  -0.49902  -0.49839
 Alpha  occ. eigenvalues --   -0.47927  -0.47813  -0.46615  -0.46563  -0.45776
 Alpha  occ. eigenvalues --   -0.45727  -0.45697  -0.45660  -0.43974  -0.43458
 Alpha virt. eigenvalues --    0.22515   0.22993   0.23657   0.24868   0.26597
 Alpha virt. eigenvalues --    0.26712   0.27030   0.27385   0.27620   0.28979
 Alpha virt. eigenvalues --    0.30452   0.31081   0.31426   0.31787   0.32129

 Mulliken charges:
               1
     1  C   -0.298148
     2  C   -0.299565
     3  C   -0.475659
     4  H    0.149484
     5  H    0.149340
     6  H    0.151866
     7  H    0.151851
     8  H    0.155105
     9  H    0.155114
    10  H    0.160136
    11  C   -0.298345
    12  C   -0.299802
    13  C   -0.480398
    14  H    0.149379
    15  H    0.149421
    16  H    0.151268
    17  H    0.151241
    18  H    0.153560
    19  H    0.154852
    20  H    0.168293
    21  C   -0.298253
    22  C   -0.299623
    23  C   -0.475691
    24  H    0.149591
    25  H    0.149487
    26  H    0.151925
    27  H    0.151932
    28  H    0.155160
    29  H    0.155153
    30  H    0.160229
    31  C   -0.298620
    32  C   -0.299943
    33  C   -0.477542
    34  H    0.149637
    35  H    0.149643
    36  H    0.151675
    37  H    0.151660
    38  H    0.155272
    39  H    0.157803
    40  H    0.161512
 Sum of Mulliken charges =  -0.00000

 Dipole moment (field-independent basis, Debye):
    X=              0.0411    Y=             -0.0015    Z=              0.0093  Tot=              0.0421
 Quadrupole moment (field-independent basis, Debye-Ang):
   XX=            -87.2152   YY=            -84.7166   ZZ=            -83.1422
   XY=              0.2008   XZ=              0.3024   YZ=              0.8829

 Normal termination of Gaussian 16 at Wed May  5 18:18:11 2021.
