 Gaussian 16, Revision A.03,
 Gaussian 16:  EM64L-G16RevA.03 25-Dec-2016

 -------------
 #p 6-31g* mp2
 -------------

 ------------------------------------------------------
 Input file generated by CHIRIPA (05-May-2021 14:53:13)
 ------------------------------------------------------
 Symbolic Z-matrix:
 Charge =  0 Multiplicity = 1

                         Standard orientation:
 ---------------------------------------------------------------------
 Center     Atomic      Atomic             Coordinates (Angstroms)
 Number     Number       Type             X           Y           Z
 ---------------------------------------------------------------------
      1          6           0       -5.072887    0.251973    0.108446
      2          6           0       -6.473509   -0.340161    0.268513
      3          6           0       -7.547534    0.728853    0.472159
      4          1           0       -4.831548    0.851698    0.996720
      5          1           0       -5.070051    0.943281   -0.745650
      6          1           0       -6.473353   -1.031201    1.121204
      7          1           0       -6.711466   -0.938703   -0.620160
      8          1           0       -7.576829    1.413122   -0.381960
      9          1           0       -7.337363    1.320099    1.369297
     10          1           0       -8.541005    0.283559    0.584352
     11          6           0       -3.988335   -0.804290   -0.095961
     12          6           0       -2.587714   -0.212156   -0.256029
     13          6           0       -1.513689   -1.281171   -0.459674
     14          1           0       -3.991172   -1.495599    0.758134
     15          1           0       -4.229675   -1.404016   -0.984235
     16          1           0       -2.349756    0.386386    0.632645
     17          1           0       -2.587869    0.478883   -1.108719
     18          1           0       -1.723859   -1.872417   -1.356813
     19          1           0       -1.484394   -1.965440    0.394445
     20          1           0       -0.520218   -0.835876   -0.571867
     21          6           0        4.554461   -2.073203    0.305859
     22          6           0        3.330938   -1.934182   -0.357606
     23          6           0        2.759251   -0.670823   -0.535500
     24          6           0        3.441421    0.437036   -0.034917
     25          6           0        4.661809    0.331054    0.630449
     26          6           0        5.214828   -0.942135    0.796902
     27          1           0        4.991311   -3.058429    0.439607
     28          1           0        2.815848   -2.810822   -0.740006
     29          1           0        1.813241   -0.534496   -1.045302
     30          1           0        5.151661    1.223498    1.000591
     31          1           0        6.165157   -1.047093    1.312559
     32          7           0        2.846083    1.779702   -0.217190
     33          8           0        3.467013    2.740051    0.233156
     34          8           0        1.769802    1.846309   -0.806951
 ---------------------------------------------------------------------

 SCF Done:  E(RHF) =  -669.535582139     A.U. after   15 cycles
 E2 =    -0.2090950455D+01 EUMP2 =    -0.67162653259341D+03

 The electronic state is 1-A.
 Alpha  occ. eigenvalues --  -20.60784 -20.60778 -15.85833 -11.31187 -11.27756
 Alpha  occ. eigenvalues --  -11.27740 -11.27496 -11.26774 -11.26758 -11.21452
 Alpha  occ. eigenvalues --  -11.21399 -11.21246 -11.21192 -11.21169 -11.20910
 Alpha  occ. eigenvalues --   -1.59856  -1.39411  -1.19359  -1.08757  -1.08273
 Alpha  occ. eigenvalues --   -1.04761  -1.03407  -0.95896  -0.95592  -0.86923
 Alpha  occ. eigenvalues --   -0.86159  -0.82424  -0.79464  -0.78068  -0.77476
 Alpha  occ. eigenvalues --   -0.72052  -0.71177  -0.70479  -0.65012  -0.64900
 Alpha  occ. eigenvalues --   -0.64775  -0.62148  -0.60801  -0.59245  -0.57482
 Alpha  occ. eigenvalues --   -0.55268  -0.55184  -0.53104  -0.52967  -0.52495
 Alpha  occ. eigenvalues --   -0.52284  -0.49831  -0.48810  -0.48809  -0.47780
 Alpha  occ. eigenvalues --   -0.46476  -0.45621  -0.45533  -0.44817  -0.43668
 Alpha  occ. eigenvalues --   -0.37341  -0.36357
 Alpha virt. eigenvalues --    0.05033   0.11248   0.16555   0.20808   0.23021
 Alpha virt. eigenvalues --    0.24095   0.26246   0.26831   0.27657   0.27863
 Alpha virt. eigenvalues --    0.28899   0.30380   0.31502   0.31541   0.32117

 Mulliken charges:
               1
     1  C   -0.298478
     2  C   -0.299511
     3  C   -0.475700
     4  H    0.150984
     5  H    0.151185
     6  H    0.151031
     7  H    0.151209
     8  H    0.155797
     9  H    0.155642
    10  H    0.159502
    11  C   -0.299090
    12  C   -0.297199
    13  C   -0.482859
    14  H    0.147805
    15  H    0.148187
    16  H    0.156409
    17  H    0.157675
    18  H    0.152901
    19  H    0.153318
    20  H    0.160768
    21  C   -0.170789
    22  C   -0.220488
    23  C   -0.175921
    24  C    0.158022
    25  C   -0.170686
    26  C   -0.218559
    27  H    0.225633
    28  H    0.224401
    29  H    0.283924
    30  H    0.275551
    31  H    0.223430
    32  N    0.487615
    33  O   -0.460124
    34  O   -0.461587
 Sum of Mulliken charges =  -0.00000

 Dipole moment (field-independent basis, Debye):
    X=              2.0875    Y=             -4.6597    Z=              0.6528  Tot=              5.1475
 Quadrupole moment (field-independent basis, Debye-Ang):
   XX=            -78.2805   YY=            -99.1328   ZZ=            -93.3749
   XY=            -13.4857   XZ=              4.6905   YZ=              1.3904

 Normal termination of Gaussian 16 at Thu May  6 18:40:32 2021.
