 Gaussian 16, Revision A.03,
 Gaussian 16:  EM64L-G16RevA.03 25-Dec-2016

 -------------
 #p 6-31g* mp2
 -------------

 ------------------------------------------------------
 Input file generated by CHIRIPA (05-May-2021 14:55:23)
 ------------------------------------------------------
 Symbolic Z-matrix:
 Charge =  0 Multiplicity = 1

                         Standard orientation:
 ---------------------------------------------------------------------
 Center     Atomic      Atomic             Coordinates (Angstroms)
 Number     Number       Type             X           Y           Z
 ---------------------------------------------------------------------
      1          6           0       -3.032730   -2.352631    0.350428
      2          6           0       -4.039410   -1.739942    1.103905
      3          6           0       -4.314886   -0.378340    0.946738
      4          6           0       -3.560843    0.343689    0.022951
      5          6           0       -2.551428   -0.238103   -0.742482
      6          6           0       -2.293255   -1.601081   -0.568740
      7          1           0       -2.825454   -3.410890    0.478958
      8          1           0       -4.615295   -2.321131    1.818483
      9          1           0       -5.088547    0.121258    1.517061
     10          1           0       -1.994204    0.367332   -1.447016
     11          1           0       -1.510858   -2.074254   -1.155262
     12          7           0       -3.843318    1.785885   -0.152209
     13          8           0       -3.164782    2.399977   -0.972646
     14          8           0       -4.737909    2.274876    0.534254
     15          6           0        4.061875   -0.756144   -0.155756
     16          6           0        2.661703   -0.441702   -0.683610
     17          6           0        1.800558   -1.693131   -0.857238
     18          1           0        4.558941   -1.452265   -0.845166
     19          1           0        3.974447   -1.278663    0.806908
     20          1           0        2.751772    0.081297   -1.644326
     21          1           0        2.167984    0.253901    0.007037
     22          1           0        1.681074   -2.214151    0.098200
     23          1           0        2.268179   -2.387735   -1.562545
     24          1           0        0.803877   -1.445314   -1.235487
     25          6           0        4.934702    0.484789    0.023099
     26          6           0        6.334874    0.170347    0.550953
     27          6           0        7.196018    1.421776    0.724581
     28          1           0        5.022130    1.007308   -0.939566
     29          1           0        4.437636    1.180910    0.712509
     30          1           0        6.828593   -0.525258   -0.139694
     31          1           0        6.244805   -0.352653    1.511668
     32          1           0        6.728398    2.116380    1.429888
     33          1           0        7.315502    1.942796   -0.230858
     34          1           0        8.192700    1.173958    1.102830
 ---------------------------------------------------------------------

 SCF Done:  E(RHF) =  -669.535359153     A.U. after   15 cycles
 E2 =    -0.2090960376D+01 EUMP2 =    -0.67162631952836D+03

 The electronic state is 1-A.
 Alpha  occ. eigenvalues --  -20.60747 -20.60742 -15.85801 -11.31165 -11.27734
 Alpha  occ. eigenvalues --  -11.27727 -11.27466 -11.26751 -11.26711 -11.22079
 Alpha  occ. eigenvalues --  -11.21868 -11.21785 -11.21744 -11.21594 -11.21188
 Alpha  occ. eigenvalues --   -1.59823  -1.39377  -1.19336  -1.08757  -1.08728
 Alpha  occ. eigenvalues --   -1.04741  -1.03900  -0.96375  -0.95565  -0.87403
 Alpha  occ. eigenvalues --   -0.86133  -0.82401  -0.79966  -0.78536  -0.77449
 Alpha  occ. eigenvalues --   -0.72019  -0.71146  -0.70442  -0.65378  -0.64989
 Alpha  occ. eigenvalues --   -0.64765  -0.62138  -0.61285  -0.59753  -0.57967
 Alpha  occ. eigenvalues --   -0.55648  -0.55239  -0.53296  -0.53038  -0.52834
 Alpha  occ. eigenvalues --   -0.52608  -0.50296  -0.48777  -0.48774  -0.48279
 Alpha  occ. eigenvalues --   -0.46973  -0.46089  -0.45990  -0.44783  -0.44152
 Alpha  occ. eigenvalues --   -0.37313  -0.36330
 Alpha virt. eigenvalues --    0.05075   0.11299   0.16502   0.20455   0.22662
 Alpha virt. eigenvalues --    0.23931   0.25914   0.26370   0.27183   0.28215
 Alpha virt. eigenvalues --    0.28477   0.30239   0.31044   0.31609   0.32427

 Mulliken charges:
               1
     1  C   -0.171799
     2  C   -0.218558
     3  C   -0.171106
     4  C    0.158381
     5  C   -0.172152
     6  C   -0.219463
     7  H    0.225892
     8  H    0.223285
     9  H    0.275495
    10  H    0.275277
    11  H    0.227736
    12  N    0.488101
    13  O   -0.460424
    14  O   -0.460579
    15  C   -0.299073
    16  C   -0.299921
    17  C   -0.477955
    18  H    0.149703
    19  H    0.149601
    20  H    0.154164
    21  H    0.155853
    22  H    0.156107
    23  H    0.156806
    24  H    0.150812
    25  C   -0.298924
    26  C   -0.299906
    27  C   -0.475976
    28  H    0.150770
    29  H    0.151551
    30  H    0.151775
    31  H    0.151833
    32  H    0.156180
    33  H    0.155878
    34  H    0.160637
 Sum of Mulliken charges =  -0.00000

 Dipole moment (field-independent basis, Debye):
    X=              1.1298    Y=             -5.0559    Z=              0.6566  Tot=              5.2220
 Quadrupole moment (field-independent basis, Debye-Ang):
   XX=            -99.6227   YY=            -99.5720   ZZ=            -91.9478
   XY=             18.3554   XZ=             -5.5854   YZ=             -0.2671

 Normal termination of Gaussian 16 at Wed May  5 19:06:13 2021.
