 Gaussian 16, Revision A.03,
 Gaussian 16:  EM64L-G16RevA.03 25-Dec-2016

 -------------
 #p 6-31g* mp2
 -------------

 ------------------------------------------------------
 Input file generated by CHIRIPA (05-May-2021 14:51:11)
 ------------------------------------------------------
 Symbolic Z-matrix:
 Charge =  0 Multiplicity = 1

                         Standard orientation:
 ---------------------------------------------------------------------
 Center     Atomic      Atomic             Coordinates (Angstroms)
 Number     Number       Type             X           Y           Z
 ---------------------------------------------------------------------
      1          6           0        3.410588    0.165137   -0.481606
      2          6           0        4.806275   -0.159811    0.051735
      3          6           0        5.532379   -1.207868   -0.792150
      4          1           0        2.814395   -0.756977   -0.516294
      5          1           0        3.495360    0.521692   -1.517501
      6          1           0        4.719023   -0.514334    1.086779
      7          1           0        5.399153    0.763217    0.085338
      8          1           0        5.648795   -0.858942   -1.823314
      9          1           0        4.964801   -2.143752   -0.816182
     10          1           0        6.528064   -1.425092   -0.393044
     11          6           0        2.672119    1.211283    0.351442
     12          6           0        1.276432    1.536231   -0.181899
     13          6           0        0.550328    2.584289    0.661986
     14          1           0        2.587347    0.854729    1.387337
     15          1           0        3.268312    2.133397    0.386130
     16          1           0        0.683553    0.613203   -0.215502
     17          1           0        1.363684    1.890754   -1.216943
     18          1           0        1.117906    3.520173    0.686019
     19          1           0        0.433911    2.235362    1.693150
     20          1           0       -0.445357    2.801512    0.262881
     21          6           0       -3.574510   -0.506296   -0.450750
     22          6           0       -4.745631    0.280129    0.139163
     23          6           0       -5.804018    0.636703   -0.905092
     24          1           0       -3.113794    0.082848   -1.255483
     25          1           0       -3.956465   -1.425671   -0.915781
     26          1           0       -4.361425    1.197071    0.604156
     27          1           0       -5.203494   -0.310874    0.942713
     28          1           0       -6.214943   -0.269351   -1.362048
     29          1           0       -5.368090    1.247163   -1.702529
     30          1           0       -6.632041    1.198612   -0.461812
     31          6           0       -2.508196   -0.870125    0.580914
     32          6           0       -1.337075   -1.656549   -0.008999
     33          6           0       -0.278688   -2.013124    1.035255
     34          1           0       -2.126243    0.049251    1.045945
     35          1           0       -2.968913   -1.459268    1.385646
     36          1           0       -0.879213   -1.065546   -0.812550
     37          1           0       -1.721282   -2.573491   -0.473992
     38          1           0       -0.714618   -2.623583    1.832693
     39          1           0        0.132236   -1.107070    1.492211
     40          1           0        0.549334   -2.575033    0.591976
 ---------------------------------------------------------------------

 SCF Done:  E(RHF) =  -470.732777302     A.U. after   11 cycles
 E2 =    -0.1584353008D+01 EUMP2 =    -0.47231713031023D+03

 The electronic state is 1-A.
 Alpha  occ. eigenvalues --  -11.21647 -11.21612 -11.21588 -11.21571 -11.21427
 Alpha  occ. eigenvalues --  -11.21400 -11.21367 -11.21338 -11.21161 -11.21133
 Alpha  occ. eigenvalues --  -11.21079 -11.21063  -1.08494  -1.08403  -1.03624
 Alpha  occ. eigenvalues --   -1.03495  -0.96027  -0.95991  -0.87047  -0.87002
 Alpha  occ. eigenvalues --   -0.79670  -0.79574  -0.78294  -0.78224  -0.65394
 Alpha  occ. eigenvalues --   -0.64846  -0.61335  -0.60592  -0.59393  -0.59342
 Alpha  occ. eigenvalues --   -0.57632  -0.57597  -0.55323  -0.55278  -0.52723
 Alpha  occ. eigenvalues --   -0.52685  -0.52467  -0.52394  -0.50013  -0.49883
 Alpha  occ. eigenvalues --   -0.48080  -0.47810  -0.46789  -0.46520  -0.45924
 Alpha  occ. eigenvalues --   -0.45758  -0.45728  -0.45525  -0.43820  -0.43786
 Alpha virt. eigenvalues --    0.19566   0.22652   0.23933   0.24186   0.26172
 Alpha virt. eigenvalues --    0.26357   0.26702   0.27944   0.28942   0.29791
 Alpha virt. eigenvalues --    0.30159   0.31174   0.31711   0.31841   0.32289

 Mulliken charges:
               1
     1  C   -0.300189
     2  C   -0.299687
     3  C   -0.475664
     4  H    0.151683
     5  H    0.149269
     6  H    0.152227
     7  H    0.151860
     8  H    0.155100
     9  H    0.155063
    10  H    0.160261
    11  C   -0.297711
    12  C   -0.311628
    13  C   -0.476009
    14  H    0.149572
    15  H    0.149649
    16  H    0.164763
    17  H    0.151695
    18  H    0.155750
    19  H    0.154753
    20  H    0.159612
    21  C   -0.298334
    22  C   -0.299758
    23  C   -0.475724
    24  H    0.149878
    25  H    0.149570
    26  H    0.152094
    27  H    0.151961
    28  H    0.155194
    29  H    0.155193
    30  H    0.160338
    31  C   -0.300417
    32  C   -0.304485
    33  C   -0.479850
    34  H    0.151919
    35  H    0.149853
    36  H    0.154612
    37  H    0.153394
    38  H    0.156267
    39  H    0.157277
    40  H    0.160651
 Sum of Mulliken charges =  -0.00000

 Dipole moment (field-independent basis, Debye):
    X=             -0.0171    Y=             -0.0190    Z=              0.0021  Tot=              0.0256
 Quadrupole moment (field-independent basis, Debye-Ang):
   XX=            -85.5420   YY=            -84.1556   ZZ=            -85.0857
   XY=              1.5027   XZ=             -0.5375   YZ=             -0.7904

 Normal termination of Gaussian 16 at Thu May  6 02:15:57 2021.
