 Gaussian 16, Revision A.03,
 Gaussian 16:  EM64L-G16RevA.03 25-Dec-2016

 -------------
 #p 6-31g* mp2
 -------------

 ------------------------------------------------------
 Input file generated by CHIRIPA (05-May-2021 14:57:22)
 ------------------------------------------------------
 Symbolic Z-matrix:
 Charge =  0 Multiplicity = 1

                         Standard orientation:
 ---------------------------------------------------------------------
 Center     Atomic      Atomic             Coordinates (Angstroms)
 Number     Number       Type             X           Y           Z
 ---------------------------------------------------------------------
      1          6           0        5.387376    0.380057   -0.574205
      2          6           0        4.562942   -0.452710   -1.337965
      3          6           0        3.273780   -0.770491   -0.900217
      4          6           0        2.839320   -0.235635    0.311585
      5          6           0        3.636989    0.596942    1.095058
      6          6           0        4.922587    0.901306    0.637732
      7          1           0        6.387444    0.621705   -0.921862
      8          1           0        4.921256   -0.858955   -2.279571
      9          1           0        2.614587   -1.412658   -1.471623
     10          1           0        3.251911    0.986780    2.029488
     11          1           0        5.560658    1.548309    1.232961
     12          7           0        1.476428   -0.564954    0.785373
     13          8           0        1.117218   -0.080973    1.856525
     14          8           0        0.793210   -1.300818    0.076603
     15          6           0       -3.443901   -2.297416    0.044397
     16          6           0       -4.142490   -1.388027    0.845338
     17          6           0       -3.939927   -0.012379    0.700061
     18          6           0       -3.027208    0.420998   -0.260366
     19          6           0       -2.315984   -0.460131   -1.073422
     20          6           0       -2.534481   -1.831386   -0.910743
     21          1           0       -3.607447   -3.364346    0.164010
     22          1           0       -4.849373   -1.747090    1.587926
     23          1           0       -4.467336    0.713626    1.306837
     24          1           0       -1.617801   -0.072047   -1.805098
     25          1           0       -1.990542   -2.535325   -1.534158
     26          7           0       -2.804329    1.875011   -0.423375
     27          8           0       -1.994758    2.231359   -1.276750
     28          8           0       -3.443427    2.630786    0.305319
 ---------------------------------------------------------------------

 SCF Done:  E(RHF) =  -868.338507703     A.U. after   15 cycles
 E2 =    -0.2599938507D+01 EUMP2 =    -0.87093844621018D+03

 The electronic state is 1-A.
 Alpha  occ. eigenvalues --  -20.61052 -20.60994 -20.59735 -20.59719 -15.86063
 Alpha  occ. eigenvalues --  -15.84774 -11.31295 -11.29832 -11.27890 -11.27820
 Alpha  occ. eigenvalues --  -11.27569 -11.26858 -11.26816 -11.26432 -11.26371
 Alpha  occ. eigenvalues --  -11.26142 -11.25436 -11.25327  -1.60085  -1.58804
 Alpha  occ. eigenvalues --   -1.39651  -1.38370  -1.19454  -1.17989  -1.08874
 Alpha  occ. eigenvalues --   -1.07465  -1.04844  -1.03364  -0.95735  -0.94350
 Alpha  occ. eigenvalues --   -0.86250  -0.84810  -0.82585  -0.81202  -0.77646
 Alpha  occ. eigenvalues --   -0.76274  -0.72307  -0.71394  -0.71015  -0.70574
 Alpha  occ. eigenvalues --   -0.70103  -0.69180  -0.65119  -0.64853  -0.63680
 Alpha  occ. eigenvalues --   -0.63432  -0.62202  -0.60761  -0.55353  -0.53958
 Alpha  occ. eigenvalues --   -0.53170  -0.52943  -0.51699  -0.51516  -0.49048
 Alpha  occ. eigenvalues --   -0.49001  -0.47775  -0.47741  -0.45089  -0.43845
 Alpha  occ. eigenvalues --   -0.37423  -0.36436  -0.35971  -0.34829
 Alpha virt. eigenvalues --    0.04859   0.06306   0.11220   0.12735   0.16404
 Alpha virt. eigenvalues --    0.17832   0.21326   0.22611   0.27225   0.28045
 Alpha virt. eigenvalues --    0.28633   0.29462   0.30937   0.32105   0.32431

 Mulliken charges:
               1
     1  C   -0.170097
     2  C   -0.217988
     3  C   -0.170131
     4  C    0.159824
     5  C   -0.169219
     6  C   -0.218124
     7  H    0.226357
     8  H    0.223160
     9  H    0.270774
    10  H    0.277121
    11  H    0.224713
    12  N    0.490585
    13  O   -0.455854
    14  O   -0.469285
    15  C   -0.170591
    16  C   -0.218077
    17  C   -0.170438
    18  C    0.157773
    19  C   -0.154554
    20  C   -0.203518
    21  H    0.220548
    22  H    0.218182
    23  H    0.271117
    24  H    0.269347
    25  H    0.219366
    26  N    0.489065
    27  O   -0.466208
    28  O   -0.463848
 Sum of Mulliken charges =  -0.00000

 Dipole moment (field-independent basis, Debye):
    X=              4.3650    Y=             -4.0000    Z=             -1.0154  Tot=              6.0070
 Quadrupole moment (field-independent basis, Debye-Ang):
   XX=            -72.1452   YY=           -109.5578   ZZ=           -100.9092
   XY=             17.7499   XZ=             -6.8839   YZ=              5.9265

 Normal termination of Gaussian 16 at Thu May  6 19:31:57 2021.
