 Gaussian 16, Revision A.03,
 Gaussian 16:  EM64L-G16RevA.03 25-Dec-2016

 -------------
 #p 6-31g* mp2
 -------------

 ------------------------------------------------------
 Input file generated by CHIRIPA (05-May-2021 14:55:21)
 ------------------------------------------------------
 Symbolic Z-matrix:
 Charge =  0 Multiplicity = 1

                         Standard orientation:
 ---------------------------------------------------------------------
 Center     Atomic      Atomic             Coordinates (Angstroms)
 Number     Number       Type             X           Y           Z
 ---------------------------------------------------------------------
      1          6           0       -1.828094    2.014756    0.566092
      2          6           0       -2.412312    1.818477   -0.689570
      3          6           0       -3.151541    0.662099   -0.955795
      4          6           0       -3.286999   -0.281558    0.061285
      5          6           0       -2.716994   -0.114818    1.322468
      6          6           0       -1.982029    1.049184    1.566340
      7          1           0       -1.255499    2.916019    0.764219
      8          1           0       -2.294421    2.566655   -1.468272
      9          1           0       -3.614470    0.484720   -1.918942
     10          1           0       -2.851969   -0.878538    2.078730
     11          1           0       -1.529433    1.198951    2.542440
     12          7           0       -4.067331   -1.509800   -0.208723
     13          8           0       -4.171932   -2.326051    0.704201
     14          8           0       -4.559578   -1.632987   -1.328167
     15          6           0        4.663605   -0.173837    0.214261
     16          6           0        5.218235   -1.438952   -0.441371
     17          6           0        6.460246   -1.977335    0.269507
     18          1           0        5.444980    0.598347    0.225596
     19          1           0        4.421774   -0.389242    1.264267
     20          1           0        5.457654   -1.221596   -1.490205
     21          1           0        4.435389   -2.208152   -0.451320
     22          1           0        6.231875   -2.221785    1.311952
     23          1           0        7.259949   -1.229625    0.267164
     24          1           0        6.840088   -2.881859   -0.215690
     25          6           0        3.421876    0.376407   -0.485074
     26          6           0        2.867246    1.641522    0.170559
     27          6           0        1.625235    2.179905   -0.540319
     28          1           0        3.663707    0.591813   -1.535081
     29          1           0        2.640501   -0.395778   -0.496409
     30          1           0        3.650092    2.410722    0.180508
     31          1           0        2.627827    1.424167    1.219392
     32          1           0        0.825532    1.432195   -0.537977
     33          1           0        1.853606    2.424356   -1.582764
     34          1           0        1.245392    3.084429   -0.055122
 ---------------------------------------------------------------------

 SCF Done:  E(RHF) =  -669.534846701     A.U. after   15 cycles
 E2 =    -0.2091883211D+01 EUMP2 =    -0.67162672991226D+03

 The electronic state is 1-A.
 Alpha  occ. eigenvalues --  -20.60760 -20.60754 -15.85816 -11.31170 -11.27769
 Alpha  occ. eigenvalues --  -11.27759 -11.27470 -11.26753 -11.26735 -11.22213
 Alpha  occ. eigenvalues --  -11.21854 -11.21821 -11.21798 -11.21713 -11.21276
 Alpha  occ. eigenvalues --   -1.59837  -1.39390  -1.19363  -1.08857  -1.08747
 Alpha  occ. eigenvalues --   -1.04763  -1.03977  -0.96449  -0.95578  -0.87467
 Alpha  occ. eigenvalues --   -0.86156  -0.82416  -0.80050  -0.78635  -0.77463
 Alpha  occ. eigenvalues --   -0.72033  -0.71162  -0.70472  -0.65476  -0.65008
 Alpha  occ. eigenvalues --   -0.64759  -0.62108  -0.61376  -0.59853  -0.58045
 Alpha  occ. eigenvalues --   -0.55792  -0.55236  -0.53316  -0.53022  -0.52849
 Alpha  occ. eigenvalues --   -0.52754  -0.50331  -0.48791  -0.48788  -0.48358
 Alpha  occ. eigenvalues --   -0.47062  -0.46184  -0.46091  -0.44798  -0.44236
 Alpha  occ. eigenvalues --   -0.37253  -0.36380
 Alpha virt. eigenvalues --    0.05073   0.11244   0.16542   0.20673   0.22581
 Alpha virt. eigenvalues --    0.23959   0.26224   0.26376   0.27011   0.27465
 Alpha virt. eigenvalues --    0.28525   0.30186   0.31007   0.31602   0.32459

 Mulliken charges:
               1
     1  C   -0.166974
     2  C   -0.219903
     3  C   -0.170941
     4  C    0.157787
     5  C   -0.170856
     6  C   -0.221039
     7  H    0.228782
     8  H    0.224358
     9  H    0.275701
    10  H    0.275510
    11  H    0.223377
    12  N    0.488149
    13  O   -0.460694
    14  O   -0.460500
    15  C   -0.298513
    16  C   -0.300200
    17  C   -0.475938
    18  H    0.149799
    19  H    0.149242
    20  H    0.152485
    21  H    0.153493
    22  H    0.155349
    23  H    0.155102
    24  H    0.161633
    25  C   -0.299300
    26  C   -0.298354
    27  C   -0.482868
    28  H    0.150598
    29  H    0.152111
    30  H    0.152926
    31  H    0.149397
    32  H    0.165160
    33  H    0.156730
    34  H    0.148392
 Sum of Mulliken charges =  -0.00000

 Dipole moment (field-independent basis, Debye):
    X=              2.8186    Y=              4.2756    Z=              0.9179  Tot=              5.2027
 Quadrupole moment (field-independent basis, Debye-Ang):
   XX=           -113.7571   YY=            -97.4606   ZZ=            -90.2025
   XY=            -14.9121   XZ=             -2.8013   YZ=             -1.8747

 Normal termination of Gaussian 16 at Thu May  6 14:08:53 2021.
