 Gaussian 16, Revision A.03,
 Gaussian 16:  EM64L-G16RevA.03 25-Dec-2016

 -------------
 #p 6-31g* mp2
 -------------

 ------------------------------------------------------
 Input file generated by CHIRIPA (05-May-2021 14:55:20)
 ------------------------------------------------------
 Symbolic Z-matrix:
 Charge =  0 Multiplicity = 1

                         Standard orientation:
 ---------------------------------------------------------------------
 Center     Atomic      Atomic             Coordinates (Angstroms)
 Number     Number       Type             X           Y           Z
 ---------------------------------------------------------------------
      1          6           0       -1.327215    0.257527    0.822598
      2          6           0       -2.104131   -0.728064    1.440282
      3          6           0       -3.415562   -0.966310    1.018458
      4          6           0       -3.920503   -0.196947   -0.028636
      5          6           0       -3.171442    0.792179   -0.664111
      6          6           0       -1.862406    1.013171   -0.225778
      7          1           0       -0.309394    0.435901    1.156693
      8          1           0       -1.691110   -1.316432    2.254703
      9          1           0       -4.039085   -1.723005    1.478947
     10          1           0       -3.610728    1.362618   -1.473460
     11          1           0       -1.261355    1.779256   -0.707334
     12          7           0       -5.307588   -0.440034   -0.483940
     13          8           0       -5.729169    0.251348   -1.408547
     14          8           0       -5.946941   -1.317345    0.092420
     15          6           0        4.189270    0.522682    0.378957
     16          6           0        3.585987    1.788028   -0.231723
     17          6           0        2.514492    2.420419    0.656971
     18          1           0        3.387778   -0.205525    0.564083
     19          1           0        4.621885    0.767227    1.358976
     20          1           0        3.155861    1.541455   -1.210911
     21          1           0        4.389034    2.513234   -0.415594
     22          1           0        2.933862    2.694358    1.630462
     23          1           0        1.693682    1.717057    0.830626
     24          1           0        2.096688    3.323549    0.201279
     25          6           0        5.261980   -0.121060   -0.497751
     26          6           0        5.865262   -1.386407    0.112930
     27          6           0        6.936757   -2.018797   -0.775764
     28          1           0        4.829364   -0.365606   -1.477769
     29          1           0        6.063471    0.607146   -0.682877
     30          1           0        5.062215   -2.111613    0.296801
     31          1           0        6.295388   -1.139834    1.092118
     32          1           0        7.757566   -1.315436   -0.949420
     33          1           0        6.517386   -2.292737   -1.749256
     34          1           0        7.354560   -2.921928   -0.320072
 ---------------------------------------------------------------------

 SCF Done:  E(RHF) =  -669.535478255     A.U. after   15 cycles
 E2 =    -0.2090882097D+01 EUMP2 =    -0.67162636035263D+03

 The electronic state is 1-A.
 Alpha  occ. eigenvalues --  -20.60738 -20.60733 -15.85792 -11.31153 -11.27723
 Alpha  occ. eigenvalues --  -11.27718 -11.27448 -11.26737 -11.26721 -11.22569
 Alpha  occ. eigenvalues --  -11.22339 -11.22245 -11.22173 -11.22037 -11.21533
 Alpha  occ. eigenvalues --   -1.59814  -1.39367  -1.19325  -1.09216  -1.08720
 Alpha  occ. eigenvalues --   -1.04728  -1.04334  -0.96800  -0.95557  -0.87818
 Alpha  occ. eigenvalues --   -0.86123  -0.82392  -0.80404  -0.78995  -0.77436
 Alpha  occ. eigenvalues --   -0.72010  -0.71137  -0.70460  -0.65848  -0.64977
 Alpha  occ. eigenvalues --   -0.64732  -0.62079  -0.61732  -0.60181  -0.58396
 Alpha  occ. eigenvalues --   -0.56171  -0.55198  -0.53488  -0.53203  -0.53058
 Alpha  occ. eigenvalues --   -0.52817  -0.50738  -0.48776  -0.48765  -0.48704
 Alpha  occ. eigenvalues --   -0.47430  -0.46546  -0.46443  -0.44774  -0.44570
 Alpha  occ. eigenvalues --   -0.37304  -0.36333
 Alpha virt. eigenvalues --    0.05098   0.11321   0.16590   0.19140   0.22492
 Alpha virt. eigenvalues --    0.23819   0.25113   0.26313   0.26660   0.27569
 Alpha virt. eigenvalues --    0.28784   0.30226   0.30901   0.31350   0.32153

 Mulliken charges:
               1
     1  C   -0.176462
     2  C   -0.219664
     3  C   -0.170761
     4  C    0.158281
     5  C   -0.170926
     6  C   -0.221534
     7  H    0.234249
     8  H    0.223882
     9  H    0.275420
    10  H    0.275515
    11  H    0.224118
    12  N    0.488014
    13  O   -0.460535
    14  O   -0.460511
    15  C   -0.298056
    16  C   -0.299944
    17  C   -0.480336
    18  H    0.145308
    19  H    0.151222
    20  H    0.152636
    21  H    0.156547
    22  H    0.160797
    23  H    0.144615
    24  H    0.162786
    25  C   -0.298906
    26  C   -0.300111
    27  C   -0.476152
    28  H    0.150771
    29  H    0.151562
    30  H    0.151593
    31  H    0.152543
    32  H    0.156148
    33  H    0.156127
    34  H    0.161765
 Sum of Mulliken charges =  -0.00000

 Dipole moment (field-independent basis, Debye):
    X=              5.1351    Y=              0.8880    Z=              1.5796  Tot=              5.4455
 Quadrupole moment (field-independent basis, Debye-Ang):
   XX=           -132.8583   YY=            -92.7019   ZZ=            -92.9708
   XY=             -2.9058   XZ=             -6.1642   YZ=             -3.2839

 Normal termination of Gaussian 16 at Thu May  6 07:44:10 2021.
