 Gaussian 16, Revision A.03,
 Gaussian 16:  EM64L-G16RevA.03 25-Dec-2016

 -------------
 #p 6-31g* mp2
 -------------

 ------------------------------------------------------
 Input file generated by CHIRIPA (05-May-2021 14:53:14)
 ------------------------------------------------------
 Symbolic Z-matrix:
 Charge =  0 Multiplicity = 1

                         Standard orientation:
 ---------------------------------------------------------------------
 Center     Atomic      Atomic             Coordinates (Angstroms)
 Number     Number       Type             X           Y           Z
 ---------------------------------------------------------------------
      1          6           0       -3.637878    0.534598   -0.675276
      2          6           0       -2.642885    1.395674    0.103518
      3          6           0       -1.748497    2.236413   -0.808086
      4          1           0       -3.085855   -0.124671   -1.359074
      5          1           0       -4.261655    1.185125   -1.303855
      6          1           0       -2.022092    0.743837    0.731483
      7          1           0       -3.197332    2.052835    0.785680
      8          1           0       -2.351976    2.910060   -1.425025
      9          1           0       -1.170060    1.593625   -1.479529
     10          1           0       -1.044922    2.844185   -0.230630
     11          6           0       -4.539028   -0.311630    0.222251
     12          6           0       -5.534022   -1.172706   -0.556542
     13          6           0       -6.428410   -2.013445    0.355062
     14          1           0       -3.915251   -0.962157    0.850830
     15          1           0       -5.091051    0.347639    0.906050
     16          1           0       -4.979575   -1.829867   -1.238704
     17          1           0       -6.154814   -0.520869   -1.184508
     18          1           0       -7.006847   -1.370657    1.026504
     19          1           0       -5.824930   -2.687093    0.972000
     20          1           0       -7.131984   -2.621217   -0.222395
     21          6           0        4.898207   -1.531625   -0.995766
     22          6           0        4.506513   -1.833319    0.312697
     23          6           0        3.563098   -1.039889    0.972230
     24          6           0        3.029357    0.052555    0.290338
     25          6           0        3.399311    0.378959   -1.013458
     26          6           0        4.344333   -0.428394   -1.653508
     27          1           0        5.631699   -2.153388   -1.500541
     28          1           0        4.934986   -2.689480    0.825966
     29          1           0        3.241948   -1.250669    1.985074
     30          1           0        2.954550    1.238983   -1.499218
     31          1           0        4.646650   -0.191707   -2.669691
     32          7           0        2.029756    0.899893    0.978243
     33          8           0        1.574422    1.856798    0.355634
     34          8           0        1.720531    0.591089    2.127006
 ---------------------------------------------------------------------

 SCF Done:  E(RHF) =  -669.535932903     A.U. after   15 cycles
 E2 =    -0.2091100761D+01 EUMP2 =    -0.67162703366373D+03

 The electronic state is 1-A.
 Alpha  occ. eigenvalues --  -20.60939 -20.60910 -15.85956 -11.31287 -11.27851
 Alpha  occ. eigenvalues --  -11.27845 -11.27589 -11.26859 -11.26849 -11.21094
 Alpha  occ. eigenvalues --  -11.20705 -11.20652 -11.20541 -11.20395 -11.19586
 Alpha  occ. eigenvalues --   -1.59988  -1.39543  -1.19456  -1.08859  -1.07639
 Alpha  occ. eigenvalues --   -1.04852  -1.02652  -0.95704  -0.95093  -0.86254
 Alpha  occ. eigenvalues --   -0.86119  -0.82532  -0.78756  -0.77585  -0.77410
 Alpha  occ. eigenvalues --   -0.72185  -0.71304  -0.70563  -0.65111  -0.64855
 Alpha  occ. eigenvalues --   -0.64283  -0.62199  -0.60064  -0.58500  -0.56669
 Alpha  occ. eigenvalues --   -0.55356  -0.54414  -0.53184  -0.52944  -0.51746
 Alpha  occ. eigenvalues --   -0.51536  -0.49105  -0.48935  -0.48902  -0.47043
 Alpha  occ. eigenvalues --   -0.45833  -0.44981  -0.44948  -0.44818  -0.42874
 Alpha  occ. eigenvalues --   -0.37435  -0.36455
 Alpha virt. eigenvalues --    0.04932   0.11199   0.16418   0.21321   0.23582
 Alpha virt. eigenvalues --    0.25210   0.27211   0.27387   0.28122   0.28247
 Alpha virt. eigenvalues --    0.29004   0.30915   0.32074   0.32441   0.32660

 Mulliken charges:
               1
     1  C   -0.297248
     2  C   -0.300181
     3  C   -0.476016
     4  H    0.145518
     5  H    0.146715
     6  H    0.157456
     7  H    0.149715
     8  H    0.144468
     9  H    0.147166
    10  H    0.183296
    11  C   -0.297583
    12  C   -0.298802
    13  C   -0.475192
    14  H    0.149432
    15  H    0.149357
    16  H    0.149865
    17  H    0.150836
    18  H    0.155050
    19  H    0.154498
    20  H    0.158103
    21  C   -0.170631
    22  C   -0.218597
    23  C   -0.170773
    24  C    0.157885
    25  C   -0.171034
    26  C   -0.218572
    27  H    0.225968
    28  H    0.223770
    29  H    0.275785
    30  H    0.276206
    31  H    0.223879
    32  N    0.489687
    33  O   -0.460058
    34  O   -0.459964
 Sum of Mulliken charges =  -0.00000

 Dipole moment (field-independent basis, Debye):
    X=              3.8223    Y=             -2.9103    Z=             -2.3104  Tot=              5.3309
 Quadrupole moment (field-independent basis, Debye-Ang):
   XX=            -75.1456   YY=            -93.6846   ZZ=            -93.5726
   XY=            -10.4310   XZ=             -6.1938   YZ=             -3.1591

 Normal termination of Gaussian 16 at Wed May  5 17:05:20 2021.
