 Gaussian 16, Revision A.03,
 Gaussian 16:  EM64L-G16RevA.03 25-Dec-2016

 -------------
 #p 6-31g* mp2
 -------------

 ------------------------------------------------------
 Input file generated by CHIRIPA (05-May-2021 14:55:24)
 ------------------------------------------------------
 Symbolic Z-matrix:
 Charge =  0 Multiplicity = 1

                         Standard orientation:
 ---------------------------------------------------------------------
 Center     Atomic      Atomic             Coordinates (Angstroms)
 Number     Number       Type             X           Y           Z
 ---------------------------------------------------------------------
      1          6           0       -2.378643    2.566896    0.575120
      2          6           0       -2.062692    1.498083    1.420303
      3          6           0       -2.293393    0.180133    1.014924
      4          6           0       -2.843763   -0.033605   -0.247890
      5          6           0       -3.169222    1.010145   -1.112732
      6          6           0       -2.929927    2.319951   -0.686476
      7          1           0       -2.196091    3.587548    0.898138
      8          1           0       -1.634454    1.686876    2.400617
      9          1           0       -2.058208   -0.665955    1.649149
     10          1           0       -3.595027    0.790469   -2.084252
     11          1           0       -3.176286    3.148051   -1.344962
     12          7           0       -3.092545   -1.424549   -0.688098
     13          8           0       -3.578337   -1.586277   -1.805455
     14          8           0       -2.797037   -2.326705    0.092560
     15          6           0        3.086893   -0.784871    0.441574
     16          6           0        1.978490   -0.245596    1.346346
     17          6           0        0.984754   -1.326700    1.772367
     18          1           0        2.634559   -1.240893   -0.449708
     19          1           0        3.620997   -1.588627    0.967028
     20          1           0        1.447524    0.557843    0.819870
     21          1           0        2.433523    0.209365    2.235486
     22          1           0        1.495524   -2.125078    2.320372
     23          1           0        0.503921   -1.774620    0.896713
     24          1           0        0.200944   -0.919372    2.418575
     25          6           0        4.088176    0.284034    0.007293
     26          6           0        5.196578   -0.255241   -0.897479
     27          6           0        6.190315    0.825865   -1.323501
     28          1           0        3.554071    1.087791   -0.518161
     29          1           0        4.540509    0.740057    0.898574
     30          1           0        4.741544   -0.710202   -1.786619
     31          1           0        5.727543   -1.058680   -0.371003
     32          1           0        6.671146    1.273783   -0.447846
     33          1           0        5.679545    1.624241   -1.871505
     34          1           0        6.974125    0.418536   -1.969707
 ---------------------------------------------------------------------

 SCF Done:  E(RHF) =  -669.535223150     A.U. after   15 cycles
 E2 =    -0.2092224369D+01 EUMP2 =    -0.67162744751893D+03

 The electronic state is 1-A.
 Alpha  occ. eigenvalues --  -20.60800 -20.60792 -15.85841 -11.31176 -11.27772
 Alpha  occ. eigenvalues --  -11.27721 -11.27518 -11.26774 -11.26765 -11.21806
 Alpha  occ. eigenvalues --  -11.21675 -11.21522 -11.21458 -11.21267 -11.21161
 Alpha  occ. eigenvalues --   -1.59868  -1.39421  -1.19367  -1.08766  -1.08557
 Alpha  occ. eigenvalues --   -1.04774  -1.03670  -0.96132  -0.95596  -0.87152
 Alpha  occ. eigenvalues --   -0.86158  -0.82435  -0.79738  -0.78363  -0.77481
 Alpha  occ. eigenvalues --   -0.72060  -0.71190  -0.70486  -0.65186  -0.65023
 Alpha  occ. eigenvalues --   -0.64775  -0.62190  -0.61046  -0.59495  -0.57740
 Alpha  occ. eigenvalues --   -0.55430  -0.55243  -0.53155  -0.52998  -0.52630
 Alpha  occ. eigenvalues --   -0.52513  -0.50028  -0.48819  -0.48817  -0.48047
 Alpha  occ. eigenvalues --   -0.46750  -0.45906  -0.45824  -0.44818  -0.43937
 Alpha  occ. eigenvalues --   -0.37351  -0.36339
 Alpha virt. eigenvalues --    0.05031   0.11261   0.16456   0.20733   0.22825
 Alpha virt. eigenvalues --    0.24091   0.26147   0.26532   0.27341   0.27999
 Alpha virt. eigenvalues --    0.28824   0.30489   0.31299   0.31622   0.32232

 Mulliken charges:
               1
     1  C   -0.170916
     2  C   -0.219731
     3  C   -0.168825
     4  C    0.156255
     5  C   -0.170855
     6  C   -0.219080
     7  H    0.225752
     8  H    0.223711
     9  H    0.279625
    10  H    0.275481
    11  H    0.223364
    12  N    0.488103
    13  O   -0.460329
    14  O   -0.460275
    15  C   -0.298964
    16  C   -0.301764
    17  C   -0.476653
    18  H    0.153152
    19  H    0.150856
    20  H    0.151185
    21  H    0.149187
    22  H    0.158588
    23  H    0.167338
    24  H    0.145453
    25  C   -0.298178
    26  C   -0.299958
    27  C   -0.475705
    28  H    0.148340
    29  H    0.148548
    30  H    0.153464
    31  H    0.152689
    32  H    0.154630
    33  H    0.154486
    34  H    0.161026
 Sum of Mulliken charges =  -0.00000

 Dipole moment (field-independent basis, Debye):
    X=              0.9010    Y=              4.8237    Z=              1.4850  Tot=              5.1269
 Quadrupole moment (field-independent basis, Debye-Ang):
   XX=           -100.1224   YY=            -95.3226   ZZ=            -91.6282
   XY=            -15.6368   XZ=             -2.1611   YZ=             -2.8765

 Normal termination of Gaussian 16 at Wed May  5 19:08:57 2021.
