 Gaussian 16, Revision A.03,
 Gaussian 16:  EM64L-G16RevA.03 25-Dec-2016

 -------------
 #p 6-31g* mp2
 -------------

 ------------------------------------------------------
 Input file generated by CHIRIPA (05-May-2021 14:51:09)
 ------------------------------------------------------
 Symbolic Z-matrix:
 Charge =  0 Multiplicity = 1

                         Standard orientation:
 ---------------------------------------------------------------------
 Center     Atomic      Atomic             Coordinates (Angstroms)
 Number     Number       Type             X           Y           Z
 ---------------------------------------------------------------------
      1          6           0       -3.601592    0.583143    0.098749
      2          6           0       -3.122509    2.014339   -0.146492
      3          6           0       -4.230529    3.049995    0.047171
      4          1           0       -4.435879    0.361033   -0.580645
      5          1           0       -4.001134    0.507489    1.119551
      6          1           0       -2.722720    2.086926   -1.166059
      7          1           0       -2.289140    2.233003    0.533432
      8          1           0       -4.624194    3.006704    1.067834
      9          1           0       -5.060237    2.859797   -0.641313
     10          1           0       -3.866214    4.066179   -0.133119
     11          6           0       -2.505215   -0.463606   -0.090991
     12          6           0       -2.984297   -1.894802    0.154251
     13          6           0       -1.876278   -2.930457   -0.039412
     14          1           0       -2.105673   -0.387951   -1.111793
     15          1           0       -1.670927   -0.241496    0.588404
     16          1           0       -3.817666   -2.113466   -0.525674
     17          1           0       -3.384087   -1.967389    1.173817
     18          1           0       -1.046569   -2.740260    0.649071
     19          1           0       -1.482613   -2.887167   -1.060076
     20          1           0       -2.240592   -3.946642    0.140878
     21          6           0        2.988454    0.696542   -0.088777
     22          6           0        4.297662    1.448514    0.153077
     23          6           0        4.151656    2.960582   -0.020494
     24          1           0        2.627997    0.917547   -1.102766
     25          1           0        2.223592    1.073916    0.604022
     26          1           0        5.060205    1.068871   -0.539033
     27          1           0        4.655143    1.225542    1.166540
     28          1           0        3.410792    3.359021    0.680197
     29          1           0        3.818156    3.201461   -1.035066
     30          1           0        5.099381    3.478428    0.157016
     31          6           0        3.118353   -0.816079    0.081019
     32          6           0        1.809143   -1.568051   -0.160836
     33          6           0        1.955151   -3.080119    0.012736
     34          1           0        3.883215   -1.193452   -0.611781
     35          1           0        3.478809   -1.037084    1.095007
     36          1           0        1.451663   -1.345079   -1.174298
     37          1           0        1.046602   -1.188409    0.531275
     38          1           0        2.288651   -3.320998    1.027308
     39          1           0        2.696014   -3.478559   -0.687956
     40          1           0        1.007425   -3.597966   -0.164774
 ---------------------------------------------------------------------

 SCF Done:  E(RHF) =  -470.732341688     A.U. after   11 cycles
 E2 =    -0.1583807368D+01 EUMP2 =    -0.47231614905573D+03

 The electronic state is 1-A.
 Alpha  occ. eigenvalues --  -11.21594 -11.21592 -11.21581 -11.21528 -11.21395
 Alpha  occ. eigenvalues --  -11.21369 -11.21336 -11.21308 -11.21066 -11.21056
 Alpha  occ. eigenvalues --  -11.21035 -11.20909  -1.08437  -1.08377  -1.03573
 Alpha  occ. eigenvalues --   -1.03437  -0.96051  -0.95860  -0.87073  -0.86873
 Alpha  occ. eigenvalues --   -0.79616  -0.79535  -0.78310  -0.78122  -0.65112
 Alpha  occ. eigenvalues --   -0.64974  -0.61041  -0.60787  -0.59457  -0.59256
 Alpha  occ. eigenvalues --   -0.57854  -0.57280  -0.55334  -0.55141  -0.52890
 Alpha  occ. eigenvalues --   -0.52624  -0.52483  -0.52012  -0.49921  -0.49858
 Alpha  occ. eigenvalues --   -0.47883  -0.47835  -0.46740  -0.46499  -0.45946
 Alpha  occ. eigenvalues --   -0.45760  -0.45657  -0.45438  -0.43818  -0.43686
 Alpha virt. eigenvalues --    0.21426   0.23212   0.23429   0.24817   0.25159
 Alpha virt. eigenvalues --    0.26652   0.26902   0.27288   0.28770   0.29456
 Alpha virt. eigenvalues --    0.29806   0.31081   0.31499   0.31562   0.32129

 Mulliken charges:
               1
     1  C   -0.298336
     2  C   -0.299445
     3  C   -0.475717
     4  H    0.149672
     5  H    0.149314
     6  H    0.152071
     7  H    0.151775
     8  H    0.155086
     9  H    0.155159
    10  H    0.160295
    11  C   -0.299379
    12  C   -0.300585
    13  C   -0.480057
    14  H    0.149885
    15  H    0.150913
    16  H    0.151717
    17  H    0.151598
    18  H    0.161677
    19  H    0.155530
    20  H    0.159732
    21  C   -0.297948
    22  C   -0.299618
    23  C   -0.475629
    24  H    0.149701
    25  H    0.148993
    26  H    0.151918
    27  H    0.151794
    28  H    0.155054
    29  H    0.155183
    30  H    0.160154
    31  C   -0.298166
    32  C   -0.301435
    33  C   -0.482909
    34  H    0.149483
    35  H    0.149258
    36  H    0.151920
    37  H    0.153610
    38  H    0.153705
    39  H    0.154535
    40  H    0.169492
 Sum of Mulliken charges =  -0.00000

 Dipole moment (field-independent basis, Debye):
    X=             -0.0255    Y=             -0.0139    Z=             -0.0099  Tot=              0.0307
 Quadrupole moment (field-independent basis, Debye-Ang):
   XX=            -85.3786   YY=            -86.7638   ZZ=            -82.8053
   XY=              0.5801   XZ=              0.0787   YZ=              0.1898

 Normal termination of Gaussian 16 at Wed May  5 22:57:48 2021.
