 Gaussian 16, Revision A.03,
 Gaussian 16:  EM64L-G16RevA.03 25-Dec-2016

 -------------
 #p 6-31g* mp2
 -------------

 ------------------------------------------------------
 Input file generated by CHIRIPA (05-May-2021 14:51:12)
 ------------------------------------------------------
 Symbolic Z-matrix:
 Charge =  0 Multiplicity = 1

                         Standard orientation:
 ---------------------------------------------------------------------
 Center     Atomic      Atomic             Coordinates (Angstroms)
 Number     Number       Type             X           Y           Z
 ---------------------------------------------------------------------
      1          6           0       -3.192248    0.298277   -0.412264
      2          6           0       -2.924195   -1.199374   -0.260040
      3          6           0       -4.016964   -2.062659   -0.891222
      4          1           0       -4.161685    0.539129    0.045042
      5          1           0       -3.281497    0.541020   -1.480208
      6          1           0       -2.834103   -1.438978    0.807241
      7          1           0       -1.955196   -1.436656   -0.717593
      8          1           0       -4.103374   -1.852547   -1.962197
      9          1           0       -4.987275   -1.854883   -0.428699
     10          1           0       -3.805274   -3.129689   -0.770830
     11          6           0       -2.108570    1.174372    0.213698
     12          6           0       -2.376623    2.672024    0.061474
     13          6           0       -1.283855    3.535309    0.692656
     14          1           0       -2.019321    0.931630    1.281642
     15          1           0       -1.139134    0.933521   -0.243608
     16          1           0       -3.345622    2.909306    0.519027
     17          1           0       -2.466716    2.911628   -1.005807
     18          1           0       -0.313544    3.327533    0.230133
     19          1           0       -1.197444    3.325197    1.763631
     20          1           0       -1.495544    4.602339    0.572264
     21          6           0        2.373746   -1.446939    0.143068
     22          6           0        0.993281   -1.521000    0.796381
     23          6           0        0.453156   -2.949145    0.876749
     24          1           0        2.318174   -1.876810   -0.866421
     25          1           0        3.074825   -2.073644    0.711508
     26          1           0        0.295338   -0.893246    0.227685
     27          1           0        1.052103   -1.090728    1.804361
     28          1           0        1.126898   -3.583467    1.461820
     29          1           0        0.365832   -3.384863   -0.123814
     30          1           0       -0.534627   -2.978906    1.347133
     31          6           0        2.927073   -0.025711    0.055497
     32          6           0        4.307537    0.048350   -0.597815
     33          6           0        4.847662    1.476495   -0.678183
     34          1           0        2.225993    0.600994   -0.512941
     35          1           0        2.982645    0.404160    1.064986
     36          1           0        4.248716   -0.381922   -1.605795
     37          1           0        5.005480   -0.579404   -0.029119
     38          1           0        4.934986    1.912213    0.322380
     39          1           0        4.173921    2.110817   -1.263255
     40          1           0        5.835444    1.506257   -1.148567
 ---------------------------------------------------------------------

 SCF Done:  E(RHF) =  -470.732356130     A.U. after   11 cycles
 E2 =    -0.1584545093D+01 EUMP2 =    -0.47231690122290D+03

 The electronic state is 1-A.
 Alpha  occ. eigenvalues --  -11.21607 -11.21598 -11.21595 -11.21468 -11.21413
 Alpha  occ. eigenvalues --  -11.21388 -11.21353 -11.21316 -11.21073 -11.21069
 Alpha  occ. eigenvalues --  -11.21066 -11.20984  -1.08476  -1.08373  -1.03560
 Alpha  occ. eigenvalues --   -1.03466  -0.95990  -0.95942  -0.87018  -0.86944
 Alpha  occ. eigenvalues --   -0.79613  -0.79566  -0.78434  -0.78047  -0.65228
 Alpha  occ. eigenvalues --   -0.64908  -0.61021  -0.60824  -0.59467  -0.59206
 Alpha  occ. eigenvalues --   -0.57621  -0.57533  -0.55281  -0.55238  -0.52700
 Alpha  occ. eigenvalues --   -0.52612  -0.52469  -0.52313  -0.49961  -0.49862
 Alpha  occ. eigenvalues --   -0.48001  -0.47818  -0.46798  -0.46635  -0.46149
 Alpha  occ. eigenvalues --   -0.45767  -0.45696  -0.45012  -0.43789  -0.43736
 Alpha virt. eigenvalues --    0.21027   0.22725   0.23468   0.24382   0.25310
 Alpha virt. eigenvalues --    0.26236   0.27053   0.27553   0.28023   0.29752
 Alpha virt. eigenvalues --    0.30190   0.31438   0.31700   0.31878   0.32368

 Mulliken charges:
               1
     1  C   -0.298462
     2  C   -0.303695
     3  C   -0.475830
     4  H    0.149662
     5  H    0.148992
     6  H    0.152460
     7  H    0.156960
     8  H    0.154930
     9  H    0.155082
    10  H    0.160704
    11  C   -0.302147
    12  C   -0.299152
    13  C   -0.475676
    14  H    0.150270
    15  H    0.152759
    16  H    0.151975
    17  H    0.151587
    18  H    0.155389
    19  H    0.155331
    20  H    0.160192
    21  C   -0.297619
    22  C   -0.309401
    23  C   -0.476448
    24  H    0.148707
    25  H    0.149362
    26  H    0.162771
    27  H    0.151258
    28  H    0.154394
    29  H    0.153729
    30  H    0.162865
    31  C   -0.298440
    32  C   -0.299604
    33  C   -0.475653
    34  H    0.148218
    35  H    0.150122
    36  H    0.151757
    37  H    0.152147
    38  H    0.155371
    39  H    0.154882
    40  H    0.160250
 Sum of Mulliken charges =  -0.00000

 Dipole moment (field-independent basis, Debye):
    X=             -0.0303    Y=              0.0100    Z=              0.0119  Tot=              0.0341
 Quadrupole moment (field-independent basis, Debye-Ang):
   XX=            -85.1904   YY=            -86.3981   ZZ=            -83.3200
   XY=             -1.0278   XZ=             -0.2864   YZ=             -0.2613

 Normal termination of Gaussian 16 at Wed May  5 15:18:26 2021.
