 Gaussian 16, Revision A.03,
 Gaussian 16:  EM64L-G16RevA.03 25-Dec-2016

 -------------
 #p 6-31g* mp2
 -------------

 ------------------------------------------------------
 Input file generated by CHIRIPA (05-May-2021 14:51:07)
 ------------------------------------------------------
 Symbolic Z-matrix:
 Charge =  0 Multiplicity = 1

                         Standard orientation:
 ---------------------------------------------------------------------
 Center     Atomic      Atomic             Coordinates (Angstroms)
 Number     Number       Type             X           Y           Z
 ---------------------------------------------------------------------
      1          6           0        1.745479   -0.990544    0.298050
      2          6           0        1.960028   -1.725465    1.621623
      3          6           0        0.871163   -2.760390    1.906401
      4          1           0        0.764041   -0.497145    0.314835
      5          1           0        1.712642   -1.724022   -0.519462
      6          1           0        1.993834   -0.990701    2.436236
      7          1           0        2.941151   -2.217013    1.601760
      8          1           0        0.840293   -3.515121    1.113918
      9          1           0       -0.112406   -2.281841    1.953134
     10          1           0        1.044155   -3.273849    2.857344
     11          6           0        2.825900    0.047336   -0.000655
     12          6           0        2.611351    0.782258   -1.324228
     13          6           0        3.700216    1.817182   -1.609006
     14          1           0        2.858737    0.780814    0.816857
     15          1           0        3.807338   -0.446063   -0.017440
     16          1           0        1.630228    1.273805   -1.304365
     17          1           0        2.577545    0.047493   -2.138841
     18          1           0        4.683785    1.338633   -1.655740
     19          1           0        3.731086    2.571913   -0.816523
     20          1           0        3.527224    2.330641   -2.559950
     21          6           0       -2.208087    0.084709   -0.802702
     22          6           0       -2.881986   -1.287619   -0.779013
     23          6           0       -2.718005   -2.049512   -2.094469
     24          1           0       -2.627807    0.678076   -1.626532
     25          1           0       -1.139130   -0.043210   -1.022619
     26          1           0       -3.949087   -1.157257   -0.557839
     27          1           0       -2.460748   -1.877719    0.044975
     28          1           0       -1.658137   -2.208856   -2.317828
     29          1           0       -3.154932   -1.484300   -2.924067
     30          1           0       -3.207310   -3.027737   -2.055523
     31          6           0       -2.363293    0.858499    0.505307
     32          6           0       -1.689393    2.230827    0.481618
     33          6           0       -1.853373    2.992720    1.797074
     34          1           0       -3.432249    0.986417    0.725224
     35          1           0       -1.943572    0.265132    1.329137
     36          1           0       -2.110630    2.820927   -0.342369
     37          1           0       -0.622292    2.100464    0.260443
     38          1           0       -1.416448    2.427508    2.626672
     39          1           0       -2.913242    3.152063    2.020433
     40          1           0       -1.364069    3.970944    1.758128
 ---------------------------------------------------------------------

 SCF Done:  E(RHF) =  -470.733149993     A.U. after   11 cycles
 E2 =    -0.1584796541D+01 EUMP2 =    -0.47231794653413D+03

 The electronic state is 1-A.
 Alpha  occ. eigenvalues --  -11.21678 -11.21674 -11.21658 -11.21574 -11.21472
 Alpha  occ. eigenvalues --  -11.21435 -11.21412 -11.21324 -11.21158 -11.21128
 Alpha  occ. eigenvalues --  -11.21107 -11.21037  -1.08538  -1.08423  -1.03597
 Alpha  occ. eigenvalues --   -1.03543  -0.96053  -0.95988  -0.87062  -0.87008
 Alpha  occ. eigenvalues --   -0.79664  -0.79607  -0.78435  -0.78168  -0.65451
 Alpha  occ. eigenvalues --   -0.64801  -0.61028  -0.60910  -0.59409  -0.59360
 Alpha  occ. eigenvalues --   -0.57679  -0.57588  -0.55409  -0.55221  -0.52739
 Alpha  occ. eigenvalues --   -0.52687  -0.52493  -0.52396  -0.50015  -0.49920
 Alpha  occ. eigenvalues --   -0.48034  -0.47874  -0.46743  -0.46598  -0.46420
 Alpha  occ. eigenvalues --   -0.45806  -0.45747  -0.45122  -0.43849  -0.43794
 Alpha virt. eigenvalues --    0.18864   0.21747   0.24002   0.24190   0.25101
 Alpha virt. eigenvalues --    0.25886   0.26853   0.27812   0.28645   0.30553
 Alpha virt. eigenvalues --    0.31231   0.31534   0.31639   0.31874   0.32148

 Mulliken charges:
               1
     1  C   -0.307672
     2  C   -0.299076
     3  C   -0.478394
     4  H    0.159050
     5  H    0.149151
     6  H    0.151883
     7  H    0.152489
     8  H    0.155723
     9  H    0.156386
    10  H    0.160897
    11  C   -0.297551
    12  C   -0.304797
    13  C   -0.475569
    14  H    0.149436
    15  H    0.150091
    16  H    0.155870
    17  H    0.152106
    18  H    0.155387
    19  H    0.155299
    20  H    0.160645
    21  C   -0.304840
    22  C   -0.301276
    23  C   -0.475787
    24  H    0.149811
    25  H    0.156061
    26  H    0.151781
    27  H    0.153788
    28  H    0.155729
    29  H    0.154960
    30  H    0.160134
    31  C   -0.299980
    32  C   -0.304093
    33  C   -0.475565
    34  H    0.150386
    35  H    0.149461
    36  H    0.152660
    37  H    0.154397
    38  H    0.154958
    39  H    0.155668
    40  H    0.160394
 Sum of Mulliken charges =  -0.00000

 Dipole moment (field-independent basis, Debye):
    X=              0.0201    Y=             -0.0007    Z=             -0.0058  Tot=              0.0209
 Quadrupole moment (field-independent basis, Debye-Ang):
   XX=            -84.1973   YY=            -85.1168   ZZ=            -85.3240
   XY=             -1.3339   XZ=              0.2968   YZ=             -0.1439

 Normal termination of Gaussian 16 at Wed May  5 15:03:07 2021.
