 Gaussian 16, Revision A.03,
 Gaussian 16:  EM64L-G16RevA.03 25-Dec-2016

 -------------
 #p 6-31g* mp2
 -------------

 ------------------------------------------------------
 Input file generated by CHIRIPA (05-May-2021 14:53:12)
 ------------------------------------------------------
 Symbolic Z-matrix:
 Charge =  0 Multiplicity = 1

                         Standard orientation:
 ---------------------------------------------------------------------
 Center     Atomic      Atomic             Coordinates (Angstroms)
 Number     Number       Type             X           Y           Z
 ---------------------------------------------------------------------
      1          6           0       -3.231299   -0.020885    0.237455
      2          6           0       -3.853954   -1.091763   -0.658931
      3          6           0       -4.191760   -2.375101    0.100493
      4          1           0       -2.321001   -0.424305    0.701733
      5          1           0       -3.924994    0.209291    1.057944
      6          1           0       -3.159881   -1.318853   -1.478266
      7          1           0       -4.762771   -0.685682   -1.121279
      8          1           0       -4.902582   -2.169492    0.907375
      9          1           0       -3.290584   -2.806260    0.548360
     10          1           0       -4.635733   -3.127009   -0.559343
     11          6           0       -2.888051    1.267983   -0.507347
     12          6           0       -2.265397    2.338861    0.389039
     13          6           0       -1.927590    3.622199   -0.370385
     14          1           0       -2.194357    1.037807   -1.327836
     15          1           0       -3.798350    1.671403   -0.971625
     16          1           0       -1.356580    1.932780    0.851387
     17          1           0       -2.959470    2.565951    1.208374
     18          1           0       -2.828766    4.053358   -0.818252
     19          1           0       -1.216769    3.416590   -1.177267
     20          1           0       -1.483618    4.374107    0.289451
     21          6           0        0.223000   -1.685029    0.588650
     22          6           0        0.762791   -0.806148    1.533487
     23          6           0        1.963090   -0.137004    1.276431
     24          6           0        2.599905   -0.371341    0.058710
     25          6           0        2.087353   -1.240919   -0.902754
     26          6           0        0.885835   -1.899232   -0.624316
     27          1           0       -0.709894   -2.200629    0.796643
     28          1           0        0.250206   -0.637860    2.476344
     29          1           0        2.403262    0.548754    1.990155
     30          1           0        2.621308   -1.388288   -1.833665
     31          1           0        0.468962   -2.581221   -1.359947
     32          7           0        3.871252    0.331318   -0.224742
     33          8           0        4.412883    0.107654   -1.305134
     34          8           0        4.302032    1.092422    0.638848
 ---------------------------------------------------------------------

 SCF Done:  E(RHF) =  -669.534902659     A.U. after   15 cycles
 E2 =    -0.2093572061D+01 EUMP2 =    -0.67162847472051D+03

 The electronic state is 1-A.
 Alpha  occ. eigenvalues --  -20.60829 -20.60823 -15.85884 -11.31280 -11.27866
 Alpha  occ. eigenvalues --  -11.27861 -11.27592 -11.26882 -11.26865 -11.22464
 Alpha  occ. eigenvalues --  -11.22130 -11.22111 -11.21990 -11.21874 -11.21309
 Alpha  occ. eigenvalues --   -1.59904  -1.39457  -1.19467  -1.09101  -1.08838
 Alpha  occ. eigenvalues --   -1.04870  -1.04169  -0.96618  -0.95687  -0.87632
 Alpha  occ. eigenvalues --   -0.86265  -0.82518  -0.80247  -0.78877  -0.77548
 Alpha  occ. eigenvalues --   -0.72102  -0.71228  -0.70624  -0.65740  -0.65116
 Alpha  occ. eigenvalues --   -0.64840  -0.62211  -0.61574  -0.60011  -0.58218
 Alpha  occ. eigenvalues --   -0.55942  -0.55381  -0.53318  -0.53198  -0.53025
 Alpha  occ. eigenvalues --   -0.52953  -0.50577  -0.48866  -0.48855  -0.48550
 Alpha  occ. eigenvalues --   -0.47284  -0.46408  -0.46301  -0.44856  -0.44401
 Alpha  occ. eigenvalues --   -0.37379  -0.36462
 Alpha virt. eigenvalues --    0.04946   0.11071   0.16317   0.19123   0.22930
 Alpha virt. eigenvalues --    0.23449   0.25537   0.26175   0.26660   0.28019
 Alpha virt. eigenvalues --    0.29048   0.30194   0.31042   0.31408   0.32069

 Mulliken charges:
               1
     1  C   -0.301878
     2  C   -0.301499
     3  C   -0.476941
     4  H    0.144586
     5  H    0.150481
     6  H    0.149857
     7  H    0.157047
     8  H    0.159665
     9  H    0.144244
    10  H    0.164271
    11  C   -0.297450
    12  C   -0.301927
    13  C   -0.476184
    14  H    0.151609
    15  H    0.151176
    16  H    0.151878
    17  H    0.150855
    18  H    0.155445
    19  H    0.157833
    20  H    0.162086
    21  C   -0.172686
    22  C   -0.219538
    23  C   -0.171170
    24  C    0.158438
    25  C   -0.170513
    26  C   -0.222435
    27  H    0.232826
    28  H    0.225469
    29  H    0.276285
    30  H    0.276083
    31  H    0.224282
    32  N    0.488048
    33  O   -0.460190
    34  O   -0.460056
 Sum of Mulliken charges =  -0.00000

 Dipole moment (field-independent basis, Debye):
    X=             -4.5013    Y=             -2.4068    Z=              0.9405  Tot=              5.1903
 Quadrupole moment (field-independent basis, Debye-Ang):
   XX=           -117.5952   YY=            -93.2662   ZZ=            -90.9162
   XY=             -5.6158   XZ=              2.2061   YZ=              2.2888

 Normal termination of Gaussian 16 at Thu May  6 07:16:57 2021.
