 Gaussian 16, Revision A.03,
 Gaussian 16:  EM64L-G16RevA.03 25-Dec-2016

 -------------
 #p 6-31g* mp2
 -------------

 ------------------------------------------------------
 Input file generated by CHIRIPA (05-May-2021 14:55:22)
 ------------------------------------------------------
 Symbolic Z-matrix:
 Charge =  0 Multiplicity = 1

                         Standard orientation:
 ---------------------------------------------------------------------
 Center     Atomic      Atomic             Coordinates (Angstroms)
 Number     Number       Type             X           Y           Z
 ---------------------------------------------------------------------
      1          6           0       -0.887983   -1.152465    0.189894
      2          6           0       -1.935205   -1.893358    0.747499
      3          6           0       -3.257629   -1.456509    0.625403
      4          6           0       -3.497808   -0.268914   -0.063961
      5          6           0       -2.475989    0.491434   -0.630571
      6          6           0       -1.161235    0.035472   -0.496152
      7          1           0        0.136329   -1.499243    0.289528
      8          1           0       -1.725960   -2.816298    1.280832
      9          1           0       -4.087373   -2.010514    1.047328
     10          1           0       -2.715830    1.407545   -1.156533
     11          1           0       -0.349942    0.612911   -0.930218
     12          7           0       -4.893738    0.203675   -0.199741
     13          8           0       -5.078950    1.253258   -0.811876
     14          8           0       -5.776226   -0.484441    0.308540
     15          6           0        3.936870    1.049173    0.449015
     16          6           0        2.587057    1.581513   -0.033276
     17          6           0        2.108557    2.792416    0.768312
     18          1           0        3.859353    0.780089    1.511338
     19          1           0        4.684313    1.851951    0.383651
     20          1           0        1.842693    0.777573    0.031675
     21          1           0        2.667742    1.849181   -1.094624
     22          1           0        2.829662    3.612853    0.694206
     23          1           0        1.999924    2.535157    1.826905
     24          1           0        1.141883    3.156681    0.406770
     25          6           0        4.428548   -0.161357   -0.342565
     26          6           0        5.778361   -0.693697    0.139727
     27          6           0        6.256860   -1.904601   -0.661862
     28          1           0        3.681105   -0.964135   -0.277201
     29          1           0        4.506065    0.107726   -1.404887
     30          1           0        5.697675   -0.961366    1.201075
     31          1           0        6.522725    0.110242    0.074776
     32          1           0        6.365494   -1.647342   -1.720454
     33          1           0        5.535756   -2.725039   -0.587756
     34          1           0        7.223535   -2.268866   -0.300320
 ---------------------------------------------------------------------

 SCF Done:  E(RHF) =  -669.535324268     A.U. after   15 cycles
 E2 =    -0.2091681891D+01 EUMP2 =    -0.67162700615854D+03

 The electronic state is 1-A.
 Alpha  occ. eigenvalues --  -20.60740 -20.60735 -15.85792 -11.31157 -11.27725
 Alpha  occ. eigenvalues --  -11.27709 -11.27467 -11.26748 -11.26686 -11.22747
 Alpha  occ. eigenvalues --  -11.22344 -11.22310 -11.22253 -11.21953 -11.21711
 Alpha  occ. eigenvalues --   -1.59815  -1.39368  -1.19326  -1.09343  -1.08724
 Alpha  occ. eigenvalues --   -1.04730  -1.04396  -0.96811  -0.95561  -0.87823
 Alpha  occ. eigenvalues --   -0.86132  -0.82390  -0.80496  -0.79164  -0.77433
 Alpha  occ. eigenvalues --   -0.72011  -0.71138  -0.70448  -0.65999  -0.64978
 Alpha  occ. eigenvalues --   -0.64742  -0.62150  -0.61725  -0.60179  -0.58433
 Alpha  occ. eigenvalues --   -0.56081  -0.55234  -0.53503  -0.53230  -0.53054
 Alpha  occ. eigenvalues --   -0.52819  -0.50743  -0.48836  -0.48766  -0.48717
 Alpha  occ. eigenvalues --   -0.47520  -0.46683  -0.46610  -0.44774  -0.44652
 Alpha  occ. eigenvalues --   -0.37306  -0.36324
 Alpha virt. eigenvalues --    0.05089   0.11260   0.16571   0.19342   0.22339
 Alpha virt. eigenvalues --    0.23528   0.24640   0.25786   0.26325   0.28290
 Alpha virt. eigenvalues --    0.29430   0.30018   0.30911   0.31246   0.32061

 Mulliken charges:
               1
     1  C   -0.173159
     2  C   -0.218516
     3  C   -0.171179
     4  C    0.158717
     5  C   -0.171850
     6  C   -0.222015
     7  H    0.225544
     8  H    0.223182
     9  H    0.275468
    10  H    0.275514
    11  H    0.230807
    12  N    0.488039
    13  O   -0.460435
    14  O   -0.460509
    15  C   -0.298504
    16  C   -0.305591
    17  C   -0.475675
    18  H    0.151334
    19  H    0.153935
    20  H    0.142693
    21  H    0.153430
    22  H    0.159824
    23  H    0.158712
    24  H    0.159674
    25  C   -0.297608
    26  C   -0.300333
    27  C   -0.476001
    28  H    0.142421
    29  H    0.151657
    30  H    0.152664
    31  H    0.154503
    32  H    0.156497
    33  H    0.153982
    34  H    0.162781
 Sum of Mulliken charges =  -0.00000

 Dipole moment (field-independent basis, Debye):
    X=              5.1430    Y=             -1.5764    Z=              0.5140  Tot=              5.4037
 Quadrupole moment (field-independent basis, Debye-Ang):
   XX=           -128.2782   YY=            -91.0513   ZZ=            -93.9027
   XY=              6.9594   XZ=             -2.9582   YZ=             -3.1892

 Normal termination of Gaussian 16 at Thu May  6 14:12:14 2021.
