 Gaussian 16, Revision A.03,
 Gaussian 16:  EM64L-G16RevA.03 25-Dec-2016

 -------------
 #p 6-31g* mp2
 -------------

 ------------------------------------------------------
 Input file generated by CHIRIPA (05-May-2021 14:51:11)
 ------------------------------------------------------
 Symbolic Z-matrix:
 Charge =  0 Multiplicity = 1

                         Standard orientation:
 ---------------------------------------------------------------------
 Center     Atomic      Atomic             Coordinates (Angstroms)
 Number     Number       Type             X           Y           Z
 ---------------------------------------------------------------------
      1          6           0        2.958801    0.176251    0.061905
      2          6           0        2.947036   -0.980378   -0.938122
      3          6           0        3.828346   -2.150225   -0.499322
      4          1           0        3.991850    0.524449    0.197971
      5          1           0        2.621308   -0.191222    1.040913
      6          1           0        3.283131   -0.610523   -1.915293
      7          1           0        1.913871   -1.325738   -1.071968
      8          1           0        3.491044   -2.546546    0.463880
      9          1           0        4.868083   -1.827268   -0.384237
     10          1           0        3.805217   -2.965934   -1.228668
     11          6           0        2.082432    1.353249   -0.362807
     12          6           0        2.094198    2.509879    0.637220
     13          6           0        1.212888    3.679726    0.198421
     14          1           0        2.419926    1.720723   -1.341815
     15          1           0        1.049384    1.005051   -0.498873
     16          1           0        3.127363    2.855238    0.771066
     17          1           0        1.758103    2.140024    1.614391
     18          1           0        0.173151    3.356769    0.083335
     19          1           0        1.550190    4.076047   -0.764782
     20          1           0        1.236017    4.495435    0.927766
     21          6           0       -3.049886   -0.554902   -0.358734
     22          6           0       -4.118661    0.370409    0.223937
     23          6           0       -5.170433    0.781526   -0.806866
     24          1           0       -2.560114   -0.052347   -1.204020
     25          1           0       -3.534864   -1.452369   -0.767075
     26          1           0       -3.631682    1.265233    0.632296
     27          1           0       -4.605815   -0.134331    1.068054
     28          1           0       -5.682661   -0.099450   -1.206997
     29          1           0       -4.702994    1.308067   -1.645231
     30          1           0       -5.924667    1.442811   -0.369038
     31          6           0       -1.991348   -0.974599    0.659636
     32          6           0       -0.922573   -1.899910    0.076965
     33          6           0        0.129199   -2.311026    1.107767
     34          1           0       -1.506370   -0.077131    1.067976
     35          1           0       -2.481119   -1.477154    1.504922
     36          1           0       -0.435420   -1.395169   -0.767152
     37          1           0       -1.409551   -2.794734   -0.331395
     38          1           0       -0.338240   -2.837568    1.946133
     39          1           0        0.641427   -1.430051    1.507899
     40          1           0        0.883433   -2.972312    0.669940
 ---------------------------------------------------------------------

 SCF Done:  E(RHF) =  -470.731718059     A.U. after   11 cycles
 E2 =    -0.1585687559D+01 EUMP2 =    -0.47231740561787D+03

 The electronic state is 1-A.
 Alpha  occ. eigenvalues --  -11.21681 -11.21646 -11.21645 -11.21508 -11.21478
 Alpha  occ. eigenvalues --  -11.21423 -11.21413 -11.21328 -11.21120 -11.21112
 Alpha  occ. eigenvalues --  -11.21098 -11.21020  -1.08546  -1.08398  -1.03662
 Alpha  occ. eigenvalues --   -1.03470  -0.96055  -0.95980  -0.87077  -0.86990
 Alpha  occ. eigenvalues --   -0.79716  -0.79562  -0.78375  -0.78187  -0.65566
 Alpha  occ. eigenvalues --   -0.64768  -0.61327  -0.60684  -0.59385  -0.59307
 Alpha  occ. eigenvalues --   -0.57673  -0.57592  -0.55377  -0.55207  -0.52716
 Alpha  occ. eigenvalues --   -0.52670  -0.52507  -0.52354  -0.50148  -0.49786
 Alpha  occ. eigenvalues --   -0.47990  -0.47888  -0.46997  -0.46521  -0.46028
 Alpha  occ. eigenvalues --   -0.45871  -0.45619  -0.45332  -0.43838  -0.43780
 Alpha virt. eigenvalues --    0.19242   0.22552   0.23815   0.24655   0.25806
 Alpha virt. eigenvalues --    0.26035   0.26904   0.27593   0.28645   0.29924
 Alpha virt. eigenvalues --    0.30901   0.31163   0.31797   0.32033   0.32400

 Mulliken charges:
               1
     1  C   -0.301022
     2  C   -0.306818
     3  C   -0.477942
     4  H    0.150041
     5  H    0.152340
     6  H    0.151598
     7  H    0.160944
     8  H    0.157387
     9  H    0.155084
    10  H    0.159480
    11  C   -0.302276
    12  C   -0.299478
    13  C   -0.475589
    14  H    0.149932
    15  H    0.151486
    16  H    0.152514
    17  H    0.151289
    18  H    0.154362
    19  H    0.155439
    20  H    0.160548
    21  C   -0.298614
    22  C   -0.299659
    23  C   -0.475784
    24  H    0.149764
    25  H    0.149890
    26  H    0.151818
    27  H    0.152098
    28  H    0.155264
    29  H    0.155396
    30  H    0.160464
    31  C   -0.298904
    32  C   -0.306156
    33  C   -0.483748
    34  H    0.149436
    35  H    0.150255
    36  H    0.156506
    37  H    0.152812
    38  H    0.156209
    39  H    0.159071
    40  H    0.164566
 Sum of Mulliken charges =  -0.00000

 Dipole moment (field-independent basis, Debye):
    X=             -0.0243    Y=             -0.0220    Z=              0.0065  Tot=              0.0334
 Quadrupole moment (field-independent basis, Debye-Ang):
   XX=            -84.9107   YY=            -84.9029   ZZ=            -84.9336
   XY=              1.7002   XZ=             -1.1017   YZ=             -0.0258

 Normal termination of Gaussian 16 at Wed May  5 23:04:50 2021.
