 Gaussian 16, Revision A.03,
 Gaussian 16:  EM64L-G16RevA.03 25-Dec-2016

 -------------
 #p 6-31g* mp2
 -------------

 ------------------------------------------------------
 Input file generated by CHIRIPA (05-May-2021 14:57:26)
 ------------------------------------------------------
 Symbolic Z-matrix:
 Charge =  0 Multiplicity = 1

                         Standard orientation:
 ---------------------------------------------------------------------
 Center     Atomic      Atomic             Coordinates (Angstroms)
 Number     Number       Type             X           Y           Z
 ---------------------------------------------------------------------
      1          6           0        5.686070   -1.312183   -0.025658
      2          6           0        4.443225   -1.809933   -0.430753
      3          6           0        3.334574   -0.963058   -0.521553
      4          6           0        3.505322    0.382168   -0.198285
      5          6           0        4.730584    0.908080    0.208458
      6          6           0        5.825537    0.042846    0.292095
      7          1           0        6.541976   -1.977187    0.042096
      8          1           0        4.331973   -2.861820   -0.678142
      9          1           0        2.360921   -1.321935   -0.832397
     10          1           0        4.810501    1.961354    0.448554
     11          1           0        6.789543    0.432179    0.606987
     12          7           0        2.338893    1.288435   -0.290620
     13          8           0        2.515482    2.469613   -0.000322
     14          8           0        1.270145    0.800429   -0.651541
     15          6           0       -5.966314    0.527141   -0.617665
     16          6           0       -5.614728   -0.824712   -0.691152
     17          6           0       -4.360400   -1.257093   -0.250407
     18          6           0       -3.478229   -0.306274    0.260479
     19          6           0       -3.799186    1.047549    0.346734
     20          6           0       -5.059021    1.457318   -0.099870
     21          1           0       -6.942845    0.854242   -0.962322
     22          1           0       -6.317329   -1.549324   -1.092816
     23          1           0       -4.062328   -2.297531   -0.295794
     24          1           0       -3.077566    1.746429    0.752011
     25          1           0       -5.329354    2.507827   -0.041593
     26          7           0       -2.147413   -0.752046    0.730178
     27          8           0       -1.388146    0.105425    1.176150
     28          8           0       -1.888787   -1.950475    0.643460
 ---------------------------------------------------------------------

 SCF Done:  E(RHF) =  -868.337179441     A.U. after   16 cycles
 E2 =    -0.2599705321D+01 EUMP2 =    -0.87093688476181D+03

 The electronic state is 1-A.
 Alpha  occ. eigenvalues --  -20.59995 -20.59838 -20.59821 -20.59700 -15.84957
 Alpha  occ. eigenvalues --  -15.84807 -11.30481 -11.30321 -11.27116 -11.27021
 Alpha  occ. eigenvalues --  -11.26958 -11.26880 -11.26861 -11.26733 -11.26169
 Alpha  occ. eigenvalues --  -11.26110 -11.26015 -11.25955  -1.58978  -1.58824
 Alpha  occ. eigenvalues --   -1.38529  -1.38371  -1.18676  -1.18520  -1.08050
 Alpha  occ. eigenvalues --   -1.07897  -1.04105  -1.03947  -0.94861  -0.94700
 Alpha  occ. eigenvalues --   -0.85498  -0.85341  -0.81696  -0.81529  -0.76703
 Alpha  occ. eigenvalues --   -0.76548  -0.71258  -0.71008  -0.70297  -0.70093
 Alpha  occ. eigenvalues --   -0.69796  -0.69642  -0.64333  -0.64177  -0.64120
 Alpha  occ. eigenvalues --   -0.63965  -0.61448  -0.61288  -0.54624  -0.54473
 Alpha  occ. eigenvalues --   -0.52427  -0.52270  -0.52205  -0.52048  -0.47994
 Alpha  occ. eigenvalues --   -0.47946  -0.47812  -0.47772  -0.44055  -0.43535
 Alpha  occ. eigenvalues --   -0.36676  -0.36522  -0.35715  -0.35555
 Alpha virt. eigenvalues --    0.05765   0.06085   0.11937   0.12096   0.17232
 Alpha virt. eigenvalues --    0.17514   0.22020   0.22172   0.27919   0.28075
 Alpha virt. eigenvalues --    0.28943   0.29104   0.31540   0.31698   0.33242

 Mulliken charges:
               1
     1  C   -0.171505
     2  C   -0.219061
     3  C   -0.168714
     4  C    0.159182
     5  C   -0.171566
     6  C   -0.218972
     7  H    0.222675
     8  H    0.222367
     9  H    0.281320
    10  H    0.273348
    11  H    0.220299
    12  N    0.488605
    13  O   -0.467512
    14  O   -0.450642
    15  C   -0.171472
    16  C   -0.218850
    17  C   -0.171739
    18  C    0.159508
    19  C   -0.169086
    20  C   -0.218960
    21  H    0.223193
    22  H    0.220514
    23  H    0.272792
    24  H    0.280687
    25  H    0.222670
    26  N    0.488612
    27  O   -0.447003
    28  O   -0.470689
 Sum of Mulliken charges =  -0.00000

 Dipole moment (field-independent basis, Debye):
    X=             -0.6341    Y=             -1.5311    Z=             -1.2923  Tot=              2.1015
 Quadrupole moment (field-independent basis, Debye-Ang):
   XX=            -44.9880   YY=           -101.6581   ZZ=           -106.7718
   XY=            -10.7366   XZ=              6.2686   YZ=              4.4786

 Normal termination of Gaussian 16 at Fri May  7 11:12:36 2021.
