 Gaussian 16, Revision A.03,
 Gaussian 16:  EM64L-G16RevA.03 25-Dec-2016

 -------------
 #p 6-31g* mp2
 -------------

 ------------------------------------------------------
 Input file generated by CHIRIPA (05-May-2021 14:53:11)
 ------------------------------------------------------
 Symbolic Z-matrix:
 Charge =  0 Multiplicity = 1

                         Standard orientation:
 ---------------------------------------------------------------------
 Center     Atomic      Atomic             Coordinates (Angstroms)
 Number     Number       Type             X           Y           Z
 ---------------------------------------------------------------------
      1          6           0        2.791661   -0.027558   -0.636654
      2          6           0        3.297656   -1.327256   -0.009965
      3          6           0        3.727609   -2.358584   -1.053659
      4          1           0        1.946409   -0.253141   -1.301189
      5          1           0        3.582289    0.398049   -1.270026
      6          1           0        2.506796   -1.749566    0.623131
      7          1           0        4.141678   -1.098529    0.653303
      8          1           0        4.533533   -1.960952   -1.678938
      9          1           0        2.889362   -2.615687   -1.709282
     10          1           0        4.085818   -3.279894   -0.583836
     11          6           0        2.358133    1.013350    0.394023
     12          6           0        1.852138    2.313048   -0.232666
     13          6           0        1.422185    3.344376    0.811028
     14          1           0        1.567505    0.587743    1.027395
     15          1           0        3.203385    1.238932    1.058558
     16          1           0        1.008115    2.084321   -0.895934
     17          1           0        2.642998    2.735358   -0.865762
     18          1           0        2.260432    3.601479    1.466651
     19          1           0        0.616260    2.946743    1.436307
     20          1           0        1.063976    4.265686    0.341205
     21          6           0       -1.368612   -2.659681    0.977165
     22          6           0       -0.832755   -1.506036    1.558956
     23          6           0       -1.181969   -0.240531    1.078229
     24          6           0       -2.073804   -0.165174    0.009472
     25          6           0       -2.624639   -1.296051   -0.591352
     26          6           0       -2.261270   -2.551198   -0.094243
     27          1           0       -1.091835   -3.638732    1.356968
     28          1           0       -0.139278   -1.587257    2.391143
     29          1           0       -0.782080    0.668932    1.509951
     30          1           0       -3.313536   -1.183190   -1.419663
     31          1           0       -2.678990   -3.445421   -0.548026
     32          7           0       -2.450993    1.169076   -0.508124
     33          8           0       -3.238724    1.208538   -1.450758
     34          8           0       -1.951763    2.150134    0.038622
 ---------------------------------------------------------------------

 SCF Done:  E(RHF) =  -669.535011742     A.U. after   15 cycles
 E2 =    -0.2094957391D+01 EUMP2 =    -0.67162996913325D+03

 The electronic state is 1-A.
 Alpha  occ. eigenvalues --  -20.60966 -20.60954 -15.85988 -11.31328 -11.27899
 Alpha  occ. eigenvalues --  -11.27894 -11.27636 -11.26905 -11.26890 -11.21845
 Alpha  occ. eigenvalues --  -11.21447 -11.21367 -11.21324 -11.21162 -11.20481
 Alpha  occ. eigenvalues --   -1.60021  -1.39576  -1.19510  -1.08902  -1.08419
 Alpha  occ. eigenvalues --   -1.04911  -1.03424  -0.95872  -0.95741  -0.86901
 Alpha  occ. eigenvalues --   -0.86302  -0.82577  -0.79519  -0.78263  -0.77608
 Alpha  occ. eigenvalues --   -0.72216  -0.71342  -0.70624  -0.65177  -0.65149
 Alpha  occ. eigenvalues --   -0.64846  -0.62269  -0.60758  -0.59283  -0.57475
 Alpha  occ. eigenvalues --   -0.55402  -0.55184  -0.53219  -0.52997  -0.52537
 Alpha  occ. eigenvalues --   -0.52313  -0.49868  -0.48966  -0.48940  -0.47822
 Alpha  occ. eigenvalues --   -0.46563  -0.45776  -0.45687  -0.44905  -0.43692
 Alpha  occ. eigenvalues --   -0.37476  -0.36442
 Alpha virt. eigenvalues --    0.04858   0.11032   0.16250   0.20147   0.23143
 Alpha virt. eigenvalues --    0.23630   0.25486   0.26906   0.27197   0.28258
 Alpha virt. eigenvalues --    0.29811   0.30426   0.31417   0.31801   0.32057

 Mulliken charges:
               1
     1  C   -0.297124
     2  C   -0.299459
     3  C   -0.475717
     4  H    0.150897
     5  H    0.151370
     6  H    0.145235
     7  H    0.151656
     8  H    0.157204
     9  H    0.155181
    10  H    0.157911
    11  C   -0.299385
    12  C   -0.302462
    13  C   -0.473574
    14  H    0.137917
    15  H    0.148536
    16  H    0.159973
    17  H    0.150893
    18  H    0.147922
    19  H    0.157679
    20  H    0.167651
    21  C   -0.170707
    22  C   -0.219646
    23  C   -0.170128
    24  C    0.154385
    25  C   -0.170390
    26  C   -0.218844
    27  H    0.226679
    28  H    0.225571
    29  H    0.281908
    30  H    0.276074
    31  H    0.224139
    32  N    0.488620
    33  O   -0.458850
    34  O   -0.461114
 Sum of Mulliken charges =  -0.00000

 Dipole moment (field-independent basis, Debye):
    X=              1.1378    Y=             -4.6110    Z=              1.7124  Tot=              5.0486
 Quadrupole moment (field-independent basis, Debye-Ang):
   XX=            -98.5547   YY=            -92.9410   ZZ=            -93.2777
   XY=             11.7743   XZ=             -1.4789   YZ=              0.6028

 Normal termination of Gaussian 16 at Thu May  6 05:39:58 2021.
