 Gaussian 16, Revision A.03,
 Gaussian 16:  EM64L-G16RevA.03 25-Dec-2016

 -------------
 #p 6-31g* mp2
 -------------

 ------------------------------------------------------
 Input file generated by CHIRIPA (05-May-2021 14:55:22)
 ------------------------------------------------------
 Symbolic Z-matrix:
 Charge =  0 Multiplicity = 1

                         Standard orientation:
 ---------------------------------------------------------------------
 Center     Atomic      Atomic             Coordinates (Angstroms)
 Number     Number       Type             X           Y           Z
 ---------------------------------------------------------------------
      1          6           0        1.056520   -1.602785    0.504768
      2          6           0        1.871288   -1.162974    1.553214
      3          6           0        2.936170   -0.291164    1.307202
      4          6           0        3.158644    0.122686   -0.005247
      5          6           0        2.364623   -0.297826   -1.071076
      6          6           0        1.305349   -1.169571   -0.801728
      7          1           0        0.231473   -2.280002    0.704940
      8          1           0        1.680397   -1.497770    2.568851
      9          1           0        3.582600    0.064926    2.100138
     10          1           0        2.579706    0.053235   -2.073031
     11          1           0        0.674232   -1.509498   -1.617930
     12          7           0        4.283018    1.045598   -0.278042
     13          8           0        4.458086    1.395578   -1.443161
     14          8           0        4.967944    1.401521    0.678427
     15          6           0       -3.810742   -0.652907   -0.377219
     16          6           0       -2.719019   -1.582384    0.154005
     17          6           0       -2.741661   -2.960153   -0.508591
     18          1           0       -4.791624   -1.121572   -0.218571
     19          1           0       -3.690136   -0.540370   -1.463582
     20          1           0       -2.840813   -1.692032    1.239251
     21          1           0       -1.740635   -1.111366   -0.005752
     22          1           0       -2.597378   -2.869926   -1.590091
     23          1           0       -3.703808   -3.453892   -0.338015
     24          1           0       -1.953018   -3.608396   -0.114025
     25          6           0       -3.800991    0.728223    0.275554
     26          6           0       -4.892714    1.657700   -0.255669
     27          6           0       -4.870072    3.035470    0.406928
     28          1           0       -3.921597    0.615687    1.361917
     29          1           0       -2.820109    1.196889    0.116907
     30          1           0       -5.871098    1.186683   -0.095912
     31          1           0       -4.770920    1.767350   -1.340915
     32          1           0       -3.907925    3.529208    0.236350
     33          1           0       -5.014355    2.945243    1.488428
     34          1           0       -5.658716    3.683713    0.012361
 ---------------------------------------------------------------------

 SCF Done:  E(RHF) =  -669.534830167     A.U. after   15 cycles
 E2 =    -0.2092481553D+01 EUMP2 =    -0.67162731171997D+03

 The electronic state is 1-A.
 Alpha  occ. eigenvalues --  -20.60762 -20.60757 -15.85816 -11.31181 -11.27762
 Alpha  occ. eigenvalues --  -11.27757 -11.27442 -11.26759 -11.26743 -11.22624
 Alpha  occ. eigenvalues --  -11.22295 -11.22166 -11.22057 -11.21948 -11.21412
 Alpha  occ. eigenvalues --   -1.59838  -1.39391  -1.19360  -1.09175  -1.08745
 Alpha  occ. eigenvalues --   -1.04763  -1.04301  -0.96744  -0.95583  -0.87747
 Alpha  occ. eigenvalues --   -0.86158  -0.82424  -0.80393  -0.78931  -0.77465
 Alpha  occ. eigenvalues --   -0.72034  -0.71162  -0.70490  -0.65818  -0.65004
 Alpha  occ. eigenvalues --   -0.64760  -0.62128  -0.61662  -0.60189  -0.58367
 Alpha  occ. eigenvalues --   -0.56013  -0.55183  -0.53447  -0.53196  -0.53065
 Alpha  occ. eigenvalues --   -0.52847  -0.50660  -0.48793  -0.48790  -0.48684
 Alpha  occ. eigenvalues --   -0.47406  -0.46470  -0.46361  -0.44797  -0.44528
 Alpha  occ. eigenvalues --   -0.37281  -0.36369
 Alpha virt. eigenvalues --    0.05050   0.11184   0.16508   0.19553   0.22503
 Alpha virt. eigenvalues --    0.23980   0.25430   0.26103   0.26941   0.27279
 Alpha virt. eigenvalues --    0.29201   0.30098   0.30876   0.31521   0.32334

 Mulliken charges:
               1
     1  C   -0.172637
     2  C   -0.221291
     3  C   -0.170593
     4  C    0.158109
     5  C   -0.170988
     6  C   -0.221889
     7  H    0.235315
     8  H    0.223823
     9  H    0.275601
    10  H    0.275531
    11  H    0.224326
    12  N    0.488088
    13  O   -0.460561
    14  O   -0.460424
    15  C   -0.297493
    16  C   -0.310688
    17  C   -0.479841
    18  H    0.151900
    19  H    0.150121
    20  H    0.152477
    21  H    0.153573
    22  H    0.156332
    23  H    0.162775
    24  H    0.153153
    25  C   -0.299421
    26  C   -0.300260
    27  C   -0.476256
    28  H    0.149879
    29  H    0.151942
    30  H    0.152489
    31  H    0.152683
    32  H    0.156828
    33  H    0.155502
    34  H    0.161894
 Sum of Mulliken charges =  -0.00000

 Dipole moment (field-independent basis, Debye):
    X=             -4.1175    Y=             -3.1858    Z=              0.9705  Tot=              5.2957
 Quadrupole moment (field-independent basis, Debye-Ang):
   XX=           -119.2534   YY=            -97.2739   ZZ=            -89.6638
   XY=            -10.5550   XZ=              4.0275   YZ=             -0.5140

 Normal termination of Gaussian 16 at Thu May  6 15:54:52 2021.
