 Gaussian 16, Revision A.03,
 Gaussian 16:  EM64L-G16RevA.03 25-Dec-2016

 -------------
 #p 6-31g* mp2
 -------------

 ------------------------------------------------------
 Input file generated by CHIRIPA (05-May-2021 14:55:19)
 ------------------------------------------------------
 Symbolic Z-matrix:
 Charge =  0 Multiplicity = 1

                         Standard orientation:
 ---------------------------------------------------------------------
 Center     Atomic      Atomic             Coordinates (Angstroms)
 Number     Number       Type             X           Y           Z
 ---------------------------------------------------------------------
      1          6           0        2.554214   -2.058599   -1.346620
      2          6           0        1.464425   -1.460129   -0.705750
      3          6           0        1.610941   -0.232194   -0.053633
      4          6           0        2.867134    0.372122   -0.062109
      5          6           0        3.972013   -0.198953   -0.691718
      6          6           0        3.802329   -1.427214   -1.337574
      7          1           0        2.431398   -3.012615   -1.850768
      8          1           0        0.493951   -1.948182   -0.711157
      9          1           0        0.784111    0.253353    0.450365
     10          1           0        4.927087    0.311682   -0.669284
     11          1           0        4.650440   -1.889663   -1.834459
     12          7           0        3.034508    1.672254    0.624945
     13          8           0        4.151636    2.184293    0.603088
     14          8           0        2.045398    2.154640    1.172304
     15          6           0       -3.153871   -0.790864    0.299248
     16          6           0       -2.708582   -1.030554    1.742249
     17          6           0       -1.747046   -2.211836    1.875717
     18          1           0       -3.633471   -1.701185   -0.085779
     19          1           0       -2.267629   -0.615956   -0.326353
     20          1           0       -3.595493   -1.203587    2.365197
     21          1           0       -2.230157   -0.119494    2.123949
     22          1           0       -0.845171   -2.043869    1.278214
     23          1           0       -2.218264   -3.134123    1.520833
     24          1           0       -1.441494   -2.365288    2.915406
     25          6           0       -4.115374    0.386783    0.149630
     26          6           0       -4.560664    0.626474   -1.293370
     27          6           0       -5.522201    1.807755   -1.426839
     28          1           0       -5.001617    0.211875    0.775232
     29          1           0       -3.635775    1.297103    0.534658
     30          1           0       -5.039089   -0.284587   -1.675070
     31          1           0       -3.673754    0.799506   -1.916319
     32          1           0       -5.050982    2.730041   -1.071955
     33          1           0       -6.424075    1.639788   -0.829335
     34          1           0       -5.827751    1.961207   -2.466527
 ---------------------------------------------------------------------

 SCF Done:  E(RHF) =  -669.535403587     A.U. after   15 cycles
 E2 =    -0.2091857292D+01 EUMP2 =    -0.67162726087955D+03

 The electronic state is 1-A.
 Alpha  occ. eigenvalues --  -20.60778 -20.60773 -15.85831 -11.31195 -11.27770
 Alpha  occ. eigenvalues --  -11.27765 -11.27501 -11.26780 -11.26747 -11.22141
 Alpha  occ. eigenvalues --  -11.21996 -11.21883 -11.21802 -11.21716 -11.21234
 Alpha  occ. eigenvalues --   -1.59853  -1.39407  -1.19370  -1.08894  -1.08761
 Alpha  occ. eigenvalues --   -1.04779  -1.03969  -0.96435  -0.95598  -0.87450
 Alpha  occ. eigenvalues --   -0.86168  -0.82439  -0.80038  -0.78694  -0.77480
 Alpha  occ. eigenvalues --   -0.72050  -0.71175  -0.70477  -0.65548  -0.65018
 Alpha  occ. eigenvalues --   -0.64784  -0.62216  -0.61288  -0.59795  -0.58031
 Alpha  occ. eigenvalues --   -0.55756  -0.55259  -0.53138  -0.53088  -0.52973
 Alpha  occ. eigenvalues --   -0.52729  -0.50372  -0.48811  -0.48805  -0.48340
 Alpha  occ. eigenvalues --   -0.47064  -0.46230  -0.46139  -0.44813  -0.44220
 Alpha  occ. eigenvalues --   -0.37344  -0.36364
 Alpha virt. eigenvalues --    0.05031   0.11269   0.16430   0.18821   0.22764
 Alpha virt. eigenvalues --    0.23791   0.25389   0.26419   0.27457   0.28236
 Alpha virt. eigenvalues --    0.29424   0.29926   0.31360   0.31455   0.32342

 Mulliken charges:
               1
     1  C   -0.171058
     2  C   -0.222306
     3  C   -0.172342
     4  C    0.158400
     5  C   -0.170690
     6  C   -0.218605
     7  H    0.226095
     8  H    0.228379
     9  H    0.276307
    10  H    0.275685
    11  H    0.223542
    12  N    0.488186
    13  O   -0.460353
    14  O   -0.460740
    15  C   -0.299099
    16  C   -0.302645
    17  C   -0.480018
    18  H    0.149999
    19  H    0.141100
    20  H    0.156093
    21  H    0.157335
    22  H    0.146908
    23  H    0.155678
    24  H    0.166735
    25  C   -0.299251
    26  C   -0.300020
    27  C   -0.476276
    28  H    0.151506
    29  H    0.154227
    30  H    0.151096
    31  H    0.151726
    32  H    0.157849
    33  H    0.155659
    34  H    0.160900
 Sum of Mulliken charges =  -0.00000

 Dipole moment (field-independent basis, Debye):
    X=             -0.7140    Y=             -4.5346    Z=             -2.3588  Tot=              5.1610
 Quadrupole moment (field-independent basis, Debye-Ang):
   XX=            -92.6303   YY=            -99.0953   ZZ=            -94.6803
   XY=            -12.5319   XZ=             -9.0334   YZ=             -0.4974

 Normal termination of Gaussian 16 at Thu May  6 14:02:27 2021.
