 Gaussian 16, Revision A.03,
 Gaussian 16:  EM64L-G16RevA.03 25-Dec-2016

 -------------
 #p 6-31g* mp2
 -------------

 ------------------------------------------------------
 Input file generated by CHIRIPA (05-May-2021 14:55:22)
 ------------------------------------------------------
 Symbolic Z-matrix:
 Charge =  0 Multiplicity = 1

                         Standard orientation:
 ---------------------------------------------------------------------
 Center     Atomic      Atomic             Coordinates (Angstroms)
 Number     Number       Type             X           Y           Z
 ---------------------------------------------------------------------
      1          6           0        1.623438    2.614424    0.794849
      2          6           0        2.205102    1.599199    1.561339
      3          6           0        2.533884    0.370773    0.980461
      4          6           0        2.265962    0.190941   -0.375699
      5          6           0        1.687343    1.183000   -1.165832
      6          6           0        1.366867    2.403456   -0.563895
      7          1           0        1.371259    3.565600    1.254269
      8          1           0        2.405495    1.760232    2.616780
      9          1           0        2.984990   -0.432329    1.550503
     10          1           0        1.499563    0.992886   -2.215600
     11          1           0        0.915223    3.190096   -1.161608
     12          7           0        2.609632   -1.105320   -1.001796
     13          8           0        2.363476   -1.238771   -2.198556
     14          8           0        3.118649   -1.963333   -0.283916
     15          6           0       -3.222971   -0.328879   -0.277014
     16          6           0       -4.585672    0.292651    0.030777
     17          6           0       -5.364058    0.665383   -1.231355
     18          1           0       -2.632996    0.376090   -0.878590
     19          1           0       -3.367805   -1.224168   -0.897397
     20          1           0       -4.438406    1.185719    0.651550
     21          1           0       -5.172399   -0.413802    0.631852
     22          1           0       -5.540227   -0.219940   -1.850847
     23          1           0       -4.802063    1.388669   -1.831038
     24          1           0       -6.335058    1.107964   -0.988161
     25          6           0       -2.432889   -0.706849    0.974640
     26          6           0       -1.070190   -1.328378    0.666850
     27          6           0       -0.291802   -1.701110    1.928982
     28          1           0       -2.288057    0.188441    1.595024
     29          1           0       -3.022865   -1.411817    1.576216
     30          1           0       -0.483462   -0.621925    0.065774
     31          1           0       -1.217455   -2.221446    0.046076
     32          1           0       -0.853798   -2.424397    2.528664
     33          1           0       -0.115635   -0.815788    2.548473
     34          1           0        0.679196   -2.143691    1.685788
 ---------------------------------------------------------------------

 SCF Done:  E(RHF) =  -669.534973401     A.U. after   15 cycles
 E2 =    -0.2094874210D+01 EUMP2 =    -0.67162984761093D+03

 The electronic state is 1-A.
 Alpha  occ. eigenvalues --  -20.60892 -20.60886 -15.85917 -11.31236 -11.27840
 Alpha  occ. eigenvalues --  -11.27824 -11.27598 -11.26861 -11.26843 -11.21684
 Alpha  occ. eigenvalues --  -11.21412 -11.21384 -11.21317 -11.21171 -11.20881
 Alpha  occ. eigenvalues --   -1.59947  -1.39504  -1.19460  -1.08852  -1.08405
 Alpha  occ. eigenvalues --   -1.04856  -1.03495  -0.95965  -0.95676  -0.86980
 Alpha  occ. eigenvalues --   -0.86244  -0.82517  -0.79571  -0.78227  -0.77562
 Alpha  occ. eigenvalues --   -0.72143  -0.71275  -0.70560  -0.65106  -0.65053
 Alpha  occ. eigenvalues --   -0.64852  -0.62204  -0.60941  -0.59320  -0.57568
 Alpha  occ. eigenvalues --   -0.55377  -0.55308  -0.53107  -0.52959  -0.52576
 Alpha  occ. eigenvalues --   -0.52377  -0.49919  -0.48907  -0.48899  -0.47873
 Alpha  occ. eigenvalues --   -0.46616  -0.45761  -0.45692  -0.44893  -0.43728
 Alpha  occ. eigenvalues --   -0.37377  -0.36406
 Alpha virt. eigenvalues --    0.04942   0.11134   0.16393   0.21217   0.22873
 Alpha virt. eigenvalues --    0.24209   0.26623   0.26826   0.27322   0.27948
 Alpha virt. eigenvalues --    0.28535   0.30127   0.31306   0.31600   0.31923

 Mulliken charges:
               1
     1  C   -0.171298
     2  C   -0.218911
     3  C   -0.166986
     4  C    0.160226
     5  C   -0.174352
     6  C   -0.217295
     7  H    0.226041
     8  H    0.224076
     9  H    0.276431
    10  H    0.276054
    11  H    0.223813
    12  N    0.490061
    13  O   -0.459056
    14  O   -0.461078
    15  C   -0.297675
    16  C   -0.299404
    17  C   -0.475343
    18  H    0.146428
    19  H    0.152342
    20  H    0.149303
    21  H    0.152790
    22  H    0.156875
    23  H    0.153079
    24  H    0.159894
    25  C   -0.296659
    26  C   -0.305621
    27  C   -0.482562
    28  H    0.145746
    29  H    0.149835
    30  H    0.153757
    31  H    0.157532
    32  H    0.155088
    33  H    0.147898
    34  H    0.168969
 Sum of Mulliken charges =  -0.00000

 Dipole moment (field-independent basis, Debye):
    X=             -1.1010    Y=              4.5236    Z=              2.1479  Tot=              5.1272
 Quadrupole moment (field-independent basis, Debye-Ang):
   XX=           -100.7071   YY=            -92.1280   ZZ=            -93.5324
   XY=             10.2895   XZ=              6.8263   YZ=             -2.5687

 Normal termination of Gaussian 16 at Thu May  6 10:59:20 2021.
