 Gaussian 16, Revision A.03,
 Gaussian 16:  EM64L-G16RevA.03 25-Dec-2016

 -------------
 #p 6-31g* mp2
 -------------

 ------------------------------------------------------
 Input file generated by CHIRIPA (05-May-2021 14:51:09)
 ------------------------------------------------------
 Symbolic Z-matrix:
 Charge =  0 Multiplicity = 1

                         Standard orientation:
 ---------------------------------------------------------------------
 Center     Atomic      Atomic             Coordinates (Angstroms)
 Number     Number       Type             X           Y           Z
 ---------------------------------------------------------------------
      1          6           0        3.142056    0.759418    0.302100
      2          6           0        3.855430   -0.416295   -0.366318
      3          6           0        5.184375   -0.761270    0.306506
      4          1           0        3.801841    1.637689    0.285702
      5          1           0        2.967100    0.519618    1.360061
      6          1           0        4.027751   -0.174909   -1.423036
      7          1           0        3.193796   -1.291817   -0.348497
      8          1           0        5.026748   -1.027894    1.356585
      9          1           0        5.865442    0.095360    0.275941
     10          1           0        5.677393   -1.604453   -0.187290
     11          6           0        1.812011    1.116263   -0.359239
     12          6           0        1.098637    2.291976    0.309179
     13          6           0       -0.230308    2.636951   -0.363645
     14          1           0        1.986966    1.356063   -1.417200
     15          1           0        1.152226    0.237992   -0.342841
     16          1           0        1.760271    3.167498    0.291358
     17          1           0        0.926316    2.050590    1.365897
     18          1           0       -0.911375    1.780321   -0.333080
     19          1           0       -0.072682    2.903575   -1.413724
     20          1           0       -0.723327    3.480134    0.130151
     21          6           0       -3.077055   -0.615030   -0.316683
     22          6           0       -3.983896    0.158490    0.641070
     23          6           0       -5.179852    0.798554   -0.064482
     24          1           0       -2.720242    0.064388   -1.102826
     25          1           0       -3.666570   -1.393619   -0.820336
     26          1           0       -3.392531    0.934490    1.143790
     27          1           0       -4.338438   -0.522803    1.425133
     28          1           0       -5.793976    0.034286   -0.551665
     29          1           0       -4.842695    1.499860   -0.834609
     30          1           0       -5.814769    1.346438    0.638769
     31          6           0       -1.877011   -1.260652    0.373822
     32          6           0       -0.970170   -2.034171   -0.583932
     33          6           0        0.225785   -2.674234    0.121621
     34          1           0       -1.287497   -0.482062    0.877475
     35          1           0       -2.233824   -1.940069    1.159965
     36          1           0       -0.615628   -1.352878   -1.367995
     37          1           0       -1.561536   -2.810171   -1.086650
     38          1           0       -0.111372   -3.375541    0.891748
     39          1           0        0.839909   -1.909967    0.608805
     40          1           0        0.860703   -3.222119   -0.581630
 ---------------------------------------------------------------------

 SCF Done:  E(RHF) =  -470.732046566     A.U. after   11 cycles
 E2 =    -0.1585991539D+01 EUMP2 =    -0.47231803810569D+03

 The electronic state is 1-A.
 Alpha  occ. eigenvalues --  -11.21667 -11.21648 -11.21614 -11.21549 -11.21466
 Alpha  occ. eigenvalues --  -11.21406 -11.21394 -11.21344 -11.21151 -11.21122
 Alpha  occ. eigenvalues --  -11.21065 -11.21042  -1.08548  -1.08400  -1.03586
 Alpha  occ. eigenvalues --   -1.03544  -0.96088  -0.95953  -0.87074  -0.86998
 Alpha  occ. eigenvalues --   -0.79660  -0.79596  -0.78310  -0.78267  -0.65623
 Alpha  occ. eigenvalues --   -0.64708  -0.61000  -0.60938  -0.59416  -0.59349
 Alpha  occ. eigenvalues --   -0.57652  -0.57611  -0.55666  -0.54958  -0.52744
 Alpha  occ. eigenvalues --   -0.52672  -0.52490  -0.52368  -0.50082  -0.49858
 Alpha  occ. eigenvalues --   -0.47990  -0.47913  -0.46734  -0.46639  -0.46038
 Alpha  occ. eigenvalues --   -0.45811  -0.45716  -0.45357  -0.43829  -0.43793
 Alpha virt. eigenvalues --    0.19312   0.21871   0.23974   0.24355   0.26208
 Alpha virt. eigenvalues --    0.26498   0.27014   0.27844   0.28653   0.30366
 Alpha virt. eigenvalues --    0.30709   0.31416   0.31456   0.31815   0.32386

 Mulliken charges:
               1
     1  C   -0.297857
     2  C   -0.304952
     3  C   -0.475425
     4  H    0.149927
     5  H    0.148798
     6  H    0.151529
     7  H    0.157842
     8  H    0.155132
     9  H    0.154922
    10  H    0.160196
    11  C   -0.309695
    12  C   -0.298825
    13  C   -0.484508
    14  H    0.149437
    15  H    0.161130
    16  H    0.152492
    17  H    0.151294
    18  H    0.163181
    19  H    0.155373
    20  H    0.160577
    21  C   -0.301215
    22  C   -0.300750
    23  C   -0.475797
    24  H    0.151740
    25  H    0.150492
    26  H    0.153128
    27  H    0.151924
    28  H    0.155041
    29  H    0.155910
    30  H    0.160295
    31  C   -0.302353
    32  C   -0.303289
    33  C   -0.480714
    34  H    0.150869
    35  H    0.150684
    36  H    0.154033
    37  H    0.153662
    38  H    0.155935
    39  H    0.158548
    40  H    0.161293
 Sum of Mulliken charges =  -0.00000

 Dipole moment (field-independent basis, Debye):
    X=             -0.0304    Y=             -0.0326    Z=             -0.0139  Tot=              0.0467
 Quadrupole moment (field-independent basis, Debye-Ang):
   XX=            -86.0784   YY=            -84.0346   ZZ=            -84.6485
   XY=              1.5866   XZ=             -1.0924   YZ=             -0.2088

 Normal termination of Gaussian 16 at Wed May  5 22:58:14 2021.
