 Gaussian 16, Revision A.03,
 Gaussian 16:  EM64L-G16RevA.03 25-Dec-2016

 -------------
 #p 6-31g* mp2
 -------------

 ------------------------------------------------------
 Input file generated by CHIRIPA (05-May-2021 14:51:10)
 ------------------------------------------------------
 Symbolic Z-matrix:
 Charge =  0 Multiplicity = 1

                         Standard orientation:
 ---------------------------------------------------------------------
 Center     Atomic      Atomic             Coordinates (Angstroms)
 Number     Number       Type             X           Y           Z
 ---------------------------------------------------------------------
      1          6           0        3.258963   -0.042643    0.609655
      2          6           0        1.898477   -0.526079    0.106313
      3          6           0        0.749411   -0.126343    1.032408
      4          1           0        3.437063   -0.450124    1.614237
      5          1           0        3.235541    1.050811    0.715513
      6          1           0        1.924899   -1.618160    0.000118
      7          1           0        1.723679   -0.117555   -0.897265
      8          1           0        0.694422    0.962706    1.130133
      9          1           0        0.896786   -0.546425    2.032614
     10          1           0       -0.213835   -0.482041    0.653598
     11          6           0        4.417678   -0.434546   -0.305505
     12          6           0        5.778163    0.048890    0.197837
     13          6           0        6.927230   -0.350846   -0.728258
     14          1           0        4.441100   -1.528000   -0.411363
     15          1           0        4.239577   -0.027065   -1.310087
     16          1           0        5.952962   -0.359634    1.201415
     17          1           0        5.751742    1.140971    0.304032
     18          1           0        6.779855    0.069236   -1.728464
     19          1           0        6.982218   -1.439894   -0.825983
     20          1           0        7.890475    0.004852   -0.349448
     21          6           0       -4.380272   -0.248155    0.077698
     22          6           0       -4.187902   -1.667064   -0.458658
     23          6           0       -5.280008   -2.629212    0.009712
     24          1           0       -4.398873   -0.277453    1.175760
     25          1           0       -5.362428    0.127050   -0.241654
     26          1           0       -3.205823   -2.038963   -0.139553
     27          1           0       -4.169566   -1.634360   -1.555568
     28          1           0       -6.264984   -2.284585   -0.321428
     29          1           0       -5.295767   -2.691486    1.102632
     30          1           0       -5.122976   -3.637745   -0.385335
     31          6           0       -3.296369    0.725344   -0.381847
     32          6           0       -3.488738    2.144252    0.154508
     33          6           0       -2.396633    3.106401   -0.313863
     34          1           0       -2.314212    0.350139   -0.062497
     35          1           0       -3.277768    0.754641   -1.479909
     36          1           0       -3.507075    2.111548    1.251418
     37          1           0       -4.470817    2.516151   -0.164597
     38          1           0       -2.380874    3.168676   -1.406783
     39          1           0       -1.411657    2.761774    0.017278
     40          1           0       -2.553665    4.114933    0.081185
 ---------------------------------------------------------------------

 SCF Done:  E(RHF) =  -470.733267799     A.U. after   11 cycles
 E2 =    -0.1582834478D+01 EUMP2 =    -0.47231610227709D+03

 The electronic state is 1-A.
 Alpha  occ. eigenvalues --  -11.21648 -11.21616 -11.21596 -11.21559 -11.21432
 Alpha  occ. eigenvalues --  -11.21371 -11.21362 -11.21291 -11.21156 -11.21081
 Alpha  occ. eigenvalues --  -11.21061 -11.21035  -1.08462  -1.08397  -1.03570
 Alpha  occ. eigenvalues --   -1.03499  -0.96025  -0.95949  -0.87047  -0.86964
 Alpha  occ. eigenvalues --   -0.79646  -0.79553  -0.78274  -0.78210  -0.65103
 Alpha  occ. eigenvalues --   -0.65031  -0.61002  -0.60865  -0.59421  -0.59302
 Alpha  occ. eigenvalues --   -0.57684  -0.57520  -0.55326  -0.55224  -0.52778
 Alpha  occ. eigenvalues --   -0.52641  -0.52485  -0.52315  -0.49984  -0.49872
 Alpha  occ. eigenvalues --   -0.47953  -0.47882  -0.46702  -0.46558  -0.45813
 Alpha  occ. eigenvalues --   -0.45762  -0.45731  -0.45661  -0.43777  -0.43731
 Alpha virt. eigenvalues --    0.20885   0.23018   0.23679   0.24446   0.25917
 Alpha virt. eigenvalues --    0.26338   0.26959   0.27212   0.27781   0.29106
 Alpha virt. eigenvalues --    0.30469   0.31692   0.31763   0.31915   0.32338

 Mulliken charges:
               1
     1  C   -0.298719
     2  C   -0.299183
     3  C   -0.483753
     4  H    0.149672
     5  H    0.149711
     6  H    0.152097
     7  H    0.152821
     8  H    0.156354
     9  H    0.155596
    10  H    0.165833
    11  C   -0.298318
    12  C   -0.299683
    13  C   -0.475728
    14  H    0.149571
    15  H    0.149855
    16  H    0.151935
    17  H    0.152028
    18  H    0.155256
    19  H    0.155193
    20  H    0.160311
    21  C   -0.297733
    22  C   -0.299951
    23  C   -0.475665
    24  H    0.149677
    25  H    0.149443
    26  H    0.151277
    27  H    0.151983
    28  H    0.155260
    29  H    0.155261
    30  H    0.160171
    31  C   -0.307424
    32  C   -0.298713
    33  C   -0.477931
    34  H    0.158609
    35  H    0.149158
    36  H    0.152038
    37  H    0.151676
    38  H    0.154842
    39  H    0.157216
    40  H    0.159956
 Sum of Mulliken charges =  -0.00000

 Dipole moment (field-independent basis, Debye):
    X=              0.0336    Y=             -0.0102    Z=              0.0055  Tot=              0.0355
 Quadrupole moment (field-independent basis, Debye-Ang):
   XX=            -85.8913   YY=            -84.7270   ZZ=            -84.2129
   XY=             -0.5984   XZ=              1.2095   YZ=             -0.5739

 Normal termination of Gaussian 16 at Thu May  6 03:46:39 2021.
