 Gaussian 16, Revision A.03,
 Gaussian 16:  EM64L-G16RevA.03 25-Dec-2016

 -------------
 #p 6-31g* mp2
 -------------

 ------------------------------------------------------
 Input file generated by CHIRIPA (05-May-2021 14:53:14)
 ------------------------------------------------------
 Symbolic Z-matrix:
 Charge =  0 Multiplicity = 1

                         Standard orientation:
 ---------------------------------------------------------------------
 Center     Atomic      Atomic             Coordinates (Angstroms)
 Number     Number       Type             X           Y           Z
 ---------------------------------------------------------------------
      1          6           0       -3.667236   -0.204527    0.319021
      2          6           0       -3.180361   -1.641124    0.511703
      3          6           0       -1.677119   -1.725118    0.778165
      4          1           0       -3.119245    0.252685   -0.516209
      5          1           0       -3.419230    0.382461    1.214193
      6          1           0       -3.430445   -2.225569   -0.383002
      7          1           0       -3.729711   -2.095031    1.346448
      8          1           0       -1.414282   -1.166156    1.682090
      9          1           0       -1.113316   -1.297435   -0.057187
     10          1           0       -1.350536   -2.761004    0.912865
     11          6           0       -5.167980   -0.104189    0.051758
     12          6           0       -5.654855    1.332408   -0.140925
     13          6           0       -7.158097    1.416402   -0.407387
     14          1           0       -5.415986   -0.691177   -0.843414
     15          1           0       -5.715971   -0.561401    0.886987
     16          1           0       -5.105505    1.786315   -0.975670
     17          1           0       -5.404771    1.916853    0.753781
     18          1           0       -7.721900    0.988719    0.427966
     19          1           0       -7.420934    0.857440   -1.311311
     20          1           0       -7.484680    2.452288   -0.542087
     21          6           0        4.463352    2.377230    0.354335
     22          6           0        3.158154    2.289511   -0.140926
     23          6           0        2.587216    1.044476   -0.421044
     24          6           0        3.353410   -0.097571   -0.193093
     25          6           0        4.656325   -0.042914    0.299569
     26          6           0        5.206961    1.212790    0.572617
     27          1           0        4.898986    3.348546    0.569191
     28          1           0        2.578316    3.192156   -0.311416
     29          1           0        1.578992    0.947681   -0.805144
     30          1           0        5.209661   -0.960366    0.459318
     31          1           0        6.220828    1.277885    0.957171
     32          7           0        2.759730   -1.421281   -0.485899
     33          8           0        3.455581   -2.412525   -0.276460
     34          8           0        1.609793   -1.442497   -0.919296
 ---------------------------------------------------------------------

 SCF Done:  E(RHF) =  -669.535874287     A.U. after   15 cycles
 E2 =    -0.2090822259D+01 EUMP2 =    -0.67162669654566D+03

 The electronic state is 1-A.
 Alpha  occ. eigenvalues --  -20.60852 -20.60842 -15.85887 -11.31231 -11.27800
 Alpha  occ. eigenvalues --  -11.27796 -11.27542 -11.26813 -11.26804 -11.21382
 Alpha  occ. eigenvalues --  -11.21035 -11.20927 -11.20890 -11.20843 -11.19936
 Alpha  occ. eigenvalues --   -1.59911  -1.39467  -1.19403  -1.08803  -1.07986
 Alpha  occ. eigenvalues --   -1.04804  -1.03000  -0.95647  -0.95420  -0.86438
 Alpha  occ. eigenvalues --   -0.86203  -0.82478  -0.79085  -0.77795  -0.77520
 Alpha  occ. eigenvalues --   -0.72116  -0.71224  -0.70514  -0.65061  -0.64809
 Alpha  occ. eigenvalues --   -0.64620  -0.62153  -0.60392  -0.58842  -0.57039
 Alpha  occ. eigenvalues --   -0.55309  -0.54705  -0.53134  -0.52898  -0.52088
 Alpha  occ. eigenvalues --   -0.51856  -0.49386  -0.48872  -0.48849  -0.47390
 Alpha  occ. eigenvalues --   -0.46141  -0.45350  -0.45261  -0.44785  -0.43257
 Alpha  occ. eigenvalues --   -0.37383  -0.36406
 Alpha virt. eigenvalues --    0.04990   0.11247   0.16466   0.21272   0.23266
 Alpha virt. eigenvalues --    0.24769   0.26770   0.27277   0.27710   0.28043
 Alpha virt. eigenvalues --    0.28940   0.30702   0.31750   0.32152   0.32573

 Mulliken charges:
               1
     1  C   -0.297287
     2  C   -0.300244
     3  C   -0.479398
     4  H    0.147338
     5  H    0.146284
     6  H    0.152468
     7  H    0.148515
     8  H    0.146025
     9  H    0.172187
    10  H    0.164480
    11  C   -0.297729
    12  C   -0.299059
    13  C   -0.475399
    14  H    0.149990
    15  H    0.149233
    16  H    0.150392
    17  H    0.150275
    18  H    0.155097
    19  H    0.155432
    20  H    0.158702
    21  C   -0.170720
    22  C   -0.218604
    23  C   -0.170311
    24  C    0.158314
    25  C   -0.170924
    26  C   -0.218564
    27  H    0.225758
    28  H    0.223710
    29  H    0.275453
    30  H    0.275716
    31  H    0.223588
    32  N    0.491268
    33  O   -0.459640
    34  O   -0.462347
 Sum of Mulliken charges =  -0.00000

 Dipole moment (field-independent basis, Debye):
    X=              2.3003    Y=              4.5946    Z=              0.9676  Tot=              5.2286
 Quadrupole moment (field-independent basis, Debye-Ang):
   XX=            -79.1026   YY=            -95.1257   ZZ=            -94.7325
   XY=             13.8610   XZ=              4.3897   YZ=             -1.5293

 Normal termination of Gaussian 16 at Thu May  6 18:46:00 2021.
