 Gaussian 16, Revision A.03,
 Gaussian 16:  EM64L-G16RevA.03 25-Dec-2016

 -------------
 #p 6-31g* mp2
 -------------

 ------------------------------------------------------
 Input file generated by CHIRIPA (05-May-2021 14:53:14)
 ------------------------------------------------------
 Symbolic Z-matrix:
 Charge =  0 Multiplicity = 1

                         Standard orientation:
 ---------------------------------------------------------------------
 Center     Atomic      Atomic             Coordinates (Angstroms)
 Number     Number       Type             X           Y           Z
 ---------------------------------------------------------------------
      1          6           0       -2.572006    0.625273   -0.489599
      2          6           0       -2.832412    2.130888   -0.547023
      3          6           0       -1.620838    2.921945   -1.041101
      4          1           0       -1.713547    0.432909    0.168420
      5          1           0       -2.284868    0.271478   -1.489487
      6          1           0       -3.120317    2.481492    0.452378
      7          1           0       -3.690471    2.319675   -1.204830
      8          1           0       -1.335212    2.600284   -2.047854
      9          1           0       -0.761819    2.763021   -0.381230
     10          1           0       -1.828979    3.995924   -1.074359
     11          6           0       -3.773931   -0.179082    0.002457
     12          6           0       -3.513525   -1.684697    0.059882
     13          6           0       -4.725099   -2.475754    0.553959
     14          1           0       -4.061070    0.174713    1.002345
     15          1           0       -4.632390    0.013283   -0.655561
     16          1           0       -2.655467   -1.873484    0.717689
     17          1           0       -3.225620   -2.035301   -0.939520
     18          1           0       -5.584118   -2.316830   -0.105912
     19          1           0       -5.010726   -2.154093    1.560713
     20          1           0       -4.516958   -3.549733    0.587218
     21          6           0        1.770731    2.083712    1.065421
     22          6           0        2.999376    1.939904    0.412527
     23          6           0        3.401980    0.693560   -0.076434
     24          6           0        2.547343   -0.392589    0.105685
     25          6           0        1.317171   -0.281307    0.751891
     26          6           0        0.935023    0.974604    1.232725
     27          1           0        1.465923    3.055618    1.442102
     28          1           0        3.650432    2.799506    0.281170
     29          1           0        4.347823    0.553994   -0.585668
     30          1           0        0.689606   -1.156605    0.867796
     31          1           0       -0.019718    1.083327    1.739374
     32          7           0        2.962734   -1.717102   -0.407654
     33          8           0        2.191696   -2.658462   -0.234510
     34          8           0        4.051489   -1.788814   -0.973434
 ---------------------------------------------------------------------

 SCF Done:  E(RHF) =  -669.533961997     A.U. after   15 cycles
 E2 =    -0.2094169954D+01 EUMP2 =    -0.67162813195034D+03

 The electronic state is 1-A.
 Alpha  occ. eigenvalues --  -20.60795 -20.60789 -15.85849 -11.31244 -11.27808
 Alpha  occ. eigenvalues --  -11.27804 -11.27553 -11.26832 -11.26821 -11.22165
 Alpha  occ. eigenvalues --  -11.21929 -11.21900 -11.21786 -11.21559 -11.21282
 Alpha  occ. eigenvalues --   -1.59869  -1.39422  -1.19425  -1.08920  -1.08802
 Alpha  occ. eigenvalues --   -1.04839  -1.03951  -0.96403  -0.95641  -0.87417
 Alpha  occ. eigenvalues --   -0.86235  -0.82484  -0.80023  -0.78728  -0.77502
 Alpha  occ. eigenvalues --   -0.72068  -0.71192  -0.70529  -0.65660  -0.65082
 Alpha  occ. eigenvalues --   -0.64786  -0.62196  -0.61336  -0.59764  -0.58004
 Alpha  occ. eigenvalues --   -0.55744  -0.55311  -0.53222  -0.53073  -0.52960
 Alpha  occ. eigenvalues --   -0.52756  -0.50355  -0.48831  -0.48820  -0.48314
 Alpha  occ. eigenvalues --   -0.47067  -0.46244  -0.46164  -0.44820  -0.44215
 Alpha  occ. eigenvalues --   -0.37349  -0.36351
 Alpha virt. eigenvalues --    0.04968   0.11109   0.16306   0.19602   0.23047
 Alpha virt. eigenvalues --    0.23568   0.25144   0.26535   0.27144   0.28248
 Alpha virt. eigenvalues --    0.30033   0.30525   0.31242   0.31403   0.31731

 Mulliken charges:
               1
     1  C   -0.301377
     2  C   -0.300467
     3  C   -0.480225
     4  H    0.142922
     5  H    0.154969
     6  H    0.147575
     7  H    0.155329
     8  H    0.159303
     9  H    0.153508
    10  H    0.158871
    11  C   -0.298626
    12  C   -0.299220
    13  C   -0.476147
    14  H    0.147006
    15  H    0.152133
    16  H    0.147150
    17  H    0.156883
    18  H    0.156212
    19  H    0.154151
    20  H    0.163684
    21  C   -0.171467
    22  C   -0.218829
    23  C   -0.170782
    24  C    0.157813
    25  C   -0.169674
    26  C   -0.216636
    27  H    0.226786
    28  H    0.224046
    29  H    0.275924
    30  H    0.276741
    31  H    0.224709
    32  N    0.488030
    33  O   -0.459990
    34  O   -0.460301
 Sum of Mulliken charges =  -0.00000

 Dipole moment (field-independent basis, Debye):
    X=             -1.4485    Y=              4.5868    Z=              1.7188  Tot=              5.1079
 Quadrupole moment (field-independent basis, Debye-Ang):
   XX=            -98.9381   YY=            -98.7155   ZZ=            -93.6353
   XY=             14.3989   XZ=              3.6931   YZ=             -0.6077

 Normal termination of Gaussian 16 at Thu May  6 01:03:40 2021.
