 Gaussian 16, Revision A.03,
 Gaussian 16:  EM64L-G16RevA.03 25-Dec-2016

 -------------
 #p 6-31g* mp2
 -------------

 ------------------------------------------------------
 Input file generated by CHIRIPA (05-May-2021 14:53:16)
 ------------------------------------------------------
 Symbolic Z-matrix:
 Charge =  0 Multiplicity = 1

                         Standard orientation:
 ---------------------------------------------------------------------
 Center     Atomic      Atomic             Coordinates (Angstroms)
 Number     Number       Type             X           Y           Z
 ---------------------------------------------------------------------
      1          6           0       -3.444335   -0.269248   -0.299397
      2          6           0       -4.747823   -1.068527   -0.306777
      3          6           0       -4.861533   -2.002852   -1.511725
      4          1           0       -3.375164    0.315831   -1.226674
      5          1           0       -2.594921   -0.966279   -0.305515
      6          1           0       -5.594526   -0.370205   -0.299249
      7          1           0       -4.813989   -1.651623    0.620713
      8          1           0       -4.036193   -2.722113   -1.520726
      9          1           0       -4.821165   -1.433414   -2.445916
     10          1           0       -5.800815   -2.564451   -1.497047
     11          6           0       -3.316000    0.669333    0.899071
     12          6           0       -2.012512    1.468613    0.906451
     13          6           0       -1.898802    2.402938    2.111399
     14          1           0       -4.165414    1.366365    0.905189
     15          1           0       -3.385170    0.084255    1.826348
     16          1           0       -1.946346    2.051709   -0.021039
     17          1           0       -1.165808    0.770291    0.898923
     18          1           0       -1.939169    1.833500    3.045589
     19          1           0       -2.724141    3.122198    2.120400
     20          1           0       -0.959519    2.964536    2.096721
     21          6           0        3.402093   -2.028059    1.276628
     22          6           0        2.038300   -1.837171    1.031374
     23          6           0        1.605032   -0.803303    0.195943
     24          6           0        2.567153    0.024673   -0.380314
     25          6           0        3.933013   -0.139963   -0.155346
     26          6           0        4.343438   -1.180340    0.683531
     27          1           0        3.729793   -2.833721    1.926949
     28          1           0        1.304997   -2.493983    1.490625
     29          1           0        0.555476   -0.632978   -0.011030
     30          1           0        4.640387    0.530985   -0.627438
     31          1           0        5.403232   -1.326223    0.872206
     32          7           0        2.120563    1.122629   -1.266571
     33          8           0        2.988132    1.838394   -1.762191
     34          8           0        0.911414    1.246650   -1.448817
 ---------------------------------------------------------------------

 SCF Done:  E(RHF) =  -669.535340481     A.U. after   15 cycles
 E2 =    -0.2092067744D+01 EUMP2 =    -0.67162740822489D+03

 The electronic state is 1-A.
 Alpha  occ. eigenvalues --  -20.60798 -20.60788 -15.85839 -11.31213 -11.27782
 Alpha  occ. eigenvalues --  -11.27765 -11.27528 -11.26805 -11.26796 -11.21515
 Alpha  occ. eigenvalues --  -11.21255 -11.21187 -11.21129 -11.20994 -11.20738
 Alpha  occ. eigenvalues --   -1.59866  -1.39418  -1.19387  -1.08781  -1.08233
 Alpha  occ. eigenvalues --   -1.04793  -1.03304  -0.95777  -0.95615  -0.86793
 Alpha  occ. eigenvalues --   -0.86191  -0.82447  -0.79367  -0.78064  -0.77448
 Alpha  occ. eigenvalues --   -0.72058  -0.71185  -0.70503  -0.65041  -0.64959
 Alpha  occ. eigenvalues --   -0.64733  -0.62161  -0.60700  -0.59130  -0.57363
 Alpha  occ. eigenvalues --   -0.55298  -0.55082  -0.53118  -0.52904  -0.52453
 Alpha  occ. eigenvalues --   -0.52190  -0.49732  -0.48836  -0.48823  -0.47657
 Alpha  occ. eigenvalues --   -0.46403  -0.45588  -0.45477  -0.44776  -0.43570
 Alpha  occ. eigenvalues --   -0.37367  -0.36390
 Alpha virt. eigenvalues --    0.05010   0.11196   0.16520   0.20280   0.23003
 Alpha virt. eigenvalues --    0.24410   0.24961   0.27296   0.27699   0.28114
 Alpha virt. eigenvalues --    0.29605   0.31026   0.31500   0.31936   0.32231

 Mulliken charges:
               1
     1  C   -0.296735
     2  C   -0.299553
     3  C   -0.475273
     4  H    0.157488
     5  H    0.140581
     6  H    0.153147
     7  H    0.149176
     8  H    0.152701
     9  H    0.157794
    10  H    0.159545
    11  C   -0.299626
    12  C   -0.299491
    13  C   -0.476237
    14  H    0.150424
    15  H    0.144482
    16  H    0.168250
    17  H    0.144051
    18  H    0.149820
    19  H    0.155249
    20  H    0.163146
    21  C   -0.170559
    22  C   -0.220492
    23  C   -0.175479
    24  C    0.156700
    25  C   -0.170475
    26  C   -0.218575
    27  H    0.225698
    28  H    0.223394
    29  H    0.284634
    30  H    0.275660
    31  H    0.223571
    32  N    0.487941
    33  O   -0.460374
    34  O   -0.460584
 Sum of Mulliken charges =  -0.00000

 Dipole moment (field-independent basis, Debye):
    X=              1.5989    Y=             -3.7241    Z=              2.9905  Tot=              5.0367
 Quadrupole moment (field-independent basis, Debye-Ang):
   XX=            -81.9651   YY=            -95.0828   ZZ=            -98.4205
   XY=             -9.4656   XZ=              7.2195   YZ=              0.0840

 Normal termination of Gaussian 16 at Thu May  6 10:39:25 2021.
