 Gaussian 16, Revision A.03,
 Gaussian 16:  EM64L-G16RevA.03 25-Dec-2016

 -------------
 #p 6-31g* mp2
 -------------

 ------------------------------------------------------
 Input file generated by CHIRIPA (05-May-2021 14:53:16)
 ------------------------------------------------------
 Symbolic Z-matrix:
 Charge =  0 Multiplicity = 1

                         Standard orientation:
 ---------------------------------------------------------------------
 Center     Atomic      Atomic             Coordinates (Angstroms)
 Number     Number       Type             X           Y           Z
 ---------------------------------------------------------------------
      1          6           0        2.893015    0.943920   -0.310802
      2          6           0        3.440345    2.359708   -0.126523
      3          6           0        2.477699    3.435789   -0.629668
      4          1           0        2.677540    0.776582   -1.374998
      5          1           0        1.934640    0.856880    0.219609
      6          1           0        4.398079    2.443638   -0.655972
      7          1           0        3.654722    2.523628    0.937333
      8          1           0        1.524438    3.380826   -0.094062
      9          1           0        2.272019    3.300382   -1.696421
     10          1           0        2.888877    4.440177   -0.488256
     11          6           0        3.844013   -0.142855    0.187446
     12          6           0        3.296683   -1.558643    0.003166
     13          6           0        4.259329   -2.634725    0.506311
     14          1           0        4.802388   -0.055816   -0.342966
     15          1           0        4.059488    0.024482    1.251642
     16          1           0        3.082306   -1.722563   -1.060689
     17          1           0        2.338949   -1.642574    0.532616
     18          1           0        4.465009   -2.499318    1.573064
     19          1           0        5.212590   -2.579761   -0.029294
     20          1           0        3.848151   -3.639113    0.364900
     21          6           0       -4.037090    1.751603    0.406554
     22          6           0       -4.601027    0.614121   -0.180497
     23          6           0       -3.831747   -0.535395   -0.383895
     24          6           0       -2.495779   -0.512506    0.013541
     25          6           0       -1.905121    0.605206    0.601020
     26          6           0       -2.693306    1.743530    0.794754
     27          1           0       -4.642028    2.640226    0.560805
     28          1           0       -5.644362    0.617529   -0.482964
     29          1           0       -4.242923   -1.429751   -0.836089
     30          1           0       -0.862270    0.571663    0.892145
     31          1           0       -2.252682    2.625471    1.250906
     32          7           0       -1.671370   -1.723522   -0.196672
     33          8           0       -0.496747   -1.677906    0.162241
     34          8           0       -2.215430   -2.695401   -0.716371
 ---------------------------------------------------------------------

 SCF Done:  E(RHF) =  -669.535890664     A.U. after   15 cycles
 E2 =    -0.2091723146D+01 EUMP2 =    -0.67162761381052D+03

 The electronic state is 1-A.
 Alpha  occ. eigenvalues --  -20.60883 -20.60878 -15.85929 -11.31257 -11.27827
 Alpha  occ. eigenvalues --  -11.27820 -11.27560 -11.26833 -11.26824 -11.21457
 Alpha  occ. eigenvalues --  -11.21172 -11.21018 -11.20728 -11.20394 -11.20130
 Alpha  occ. eigenvalues --   -1.59949  -1.39506  -1.19427  -1.08828  -1.07907
 Alpha  occ. eigenvalues --   -1.04826  -1.02974  -0.95670  -0.95493  -0.86518
 Alpha  occ. eigenvalues --   -0.86225  -0.82509  -0.79080  -0.77702  -0.77456
 Alpha  occ. eigenvalues --   -0.72153  -0.71265  -0.70538  -0.65087  -0.64836
 Alpha  occ. eigenvalues --   -0.64546  -0.62177  -0.60375  -0.58900  -0.57043
 Alpha  occ. eigenvalues --   -0.55330  -0.54816  -0.53154  -0.52922  -0.52195
 Alpha  occ. eigenvalues --   -0.51899  -0.49482  -0.48912  -0.48908  -0.47369
 Alpha  occ. eigenvalues --   -0.46132  -0.45205  -0.45031  -0.44837  -0.43237
 Alpha  occ. eigenvalues --   -0.37405  -0.36426
 Alpha virt. eigenvalues --    0.04970   0.11218   0.16471   0.20087   0.23048
 Alpha virt. eigenvalues --    0.24692   0.25241   0.27436   0.27577   0.28351
 Alpha virt. eigenvalues --    0.29547   0.31126   0.31870   0.32156   0.32286

 Mulliken charges:
               1
     1  C   -0.298316
     2  C   -0.299544
     3  C   -0.473194
     4  H    0.151470
     5  H    0.147332
     6  H    0.153001
     7  H    0.150206
     8  H    0.145632
     9  H    0.156651
    10  H    0.159517
    11  C   -0.298431
    12  C   -0.306293
    13  C   -0.475874
    14  H    0.146543
    15  H    0.145940
    16  H    0.152342
    17  H    0.176418
    18  H    0.151087
    19  H    0.150026
    20  H    0.163558
    21  C   -0.170405
    22  C   -0.218735
    23  C   -0.170244
    24  C    0.156638
    25  C   -0.172880
    26  C   -0.219681
    27  H    0.225960
    28  H    0.223695
    29  H    0.275752
    30  H    0.279748
    31  H    0.223961
    32  N    0.495232
    33  O   -0.467722
    34  O   -0.459390
 Sum of Mulliken charges =  -0.00000

 Dipole moment (field-independent basis, Debye):
    X=             -3.0725    Y=              4.1168    Z=              0.6999  Tot=              5.1844
 Quadrupole moment (field-independent basis, Debye-Ang):
   XX=            -78.1584   YY=            -99.5781   ZZ=            -93.9528
   XY=             -6.8492   XZ=             -0.7908   YZ=              1.1237

 Normal termination of Gaussian 16 at Thu May  6 04:19:11 2021.
