 Gaussian 16, Revision A.03,
 Gaussian 16:  EM64L-G16RevA.03 25-Dec-2016

 -------------
 #p 6-31g* mp2
 -------------

 ------------------------------------------------------
 Input file generated by CHIRIPA (05-May-2021 14:55:19)
 ------------------------------------------------------
 Symbolic Z-matrix:
 Charge =  0 Multiplicity = 1

                         Standard orientation:
 ---------------------------------------------------------------------
 Center     Atomic      Atomic             Coordinates (Angstroms)
 Number     Number       Type             X           Y           Z
 ---------------------------------------------------------------------
      1          6           0        2.109329    2.324156    0.395293
      2          6           0        3.009407    1.801950   -0.539417
      3          6           0        3.144009    0.419698   -0.700066
      4          6           0        2.359327   -0.415025    0.094165
      5          6           0        1.453757    0.074800    1.034008
      6          6           0        1.335740    1.460437    1.177642
      7          1           0        2.011209    3.399237    0.513480
      8          1           0        3.611475    2.470338   -1.148365
      9          1           0        3.833055   -0.011454   -1.416126
     10          1           0        0.867168   -0.616647    1.626656
     11          1           0        0.635914    1.863171    1.904342
     12          7           0        2.493045   -1.880145   -0.066901
     13          8           0        1.790273   -2.594291    0.644958
     14          8           0        3.298093   -2.286618   -0.901955
     15          6           0       -3.165970   -0.399756    0.253294
     16          6           0       -3.572522   -1.595643   -0.608421
     17          6           0       -3.918133   -2.832211    0.221789
     18          1           0       -2.303553   -0.679338    0.873790
     19          1           0       -3.984830   -0.160455    0.945825
     20          1           0       -2.753685   -1.831748   -1.300069
     21          1           0       -4.433952   -1.313122   -1.227077
     22          1           0       -4.750117   -2.619985    0.901026
     23          1           0       -3.060302   -3.141557    0.827621
     24          1           0       -4.205941   -3.675157   -0.414190
     25          6           0       -2.817489    0.844058   -0.562312
     26          6           0       -2.410937    2.039945    0.299403
     27          6           0       -2.065326    3.276513   -0.530807
     28          1           0       -1.998630    0.604757   -1.254843
     29          1           0       -3.679906    1.123640   -1.182808
     30          1           0       -1.549507    1.757424    0.918059
     31          1           0       -3.229774    2.276050    0.991050
     32          1           0       -2.923158    3.585859   -1.136639
     33          1           0       -1.233342    3.064287   -1.210044
     34          1           0       -1.777518    4.119460    0.105171
 ---------------------------------------------------------------------

 SCF Done:  E(RHF) =  -669.535275933     A.U. after   15 cycles
 E2 =    -0.2092827744D+01 EUMP2 =    -0.67162810367668D+03

 The electronic state is 1-A.
 Alpha  occ. eigenvalues --  -20.60845 -20.60840 -15.85899 -11.31281 -11.27853
 Alpha  occ. eigenvalues --  -11.27840 -11.27578 -11.26861 -11.26849 -11.22102
 Alpha  occ. eigenvalues --  -11.21664 -11.21658 -11.21580 -11.21522 -11.20890
 Alpha  occ. eigenvalues --   -1.59920  -1.39473  -1.19455  -1.08847  -1.08662
 Alpha  occ. eigenvalues --   -1.04864  -1.03748  -0.96195  -0.95672  -0.87215
 Alpha  occ. eigenvalues --   -0.86255  -0.82512  -0.79851  -0.78464  -0.77550
 Alpha  occ. eigenvalues --   -0.72116  -0.71244  -0.70545  -0.65366  -0.65101
 Alpha  occ. eigenvalues --   -0.64836  -0.62229  -0.61117  -0.59605  -0.57802
 Alpha  occ. eigenvalues --   -0.55472  -0.55344  -0.53180  -0.52976  -0.52891
 Alpha  occ. eigenvalues --   -0.52610  -0.50125  -0.48879  -0.48871  -0.48142
 Alpha  occ. eigenvalues --   -0.46863  -0.46005  -0.45892  -0.44875  -0.44006
 Alpha  occ. eigenvalues --   -0.37415  -0.36421
 Alpha virt. eigenvalues --    0.04951   0.11108   0.16337   0.20160   0.22966
 Alpha virt. eigenvalues --    0.23947   0.25169   0.26826   0.27028   0.28611
 Alpha virt. eigenvalues --    0.29460   0.29815   0.31306   0.31463   0.32105

 Mulliken charges:
               1
     1  C   -0.171827
     2  C   -0.218907
     3  C   -0.170764
     4  C    0.158433
     5  C   -0.172555
     6  C   -0.216225
     7  H    0.226970
     8  H    0.224012
     9  H    0.275938
    10  H    0.276211
    11  H    0.225382
    12  N    0.488055
    13  O   -0.460532
    14  O   -0.460016
    15  C   -0.298166
    16  C   -0.300041
    17  C   -0.476822
    18  H    0.146395
    19  H    0.149045
    20  H    0.155820
    21  H    0.151149
    22  H    0.153057
    23  H    0.160180
    24  H    0.161991
    25  C   -0.298527
    26  C   -0.301075
    27  C   -0.477175
    28  H    0.152436
    29  H    0.150945
    30  H    0.144739
    31  H    0.152460
    32  H    0.158742
    33  H    0.156628
    34  H    0.154046
 Sum of Mulliken charges =  -0.00000

 Dipole moment (field-independent basis, Debye):
    X=             -0.4463    Y=              5.0779    Z=              0.4898  Tot=              5.1210
 Quadrupole moment (field-independent basis, Debye-Ang):
   XX=            -94.0077   YY=           -100.4366   ZZ=            -92.7731
   XY=             12.7942   XZ=             -1.2839   YZ=              0.0728

 Normal termination of Gaussian 16 at Thu May  6 12:24:05 2021.
