 Gaussian 16, Revision A.03,
 Gaussian 16:  EM64L-G16RevA.03 25-Dec-2016

 -------------
 #p 6-31g* mp2
 -------------

 ------------------------------------------------------
 Input file generated by CHIRIPA (05-May-2021 14:55:20)
 ------------------------------------------------------
 Symbolic Z-matrix:
 Charge =  0 Multiplicity = 1

                         Standard orientation:
 ---------------------------------------------------------------------
 Center     Atomic      Atomic             Coordinates (Angstroms)
 Number     Number       Type             X           Y           Z
 ---------------------------------------------------------------------
      1          6           0       -1.613666    1.869334    0.270246
      2          6           0       -1.436929    0.482423    0.228259
      3          6           0       -2.535343   -0.369026    0.076375
      4          6           0       -3.802032    0.203031   -0.031042
      5          6           0       -4.010524    1.580839    0.007230
      6          6           0       -2.897635    2.413157    0.159793
      7          1           0       -0.754770    2.523330    0.388497
      8          1           0       -0.440943    0.057287    0.313796
      9          1           0       -2.427111   -1.446261    0.040729
     10          1           0       -5.015613    1.975172   -0.080600
     11          1           0       -3.037889    3.489880    0.192071
     12          7           0       -4.972535   -0.688234   -0.192194
     13          8           0       -6.078155   -0.159375   -0.284665
     14          8           0       -4.762192   -1.898790   -0.222983
     15          6           0        4.033770   -0.711802    0.418662
     16          6           0        3.196086   -1.758220   -0.317056
     17          6           0        2.027712   -2.276613    0.521969
     18          1           0        4.415667   -1.147327    1.352160
     19          1           0        3.387216    0.128453    0.707335
     20          1           0        3.844309   -2.595622   -0.605471
     21          1           0        2.816298   -1.320216   -1.249005
     22          1           0        1.357818   -1.455921    0.798211
     23          1           0        2.391669   -2.738573    1.445402
     24          1           0        1.442269   -3.023560   -0.023179
     25          6           0        5.205574   -0.183998   -0.407186
     26          6           0        6.043259    0.862420    0.328531
     27          6           0        7.211634    1.380812   -0.510494
     28          1           0        5.852129   -1.024254   -0.695860
     29          1           0        4.823679    0.251526   -1.340685
     30          1           0        6.423047    0.424416    1.260481
     31          1           0        5.395037    1.699821    0.616946
     32          1           0        6.847676    1.842773   -1.433926
     33          1           0        7.881527    0.560120   -0.786737
     34          1           0        7.797075    2.127760    0.034655
 ---------------------------------------------------------------------

 SCF Done:  E(RHF) =  -669.535460866     A.U. after   15 cycles
 E2 =    -0.2090808167D+01 EUMP2 =    -0.67162626903341D+03

 The electronic state is 1-A.
 Alpha  occ. eigenvalues --  -20.60735 -20.60730 -15.85789 -11.31154 -11.27727
 Alpha  occ. eigenvalues --  -11.27713 -11.27474 -11.26746 -11.26717 -11.22398
 Alpha  occ. eigenvalues --  -11.22159 -11.22141 -11.22057 -11.21987 -11.21537
 Alpha  occ. eigenvalues --   -1.59811  -1.39364  -1.19328  -1.09125  -1.08726
 Alpha  occ. eigenvalues --   -1.04732  -1.04228  -0.96687  -0.95559  -0.87704
 Alpha  occ. eigenvalues --   -0.86132  -0.82392  -0.80288  -0.78918  -0.77438
 Alpha  occ. eigenvalues --   -0.72007  -0.71134  -0.70441  -0.65777  -0.64981
 Alpha  occ. eigenvalues --   -0.64753  -0.62144  -0.61578  -0.60048  -0.58279
 Alpha  occ. eigenvalues --   -0.56011  -0.55231  -0.53370  -0.53155  -0.53061
 Alpha  occ. eigenvalues --   -0.52781  -0.50618  -0.48772  -0.48762  -0.48591
 Alpha  occ. eigenvalues --   -0.47321  -0.46462  -0.46383  -0.44770  -0.44471
 Alpha  occ. eigenvalues --   -0.37315  -0.36333
 Alpha virt. eigenvalues --    0.05098   0.11313   0.16583   0.19354   0.22527
 Alpha virt. eigenvalues --    0.23595   0.25408   0.26407   0.26955   0.28309
 Alpha virt. eigenvalues --    0.28815   0.29735   0.31034   0.31420   0.32068

 Mulliken charges:
               1
     1  C   -0.172720
     2  C   -0.225719
     3  C   -0.173669
     4  C    0.158693
     5  C   -0.171144
     6  C   -0.218476
     7  H    0.225708
     8  H    0.234392
     9  H    0.276187
    10  H    0.275493
    11  H    0.223215
    12  N    0.488130
    13  O   -0.460665
    14  O   -0.460326
    15  C   -0.297309
    16  C   -0.300888
    17  C   -0.480675
    18  H    0.152320
    19  H    0.143315
    20  H    0.156733
    21  H    0.151801
    22  H    0.146046
    23  H    0.161318
    24  H    0.164441
    25  C   -0.298808
    26  C   -0.299737
    27  C   -0.476041
    28  H    0.151939
    29  H    0.149653
    30  H    0.153257
    31  H    0.150127
    32  H    0.155347
    33  H    0.156611
    34  H    0.161452
 Sum of Mulliken charges =  -0.00000

 Dipole moment (field-independent basis, Debye):
    X=              4.3319    Y=              3.0582    Z=              0.5531  Tot=              5.3314
 Quadrupole moment (field-independent basis, Debye-Ang):
   XX=           -124.3050   YY=            -89.8661   ZZ=            -95.7953
   XY=            -15.0928   XZ=             -1.5652   YZ=             -0.1879

 Normal termination of Gaussian 16 at Wed May  5 15:52:17 2021.
