 Gaussian 16, Revision A.03,
 Gaussian 16:  EM64L-G16RevA.03 25-Dec-2016

 -------------
 #p 6-31g* mp2
 -------------

 ------------------------------------------------------
 Input file generated by CHIRIPA (05-May-2021 14:57:26)
 ------------------------------------------------------
 Symbolic Z-matrix:
 Charge =  0 Multiplicity = 1

                         Standard orientation:
 ---------------------------------------------------------------------
 Center     Atomic      Atomic             Coordinates (Angstroms)
 Number     Number       Type             X           Y           Z
 ---------------------------------------------------------------------
      1          6           0       -5.177564    1.013804    0.962956
      2          6           0       -3.965913    1.642639    0.658011
      3          6           0       -2.934337    0.932806    0.036291
      4          6           0       -3.149512   -0.410538   -0.267713
      5          6           0       -4.345364   -1.065132    0.023381
      6          6           0       -5.363095   -0.335695    0.645228
      7          1           0       -5.973539    1.572834    1.445972
      8          1           0       -3.819023    2.690567    0.903602
      9          1           0       -1.986307    1.394860   -0.211020
     10          1           0       -4.462237   -2.110924   -0.233673
     11          1           0       -6.303029   -0.826652    0.880874
     12          7           0       -2.064757   -1.172383   -0.925967
     13          8           0       -2.279278   -2.354886   -1.183463
     14          8           0       -1.020545   -0.572589   -1.171946
     15          6           0        4.889023   -1.605962    0.754538
     16          6           0        3.603076   -1.560669    1.302999
     17          6           0        2.729847   -0.517679    0.980216
     18          6           0        3.177407    0.467785    0.101671
     19          6           0        4.452630    0.450476   -0.461176
     20          6           0        5.308955   -0.602014   -0.124250
     21          1           0        5.560802   -2.419872    1.010777
     22          1           0        3.274253   -2.338980    1.985753
     23          1           0        1.729016   -0.458070    1.390344
     24          1           0        4.751988    1.240752   -1.138868
     25          1           0        6.307084   -0.634617   -0.551710
     26          7           0        2.261906    1.576981   -0.247530
     27          8           0        2.680209    2.433004   -1.023987
     28          8           0        1.143368    1.569344    0.261834
 ---------------------------------------------------------------------

 SCF Done:  E(RHF) =  -868.339345136     A.U. after   16 cycles
 E2 =    -0.2599458253D+01 EUMP2 =    -0.87093880338927D+03

 The electronic state is 1-A.
 Alpha  occ. eigenvalues --  -20.60305 -20.60254 -20.60218 -20.60165 -15.85315
 Alpha  occ. eigenvalues --  -15.85236 -11.30567 -11.30521 -11.27187 -11.27168
 Alpha  occ. eigenvalues --  -11.27113 -11.26932 -11.26913 -11.26907 -11.26188
 Alpha  occ. eigenvalues --  -11.26177 -11.26136 -11.26053  -1.59323  -1.59282
 Alpha  occ. eigenvalues --   -1.38889  -1.38819  -1.18741  -1.18717  -1.08166
 Alpha  occ. eigenvalues --   -1.08145  -1.04142  -1.04094  -0.95033  -0.94964
 Alpha  occ. eigenvalues --   -0.85549  -0.85499  -0.81887  -0.81779  -0.76953
 Alpha  occ. eigenvalues --   -0.76788  -0.71632  -0.71423  -0.70640  -0.70545
 Alpha  occ. eigenvalues --   -0.69883  -0.69817  -0.64424  -0.64360  -0.64170
 Alpha  occ. eigenvalues --   -0.64095  -0.61498  -0.61402  -0.54682  -0.54638
 Alpha  occ. eigenvalues --   -0.52463  -0.52459  -0.52254  -0.52169  -0.48332
 Alpha  occ. eigenvalues --   -0.48320  -0.48236  -0.48172  -0.44419  -0.44108
 Alpha  occ. eigenvalues --   -0.36742  -0.36722  -0.35729  -0.35702
 Alpha virt. eigenvalues --    0.05539   0.05753   0.11928   0.11944   0.17050
 Alpha virt. eigenvalues --    0.17197   0.21909   0.22157   0.27879   0.28002
 Alpha virt. eigenvalues --    0.28685   0.29191   0.31392   0.31684   0.32885

 Mulliken charges:
               1
     1  C   -0.170854
     2  C   -0.221094
     3  C   -0.175793
     4  C    0.153771
     5  C   -0.172011
     6  C   -0.219857
     7  H    0.223353
     8  H    0.225396
     9  H    0.297759
    10  H    0.272456
    11  H    0.220368
    12  N    0.485980
    13  O   -0.467170
    14  O   -0.454409
    15  C   -0.170376
    16  C   -0.218365
    17  C   -0.163258
    18  C    0.160298
    19  C   -0.170539
    20  C   -0.218865
    21  H    0.223810
    22  H    0.222382
    23  H    0.275820
    24  H    0.273891
    25  H    0.221362
    26  N    0.493076
    27  O   -0.463138
    28  O   -0.463994
 Sum of Mulliken charges =  -0.00000

 Dipole moment (field-independent basis, Debye):
    X=             -0.4542    Y=             -1.0837    Z=              3.5163  Tot=              3.7075
 Quadrupole moment (field-independent basis, Debye-Ang):
   XX=            -58.4238   YY=           -107.7032   ZZ=           -105.5945
   XY=            -14.3907   XZ=             -4.5680   YZ=             -2.9639

 Normal termination of Gaussian 16 at Thu May  6 03:35:09 2021.
