 Gaussian 16, Revision A.03,
 Gaussian 16:  EM64L-G16RevA.03 25-Dec-2016

 -------------
 #p 6-31g* mp2
 -------------

 ------------------------------------------------------
 Input file generated by CHIRIPA (05-May-2021 14:53:17)
 ------------------------------------------------------
 Symbolic Z-matrix:
 Charge =  0 Multiplicity = 1

                         Standard orientation:
 ---------------------------------------------------------------------
 Center     Atomic      Atomic             Coordinates (Angstroms)
 Number     Number       Type             X           Y           Z
 ---------------------------------------------------------------------
      1          6           0       -2.706291    0.307971    0.405775
      2          6           0       -3.668418   -0.698483   -0.226165
      3          6           0       -4.013943   -1.855328    0.711980
      4          1           0       -1.785490   -0.211928    0.703725
      5          1           0       -3.154167    0.703664    1.327854
      6          1           0       -3.219456   -1.091129   -1.147511
      7          1           0       -4.586959   -0.176091   -0.522819
      8          1           0       -4.485054   -1.481799    1.626929
      9          1           0       -3.109780   -2.402036    0.998688
     10          1           0       -4.702899   -2.562820    0.240116
     11          6           0       -2.351397    1.470282   -0.519866
     12          6           0       -1.389271    2.476736    0.112075
     13          6           0       -1.043746    3.633582   -0.826070
     14          1           0       -1.903522    1.074589   -1.441945
     15          1           0       -3.272199    1.990181   -0.817816
     16          1           0       -0.470729    1.954345    0.408729
     17          1           0       -1.838233    2.869383    1.033421
     18          1           0       -1.947908    4.180290   -1.112778
     19          1           0       -0.572635    3.260053   -1.741019
     20          1           0       -0.354789    4.341073   -0.354207
     21          6           0        3.531225    1.175444    0.714611
     22          6           0        3.624002    0.611224   -0.561935
     23          6           0        2.767283   -0.425406   -0.944004
     24          6           0        1.825273   -0.875422   -0.020211
     25          6           0        1.708188   -0.333729    1.258910
     26          6           0        2.575299    0.702002    1.619364
     27          1           0        4.200783    1.980374    1.003015
     28          1           0        4.365425    0.976900   -1.266648
     29          1           0        2.817358   -0.880254   -1.925852
     30          1           0        0.958962   -0.719389    1.939606
     31          1           0        2.500968    1.138290    2.611418
     32          7           0        0.912801   -1.972380   -0.413249
     33          8           0        0.091450   -2.351002    0.419016
     34          8           0        1.036235   -2.432783   -1.546135
 ---------------------------------------------------------------------

 SCF Done:  E(RHF) =  -669.536639709     A.U. after   15 cycles
 E2 =    -0.2093485331D+01 EUMP2 =    -0.67163012504015D+03

 The electronic state is 1-A.
 Alpha  occ. eigenvalues --  -20.61087 -20.61081 -15.86095 -11.31384 -11.27946
 Alpha  occ. eigenvalues --  -11.27929 -11.27658 -11.26940 -11.26922 -11.21418
 Alpha  occ. eigenvalues --  -11.21032 -11.20962 -11.20713 -11.20634 -11.19977
 Alpha  occ. eigenvalues --   -1.60132  -1.39691  -1.19548  -1.08953  -1.07895
 Alpha  occ. eigenvalues --   -1.04936  -1.02962  -0.95802  -0.95420  -0.86442
 Alpha  occ. eigenvalues --   -0.86335  -0.82638  -0.79091  -0.77781  -0.77580
 Alpha  occ. eigenvalues --   -0.72322  -0.71446  -0.70646  -0.65206  -0.64932
 Alpha  occ. eigenvalues --   -0.64511  -0.62280  -0.60346  -0.58856  -0.57023
 Alpha  occ. eigenvalues --   -0.55434  -0.54692  -0.53277  -0.53020  -0.52141
 Alpha  occ. eigenvalues --   -0.51847  -0.49399  -0.49078  -0.49040  -0.47388
 Alpha  occ. eigenvalues --   -0.46120  -0.45567  -0.45174  -0.44587  -0.43225
 Alpha  occ. eigenvalues --   -0.37511  -0.36501
 Alpha virt. eigenvalues --    0.04781   0.11059   0.16249   0.21136   0.23191
 Alpha virt. eigenvalues --    0.24890   0.26218   0.27336   0.27746   0.28492
 Alpha virt. eigenvalues --    0.28727   0.30786   0.31721   0.32065   0.32344

 Mulliken charges:
               1
     1  C   -0.306504
     2  C   -0.296693
     3  C   -0.481284
     4  H    0.159209
     5  H    0.144021
     6  H    0.157429
     7  H    0.146456
     8  H    0.147834
     9  H    0.173298
    10  H    0.157556
    11  C   -0.298269
    12  C   -0.302788
    13  C   -0.474250
    14  H    0.149936
    15  H    0.148523
    16  H    0.150328
    17  H    0.149276
    18  H    0.155763
    19  H    0.154661
    20  H    0.155450
    21  C   -0.170168
    22  C   -0.218167
    23  C   -0.170772
    24  C    0.158647
    25  C   -0.171474
    26  C   -0.218178
    27  H    0.226646
    28  H    0.224327
    29  H    0.276012
    30  H    0.277165
    31  H    0.225038
    32  N    0.489133
    33  O   -0.460433
    34  O   -0.457727
 Sum of Mulliken charges =  -0.00000

 Dipole moment (field-independent basis, Debye):
    X=              3.4616    Y=              3.6339    Z=              1.3554  Tot=              5.1986
 Quadrupole moment (field-independent basis, Debye-Ang):
   XX=            -82.5571   YY=           -102.9813   ZZ=            -91.0356
   XY=              3.9122   XZ=              0.3494   YZ=             -0.3361

 Normal termination of Gaussian 16 at Thu May  6 06:00:23 2021.
