 Gaussian 16, Revision A.03,
 Gaussian 16:  EM64L-G16RevA.03 25-Dec-2016

 -------------
 #p 6-31g* mp2
 -------------

 ------------------------------------------------------
 Input file generated by CHIRIPA (05-May-2021 14:51:08)
 ------------------------------------------------------
 Symbolic Z-matrix:
 Charge =  0 Multiplicity = 1

                         Standard orientation:
 ---------------------------------------------------------------------
 Center     Atomic      Atomic             Coordinates (Angstroms)
 Number     Number       Type             X           Y           Z
 ---------------------------------------------------------------------
      1          6           0       -4.290335    0.656135   -0.318492
      2          6           0       -4.162500    1.893114    0.571186
      3          6           0       -5.118996    3.014736    0.165140
      4          1           0       -4.100668    0.941809   -1.362217
      5          1           0       -5.325313    0.289292   -0.277971
      6          1           0       -3.127738    2.256699    0.530085
      7          1           0       -4.352306    1.604425    1.612939
      8          1           0       -6.158101    2.675004    0.223825
      9          1           0       -4.926576    3.330984   -0.865181
     10          1           0       -5.010813    3.889261    0.814265
     11          6           0       -3.340547   -0.473841    0.074936
     12          6           0       -3.468382   -1.710819   -0.814742
     13          6           0       -2.511886   -2.832441   -0.408696
     14          1           0       -2.305569   -0.106998    0.034416
     15          1           0       -3.530214   -0.759515    1.118661
     16          1           0       -3.278577   -1.422130   -1.856494
     17          1           0       -4.503144   -2.074404   -0.773640
     18          1           0       -2.704306   -3.148690    0.621626
     19          1           0       -1.472781   -2.492710   -0.467381
     20          1           0       -2.620070   -3.706966   -1.057821
     21          6           0        4.241901    0.290936   -0.383769
     22          6           0        5.335893    1.139936    0.264588
     23          6           0        6.180621    1.898305   -0.759670
     24          1           0        4.704271   -0.422183   -1.079915
     25          1           0        3.592623    0.940439   -0.987075
     26          1           0        5.982092    0.489232    0.867602
     27          1           0        4.870879    1.850988    0.959414
     28          1           0        5.553516    2.570483   -1.354243
     29          1           0        6.671043    1.200991   -1.446577
     30          1           0        6.956501    2.498726   -0.274524
     31          6           0        3.388981   -0.473230    0.627324
     32          6           0        2.294990   -1.322231   -0.021032
     33          6           0        1.450261   -2.080600    1.003225
     34          1           0        4.038259   -1.122733    1.230630
     35          1           0        2.926611    0.239889    1.323470
     36          1           0        2.760003   -2.033282   -0.715859
     37          1           0        1.648790   -0.671528   -0.624047
     38          1           0        0.959840   -1.383286    1.690132
     39          1           0        2.077367   -2.752777    1.597798
     40          1           0        0.674381   -2.681020    0.518079
 ---------------------------------------------------------------------

 SCF Done:  E(RHF) =  -470.733249962     A.U. after   11 cycles
 E2 =    -0.1582344056D+01 EUMP2 =    -0.47231559401829D+03

 The electronic state is 1-A.
 Alpha  occ. eigenvalues --  -11.21614 -11.21612 -11.21608 -11.21598 -11.21412
 Alpha  occ. eigenvalues --  -11.21407 -11.21352 -11.21347 -11.21080 -11.21077
 Alpha  occ. eigenvalues --  -11.21044 -11.21025  -1.08439  -1.08428  -1.03550
 Alpha  occ. eigenvalues --   -1.03513  -0.96017  -0.95944  -0.87052  -0.86943
 Alpha  occ. eigenvalues --   -0.79636  -0.79554  -0.78250  -0.78242  -0.65083
 Alpha  occ. eigenvalues --   -0.65048  -0.60979  -0.60898  -0.59418  -0.59305
 Alpha  occ. eigenvalues --   -0.57719  -0.57477  -0.55303  -0.55230  -0.52818
 Alpha  occ. eigenvalues --   -0.52667  -0.52460  -0.52217  -0.49941  -0.49882
 Alpha  occ. eigenvalues --   -0.47998  -0.47810  -0.46635  -0.46612  -0.45790
 Alpha  occ. eigenvalues --   -0.45782  -0.45720  -0.45706  -0.43787  -0.43757
 Alpha virt. eigenvalues --    0.21591   0.23106   0.23478   0.24898   0.26409
 Alpha virt. eigenvalues --    0.26710   0.26914   0.27529   0.27636   0.28995
 Alpha virt. eigenvalues --    0.30427   0.31338   0.31614   0.31801   0.32063

 Mulliken charges:
               1
     1  C   -0.298320
     2  C   -0.299599
     3  C   -0.475701
     4  H    0.149579
     5  H    0.149606
     6  H    0.151641
     7  H    0.152000
     8  H    0.155256
     9  H    0.155160
    10  H    0.160224
    11  C   -0.298283
    12  C   -0.299440
    13  C   -0.481476
    14  H    0.149444
    15  H    0.149807
    16  H    0.151771
    17  H    0.151917
    18  H    0.155561
    19  H    0.161033
    20  H    0.160057
    21  C   -0.298249
    22  C   -0.299667
    23  C   -0.475703
    24  H    0.149685
    25  H    0.149306
    26  H    0.151994
    27  H    0.151945
    28  H    0.155122
    29  H    0.155198
    30  H    0.160288
    31  C   -0.298213
    32  C   -0.299995
    33  C   -0.481522
    34  H    0.149757
    35  H    0.149671
    36  H    0.152052
    37  H    0.150959
    38  H    0.155351
    39  H    0.155254
    40  H    0.166530
 Sum of Mulliken charges =  -0.00000

 Dipole moment (field-independent basis, Debye):
    X=             -0.0019    Y=             -0.0139    Z=              0.0079  Tot=              0.0161
 Quadrupole moment (field-independent basis, Debye-Ang):
   XX=            -84.7543   YY=            -85.1803   ZZ=            -84.8089
   XY=             -0.1196   XZ=             -0.1854   YZ=              0.3159

 Normal termination of Gaussian 16 at Thu May  6 00:30:02 2021.
