 Gaussian 16, Revision A.03,
 Gaussian 16:  EM64L-G16RevA.03 25-Dec-2016

 -------------
 #p 6-31g* mp2
 -------------

 ------------------------------------------------------
 Input file generated by CHIRIPA (05-May-2021 14:51:10)
 ------------------------------------------------------
 Symbolic Z-matrix:
 Charge =  0 Multiplicity = 1

                         Standard orientation:
 ---------------------------------------------------------------------
 Center     Atomic      Atomic             Coordinates (Angstroms)
 Number     Number       Type             X           Y           Z
 ---------------------------------------------------------------------
      1          6           0       -4.996283   -0.222574   -0.513276
      2          6           0       -5.777662   -1.014392    0.535750
      3          6           0       -6.943586   -1.800603   -0.064489
      4          1           0       -5.679804    0.467328   -1.026869
      5          1           0       -4.617810   -0.914752   -1.278158
      6          1           0       -6.153376   -0.321101    1.299166
      7          1           0       -5.092162   -1.702353    1.047037
      8          1           0       -6.582597   -2.514497   -0.811914
      9          1           0       -7.649841   -1.125397   -0.558353
     10          1           0       -7.488414   -2.359273    0.702916
     11          6           0       -3.827575    0.568613    0.071423
     12          6           0       -3.046195    1.360431   -0.977603
     13          6           0       -1.880272    2.146643   -0.377364
     14          1           0       -4.206047    1.260791    0.836304
     15          1           0       -3.144054   -0.121289    0.585016
     16          1           0       -3.731695    2.048392   -1.488891
     17          1           0       -2.670482    0.667140   -1.741019
     18          1           0       -1.174017    1.471436    0.116500
     19          1           0       -2.241260    2.860536    0.370061
     20          1           0       -1.335444    2.705312   -1.144770
     21          6           0        3.660811   -0.310828    0.237150
     22          6           0        2.892579    0.625390    1.170585
     23          6           0        1.391145    0.337254    1.192234
     24          1           0        3.253859   -0.219879   -0.779247
     25          1           0        3.490460   -1.350238    0.550201
     26          1           0        3.065442    1.662798    0.856709
     27          1           0        3.301534    0.532344    2.184842
     28          1           0        1.200346   -0.687643    1.526573
     29          1           0        0.962913    0.449235    0.190896
     30          1           0        0.861382    1.018025    1.865852
     31          6           0        5.163047   -0.035212    0.204703
     32          6           0        5.931278   -0.971429   -0.728732
     33          6           0        7.432713   -0.683293   -0.750381
     34          1           0        5.333398    1.004199   -0.108347
     35          1           0        5.569998   -0.126160    1.221100
     36          1           0        5.522324   -0.878383   -1.742987
     37          1           0        5.758416   -2.008838   -0.414856
     38          1           0        7.860945   -0.795274    0.250957
     39          1           0        7.623512    0.341604   -1.084720
     40          1           0        7.962476   -1.364064   -1.423998
 ---------------------------------------------------------------------

 SCF Done:  E(RHF) =  -470.732927423     A.U. after   11 cycles
 E2 =    -0.1582442544D+01 EUMP2 =    -0.47231536996731D+03

 The electronic state is 1-A.
 Alpha  occ. eigenvalues --  -11.21615 -11.21611 -11.21568 -11.21529 -11.21418
 Alpha  occ. eigenvalues --  -11.21358 -11.21355 -11.21293 -11.21088 -11.21078
 Alpha  occ. eigenvalues --  -11.21045 -11.20914  -1.08444  -1.08375  -1.03554
 Alpha  occ. eigenvalues --   -1.03463  -0.96030  -0.95893  -0.87078  -0.86885
 Alpha  occ. eigenvalues --   -0.79664  -0.79489  -0.78260  -0.78185  -0.65089
 Alpha  occ. eigenvalues --   -0.64997  -0.61045  -0.60793  -0.59377  -0.59282
 Alpha  occ. eigenvalues --   -0.57607  -0.57534  -0.55494  -0.55042  -0.52774
 Alpha  occ. eigenvalues --   -0.52608  -0.52439  -0.52266  -0.50145  -0.49643
 Alpha  occ. eigenvalues --   -0.47948  -0.47826  -0.46738  -0.46443  -0.45816
 Alpha  occ. eigenvalues --   -0.45738  -0.45697  -0.45615  -0.43782  -0.43728
 Alpha virt. eigenvalues --    0.22454   0.22973   0.23723   0.24715   0.26350
 Alpha virt. eigenvalues --    0.26680   0.27128   0.27522   0.27713   0.29014
 Alpha virt. eigenvalues --    0.30867   0.31376   0.31665   0.31783   0.32160

 Mulliken charges:
               1
     1  C   -0.298234
     2  C   -0.299620
     3  C   -0.475671
     4  H    0.149510
     5  H    0.149395
     6  H    0.151845
     7  H    0.151946
     8  H    0.155120
     9  H    0.155112
    10  H    0.160130
    11  C   -0.298407
    12  C   -0.299075
    13  C   -0.484510
    14  H    0.149305
    15  H    0.150121
    16  H    0.151419
    17  H    0.151184
    18  H    0.166586
    19  H    0.154210
    20  H    0.158656
    21  C   -0.298732
    22  C   -0.299487
    23  C   -0.479892
    24  H    0.149863
    25  H    0.149406
    26  H    0.152567
    27  H    0.151967
    28  H    0.154803
    29  H    0.158350
    30  H    0.161956
    31  C   -0.298338
    32  C   -0.299657
    33  C   -0.475716
    34  H    0.149654
    35  H    0.149701
    36  H    0.151944
    37  H    0.151891
    38  H    0.155198
    39  H    0.155232
    40  H    0.160270
 Sum of Mulliken charges =  -0.00000

 Dipole moment (field-independent basis, Debye):
    X=              0.0463    Y=             -0.0110    Z=              0.0220  Tot=              0.0524
 Quadrupole moment (field-independent basis, Debye-Ang):
   XX=            -86.5250   YY=            -84.1813   ZZ=            -84.2835
   XY=             -1.1620   XZ=             -0.1378   YZ=             -0.5214

 Normal termination of Gaussian 16 at Wed May  5 19:48:01 2021.
