 Gaussian 16, Revision A.03,
 Gaussian 16:  EM64L-G16RevA.03 25-Dec-2016

 -------------
 #p 6-31g* mp2
 -------------

 ------------------------------------------------------
 Input file generated by CHIRIPA (05-May-2021 14:53:15)
 ------------------------------------------------------
 Symbolic Z-matrix:
 Charge =  0 Multiplicity = 1

                         Standard orientation:
 ---------------------------------------------------------------------
 Center     Atomic      Atomic             Coordinates (Angstroms)
 Number     Number       Type             X           Y           Z
 ---------------------------------------------------------------------
      1          6           0        3.195464    0.956722   -0.312453
      2          6           0        2.059907    1.672052   -1.045119
      3          6           0        2.131658    3.192925   -0.905153
      4          1           0        3.166700    1.230246    0.751174
      5          1           0        4.157845    1.316707   -0.701850
      6          1           0        1.099941    1.309813   -0.655421
      7          1           0        2.091261    1.396643   -2.107091
      8          1           0        3.074458    3.573138   -1.311560
      9          1           0        2.077505    3.485815    0.148357
     10          1           0        1.310550    3.684168   -1.436491
     11          6           0        3.137385   -0.564228   -0.443088
     12          6           0        4.272942   -1.279557    0.289578
     13          6           0        4.201191   -2.800430    0.149611
     14          1           0        2.175004   -0.924212   -0.053692
     15          1           0        3.166149   -0.837752   -1.506715
     16          1           0        4.241588   -1.004149    1.351549
     17          1           0        5.232908   -0.917319   -0.100121
     18          1           0        4.255344   -3.093321   -0.903899
     19          1           0        3.258391   -3.180644    0.556019
     20          1           0        5.022300   -3.291674    0.680949
     21          6           0       -0.637653    0.819391    1.726369
     22          6           0       -0.530981   -0.489654    1.245179
     23          6           0       -1.542241   -1.038915    0.451319
     24          6           0       -2.651278   -0.247356    0.156767
     25          6           0       -2.786613    1.060035    0.621205
     26          6           0       -1.763144    1.588701    1.413399
     27          1           0        0.152661    1.238070    2.342411
     28          1           0        0.341951   -1.089430    1.486639
     29          1           0       -1.485298   -2.049547    0.065577
     30          1           0       -3.668802    1.633483    0.363676
     31          1           0       -1.848674    2.605614    1.785711
     32          7           0       -3.728317   -0.817933   -0.682774
     33          8           0       -4.695245   -0.099935   -0.928067
     34          8           0       -3.585179   -1.972343   -1.079618
 ---------------------------------------------------------------------

 SCF Done:  E(RHF) =  -669.534642441     A.U. after   15 cycles
 E2 =    -0.2093824296D+01 EUMP2 =    -0.67162846673703D+03

 The electronic state is 1-A.
 Alpha  occ. eigenvalues --  -20.60829 -20.60824 -15.85884 -11.31289 -11.27866
 Alpha  occ. eigenvalues --  -11.27862 -11.27622 -11.26885 -11.26874 -11.22280
 Alpha  occ. eigenvalues --  -11.22091 -11.22030 -11.21944 -11.21707 -11.21589
 Alpha  occ. eigenvalues --   -1.59903  -1.39456  -1.19480  -1.09087  -1.08852
 Alpha  occ. eigenvalues --   -1.04884  -1.04112  -0.96585  -0.95690  -0.87596
 Alpha  occ. eigenvalues --   -0.86283  -0.82520  -0.80168  -0.78887  -0.77553
 Alpha  occ. eigenvalues --   -0.72102  -0.71227  -0.70582  -0.65839  -0.65125
 Alpha  occ. eigenvalues --   -0.64811  -0.62233  -0.61530  -0.59941  -0.58178
 Alpha  occ. eigenvalues --   -0.55912  -0.55375  -0.53332  -0.53169  -0.53070
 Alpha  occ. eigenvalues --   -0.52902  -0.50534  -0.48868  -0.48854  -0.48475
 Alpha  occ. eigenvalues --   -0.47207  -0.46406  -0.46334  -0.44852  -0.44381
 Alpha  occ. eigenvalues --   -0.37390  -0.36451
 Alpha virt. eigenvalues --    0.04958   0.11055   0.16333   0.19335   0.22892
 Alpha virt. eigenvalues --    0.23330   0.25671   0.26173   0.27285   0.28525
 Alpha virt. eigenvalues --    0.29227   0.29968   0.31282   0.31612   0.31978

 Mulliken charges:
               1
     1  C   -0.297223
     2  C   -0.308793
     3  C   -0.474706
     4  H    0.141277
     5  H    0.152568
     6  H    0.161662
     7  H    0.154544
     8  H    0.156912
     9  H    0.148090
    10  H    0.162342
    11  C   -0.301920
    12  C   -0.300252
    13  C   -0.474817
    14  H    0.143575
    15  H    0.154640
    16  H    0.148229
    17  H    0.155317
    18  H    0.158751
    19  H    0.149937
    20  H    0.162801
    21  C   -0.172261
    22  C   -0.217314
    23  C   -0.171399
    24  C    0.158822
    25  C   -0.170485
    26  C   -0.217968
    27  H    0.226884
    28  H    0.225701
    29  H    0.276420
    30  H    0.276215
    31  H    0.224434
    32  N    0.488095
    33  O   -0.460142
    34  O   -0.459936
 Sum of Mulliken charges =  -0.00000

 Dipole moment (field-independent basis, Debye):
    X=              3.7589    Y=              1.9931    Z=              2.8755  Tot=              5.1352
 Quadrupole moment (field-independent basis, Debye-Ang):
   XX=           -113.5328   YY=            -93.5214   ZZ=            -93.7500
   XY=             -8.9548   XZ=             -8.3248   YZ=             -0.0773

 Normal termination of Gaussian 16 at Thu May  6 09:03:40 2021.
