 Gaussian 16, Revision A.03,
 Gaussian 16:  EM64L-G16RevA.03 25-Dec-2016

 -------------
 #p 6-31g* mp2
 -------------

 ------------------------------------------------------
 Input file generated by CHIRIPA (05-May-2021 14:51:10)
 ------------------------------------------------------
 Symbolic Z-matrix:
 Charge =  0 Multiplicity = 1

                         Standard orientation:
 ---------------------------------------------------------------------
 Center     Atomic      Atomic             Coordinates (Angstroms)
 Number     Number       Type             X           Y           Z
 ---------------------------------------------------------------------
      1          6           0        2.994880    0.996036   -0.320835
      2          6           0        3.481177    2.271704    0.367764
      3          6           0        2.611903    3.486914    0.043075
      4          1           0        2.978336    1.157000   -1.407464
      5          1           0        1.957369    0.797164   -0.018483
      6          1           0        4.517923    2.467351    0.065282
      7          1           0        3.496748    2.107621    1.452868
      8          1           0        1.578061    3.316947    0.360693
      9          1           0        2.605038    3.678721   -1.034777
     10          1           0        2.977463    4.387820    0.545662
     11          6           0        3.853729   -0.227470   -0.005969
     12          6           0        3.367432   -1.503139   -0.694569
     13          6           0        4.236706   -2.718349   -0.369879
     14          1           0        4.891240   -0.028599   -0.308321
     15          1           0        3.870273   -0.388434    1.080659
     16          1           0        3.351861   -1.339056   -1.779672
     17          1           0        2.330686   -1.698786   -0.392087
     18          1           0        4.243571   -2.910156    0.707972
     19          1           0        5.270548   -2.548382   -0.687498
     20          1           0        3.871146   -3.619255   -0.872467
     21          6           0       -2.873032   -0.495841    0.680205
     22          6           0       -1.666779   -1.254587    0.125910
     23          6           0       -0.572375   -1.470003    1.171697
     24          1           0       -2.539644    0.475831    1.069631
     25          1           0       -3.285132   -1.050306    1.534684
     26          1           0       -1.257917   -0.699560   -0.728136
     27          1           0       -2.003105   -2.224485   -0.262416
     28          1           0       -0.958284   -2.043578    2.020629
     29          1           0       -0.208861   -0.509989    1.552264
     30          1           0        0.280416   -2.014271    0.754110
     31          6           0       -3.975577   -0.272725   -0.353400
     32          6           0       -5.181830    0.486022    0.200895
     33          6           0       -6.276234    0.701437   -0.844893
     34          1           0       -3.563477    0.281741   -1.207880
     35          1           0       -4.308965   -1.244397   -0.742826
     36          1           0       -4.845503    1.455920    0.589220
     37          1           0       -5.590691   -0.069006    1.054940
     38          1           0       -6.639748   -0.258577   -1.225459
     39          1           0       -5.890325    1.275014   -1.693825
     40          1           0       -7.129025    1.245706   -0.427305
 ---------------------------------------------------------------------

 SCF Done:  E(RHF) =  -470.733266179     A.U. after   11 cycles
 E2 =    -0.1582935759D+01 EUMP2 =    -0.47231620193741D+03

 The electronic state is 1-A.
 Alpha  occ. eigenvalues --  -11.21650 -11.21617 -11.21597 -11.21557 -11.21435
 Alpha  occ. eigenvalues --  -11.21381 -11.21374 -11.21321 -11.21148 -11.21086
 Alpha  occ. eigenvalues --  -11.21081 -11.21053  -1.08465  -1.08409  -1.03573
 Alpha  occ. eigenvalues --   -1.03514  -0.96023  -0.95967  -0.87046  -0.86979
 Alpha  occ. eigenvalues --   -0.79646  -0.79568  -0.78273  -0.78224  -0.65136
 Alpha  occ. eigenvalues --   -0.65013  -0.60968  -0.60950  -0.59445  -0.59276
 Alpha  occ. eigenvalues --   -0.57655  -0.57555  -0.55349  -0.55216  -0.52769
 Alpha  occ. eigenvalues --   -0.52645  -0.52472  -0.52367  -0.49971  -0.49900
 Alpha  occ. eigenvalues --   -0.48027  -0.47828  -0.46667  -0.46596  -0.45821
 Alpha  occ. eigenvalues --   -0.45756  -0.45741  -0.45661  -0.43798  -0.43751
 Alpha virt. eigenvalues --    0.20437   0.23137   0.23774   0.24286   0.26301
 Alpha virt. eigenvalues --    0.26823   0.27135   0.27484   0.27818   0.29195
 Alpha virt. eigenvalues --    0.30060   0.31621   0.31689   0.31897   0.32025

 Mulliken charges:
               1
     1  C   -0.301414
     2  C   -0.299647
     3  C   -0.475529
     4  H    0.149340
     5  H    0.152593
     6  H    0.152006
     7  H    0.152003
     8  H    0.154462
     9  H    0.155159
    10  H    0.160326
    11  C   -0.297366
    12  C   -0.307806
    13  C   -0.475459
    14  H    0.149391
    15  H    0.149852
    16  H    0.151755
    17  H    0.159301
    18  H    0.155257
    19  H    0.155231
    20  H    0.159914
    21  C   -0.298367
    22  C   -0.300335
    23  C   -0.482568
    24  H    0.149473
    25  H    0.149654
    26  H    0.153074
    27  H    0.152273
    28  H    0.155698
    29  H    0.155278
    30  H    0.165985
    31  C   -0.298353
    32  C   -0.299694
    33  C   -0.475737
    34  H    0.149789
    35  H    0.149734
    36  H    0.151998
    37  H    0.151927
    38  H    0.155198
    39  H    0.155289
    40  H    0.160317
 Sum of Mulliken charges =  -0.00000

 Dipole moment (field-independent basis, Debye):
    X=             -0.0245    Y=             -0.0114    Z=              0.0030  Tot=              0.0272
 Quadrupole moment (field-independent basis, Debye-Ang):
   XX=            -85.3279   YY=            -84.9556   ZZ=            -84.5006
   XY=              1.2634   XZ=             -1.2061   YZ=             -0.1487

 Normal termination of Gaussian 16 at Wed May  5 23:02:28 2021.
