 Gaussian 16, Revision A.03,
 Gaussian 16:  EM64L-G16RevA.03 25-Dec-2016

 -------------
 #p 6-31g* mp2
 -------------

 ------------------------------------------------------
 Input file generated by CHIRIPA (05-May-2021 14:57:22)
 ------------------------------------------------------
 Symbolic Z-matrix:
 Charge =  0 Multiplicity = 1

                         Standard orientation:
 ---------------------------------------------------------------------
 Center     Atomic      Atomic             Coordinates (Angstroms)
 Number     Number       Type             X           Y           Z
 ---------------------------------------------------------------------
      1          6           0        3.470187    2.099354   -1.186587
      2          6           0        3.174311    2.212487    0.175830
      3          6           0        2.872577    1.076979    0.933542
      4          6           0        2.875832   -0.161543    0.293743
      5          6           0        3.166491   -0.306794   -1.061879
      6          6           0        3.465341    0.842291   -1.800011
      7          1           0        3.703460    2.986718   -1.767591
      8          1           0        3.177327    3.187451    0.654871
      9          1           0        2.639876    1.135855    1.989857
     10          1           0        3.155607   -1.292254   -1.511510
     11          1           0        3.694740    0.751422   -2.857917
     12          7           0        2.557927   -1.370841    1.085535
     13          8           0        2.567445   -2.450526    0.498316
     14          8           0        2.305254   -1.216105    2.278368
     15          6           0       -1.848257   -2.165169   -0.984060
     16          6           0       -3.225415   -2.127431   -0.742128
     17          6           0       -3.834488   -0.954143   -0.287187
     18          6           0       -3.032634    0.167905   -0.083893
     19          6           0       -1.658068    0.161780   -0.315880
     20          6           0       -1.070349   -1.022458   -0.770540
     21          1           0       -1.383408   -3.080861   -1.337360
     22          1           0       -3.832028   -3.013354   -0.907078
     23          1           0       -4.898459   -0.897155   -0.091902
     24          1           0       -1.079490    1.060957   -0.142250
     25          1           0       -0.000602   -1.048854   -0.957589
     26          7           0       -3.666129    1.415810    0.397584
     27          8           0       -2.937640    2.390789    0.568919
     28          8           0       -4.879156    1.395308    0.594515
 ---------------------------------------------------------------------

 SCF Done:  E(RHF) =  -868.338865239     A.U. after   16 cycles
 E2 =    -0.2600431311D+01 EUMP2 =    -0.87093929654957D+03

 The electronic state is 1-A.
 Alpha  occ. eigenvalues --  -20.61617 -20.61558 -20.60592 -20.60578 -15.86626
 Alpha  occ. eigenvalues --  -15.85638 -11.31989 -11.30876 -11.28553 -11.28448
 Alpha  occ. eigenvalues --  -11.28161 -11.27511 -11.27448 -11.27439 -11.27431
 Alpha  occ. eigenvalues --  -11.27102 -11.26405 -11.26378  -1.60661  -1.59664
 Alpha  occ. eigenvalues --   -1.40213  -1.39222  -1.20131  -1.19032  -1.09508
 Alpha  occ. eigenvalues --   -1.08436  -1.05498  -1.04427  -0.96346  -0.95297
 Alpha  occ. eigenvalues --   -0.86889  -0.85823  -0.83163  -0.82146  -0.78236
 Alpha  occ. eigenvalues --   -0.77225  -0.72831  -0.72010  -0.71859  -0.71169
 Alpha  occ. eigenvalues --   -0.70982  -0.70117  -0.65750  -0.65453  -0.64684
 Alpha  occ. eigenvalues --   -0.64429  -0.62826  -0.61793  -0.55943  -0.54896
 Alpha  occ. eigenvalues --   -0.53857  -0.53551  -0.52746  -0.52510  -0.49606
 Alpha  occ. eigenvalues --   -0.49585  -0.48623  -0.48605  -0.45605  -0.44657
 Alpha  occ. eigenvalues --   -0.38084  -0.37110  -0.36973  -0.36025
 Alpha virt. eigenvalues --    0.04256   0.05325   0.10427   0.11629   0.15790
 Alpha virt. eigenvalues --    0.16849   0.20783   0.21696   0.26547   0.27118
 Alpha virt. eigenvalues --    0.27868   0.28687   0.30319   0.31148   0.32027

 Mulliken charges:
               1
     1  C   -0.170626
     2  C   -0.217835
     3  C   -0.172721
     4  C    0.154411
     5  C   -0.180964
     6  C   -0.217570
     7  H    0.230043
     8  H    0.229682
     9  H    0.280092
    10  H    0.274082
    11  H    0.226112
    12  N    0.488722
    13  O   -0.464822
    14  O   -0.453265
    15  C   -0.168845
    16  C   -0.218605
    17  C   -0.171020
    18  C    0.158686
    19  C   -0.171802
    20  C   -0.220368
    21  H    0.229779
    22  H    0.223140
    23  H    0.274555
    24  H    0.271937
    25  H    0.223261
    26  N    0.488473
    27  O   -0.463757
    28  O   -0.460773
 Sum of Mulliken charges =  -0.00000

 Dipole moment (field-independent basis, Debye):
    X=              3.5853    Y=             -0.0555    Z=             -4.4068  Tot=              5.6813
 Quadrupole moment (field-independent basis, Debye-Ang):
   XX=           -108.4116   YY=           -105.4739   ZZ=           -103.6034
   XY=             28.8660   XZ=             -3.3211   YZ=              4.3554

 Normal termination of Gaussian 16 at Thu May  6 22:42:30 2021.
