 Gaussian 16, Revision A.03,
 Gaussian 16:  EM64L-G16RevA.03 25-Dec-2016

 -------------
 #p 6-31g* mp2
 -------------

 ------------------------------------------------------
 Input file generated by CHIRIPA (05-May-2021 14:51:10)
 ------------------------------------------------------
 Symbolic Z-matrix:
 Charge =  0 Multiplicity = 1

                         Standard orientation:
 ---------------------------------------------------------------------
 Center     Atomic      Atomic             Coordinates (Angstroms)
 Number     Number       Type             X           Y           Z
 ---------------------------------------------------------------------
      1          6           0       -2.395050   -1.306336   -0.277021
      2          6           0       -0.939556   -0.919214   -0.540949
      3          6           0       -0.070422   -2.116060   -0.928196
      4          1           0       -2.428374   -2.059371    0.522212
      5          1           0       -2.808411   -1.785459   -1.175335
      6          1           0       -0.529481   -0.439717    0.357125
      7          1           0       -0.909706   -0.166872   -1.339514
      8          1           0       -0.452809   -2.591819   -1.837061
      9          1           0       -0.070424   -2.866214   -0.130781
     10          1           0        0.966072   -1.816670   -1.112333
     11          6           0       -3.276469   -0.120541    0.111203
     12          6           0       -4.731963   -0.507663    0.375131
     13          6           0       -5.601097    0.689183    0.762378
     14          1           0       -2.863108    0.358582    1.009517
     15          1           0       -3.243144    0.632494   -0.688030
     16          1           0       -4.761813   -1.260005    1.173696
     17          1           0       -5.142038   -0.987160   -0.522943
     18          1           0       -5.601095    1.439337   -0.035037
     19          1           0       -5.218710    1.164942    1.671242
     20          1           0       -6.637590    0.389793    0.946515
     21          6           0        3.399821    0.255309   -0.152430
     22          6           0        4.119146   -0.458272    0.992714
     23          6           0        5.244992   -1.371160    0.505990
     24          1           0        2.992653   -0.494184   -0.844831
     25          1           0        4.129965    0.844863   -0.724017
     26          1           0        3.387624   -1.045206    1.562804
     27          1           0        4.524484    0.293004    1.682570
     28          1           0        5.996246   -0.796126   -0.044967
     29          1           0        4.852928   -2.141939   -0.165416
     30          1           0        5.745680   -1.871236    1.340912
     31          6           0        2.271698    1.171568    0.318249
     32          6           0        1.552373    1.885150   -0.826896
     33          6           0        0.426526    2.798036   -0.340172
     34          1           0        1.541554    0.582014    0.889835
     35          1           0        2.678866    1.921061    1.010649
     36          1           0        1.147035    1.133874   -1.516752
     37          1           0        2.283895    2.472083   -1.396985
     38          1           0        0.818592    3.568816    0.331234
     39          1           0       -0.324727    2.223003    0.210785
     40          1           0       -0.074161    3.298113   -1.175094
 ---------------------------------------------------------------------

 SCF Done:  E(RHF) =  -470.731609199     A.U. after   11 cycles
 E2 =    -0.1585818542D+01 EUMP2 =    -0.47231742774067D+03

 The electronic state is 1-A.
 Alpha  occ. eigenvalues --  -11.21647 -11.21633 -11.21587 -11.21497 -11.21453
 Alpha  occ. eigenvalues --  -11.21393 -11.21370 -11.21295 -11.21157 -11.21086
 Alpha  occ. eigenvalues --  -11.21057 -11.20968  -1.08532  -1.08356  -1.03637
 Alpha  occ. eigenvalues --   -1.03439  -0.96049  -0.95928  -0.87058  -0.86949
 Alpha  occ. eigenvalues --   -0.79689  -0.79539  -0.78336  -0.78207  -0.65205
 Alpha  occ. eigenvalues --   -0.65040  -0.61012  -0.60941  -0.59330  -0.59298
 Alpha  occ. eigenvalues --   -0.57626  -0.57551  -0.55382  -0.55185  -0.52753
 Alpha  occ. eigenvalues --   -0.52634  -0.52452  -0.52351  -0.50000  -0.49873
 Alpha  occ. eigenvalues --   -0.48133  -0.47725  -0.47034  -0.46430  -0.46035
 Alpha  occ. eigenvalues --   -0.45874  -0.45577  -0.45219  -0.43811  -0.43734
 Alpha virt. eigenvalues --    0.20094   0.22675   0.23640   0.24730   0.25117
 Alpha virt. eigenvalues --    0.26188   0.26408   0.27597   0.29053   0.29427
 Alpha virt. eigenvalues --    0.30678   0.30946   0.31763   0.31881   0.32187

 Mulliken charges:
               1
     1  C   -0.297463
     2  C   -0.306252
     3  C   -0.482851
     4  H    0.149455
     5  H    0.149597
     6  H    0.156247
     7  H    0.155422
     8  H    0.155915
     9  H    0.155493
    10  H    0.165418
    11  C   -0.299416
    12  C   -0.299684
    13  C   -0.475762
    14  H    0.149464
    15  H    0.150625
    16  H    0.151987
    17  H    0.152089
    18  H    0.155414
    19  H    0.155340
    20  H    0.160334
    21  C   -0.302813
    22  C   -0.299639
    23  C   -0.475720
    24  H    0.152903
    25  H    0.149877
    26  H    0.151935
    27  H    0.151997
    28  H    0.155166
    29  H    0.155189
    30  H    0.160205
    31  C   -0.302240
    32  C   -0.302485
    33  C   -0.478817
    34  H    0.153205
    35  H    0.149670
    36  H    0.155855
    37  H    0.151664
    38  H    0.154494
    39  H    0.159080
    40  H    0.159100
 Sum of Mulliken charges =  -0.00000

 Dipole moment (field-independent basis, Debye):
    X=             -0.0399    Y=             -0.0211    Z=             -0.0042  Tot=              0.0454
 Quadrupole moment (field-independent basis, Debye-Ang):
   XX=            -85.6252   YY=            -85.3595   ZZ=            -83.9044
   XY=              1.5830   XZ=              0.6742   YZ=             -0.4452

 Normal termination of Gaussian 16 at Wed May  5 19:46:29 2021.
