 Gaussian 16, Revision A.03,
 Gaussian 16:  EM64L-G16RevA.03 25-Dec-2016

 -------------
 #p 6-31g* mp2
 -------------

 ------------------------------------------------------
 Input file generated by CHIRIPA (05-May-2021 14:55:21)
 ------------------------------------------------------
 Symbolic Z-matrix:
 Charge =  0 Multiplicity = 1

                         Standard orientation:
 ---------------------------------------------------------------------
 Center     Atomic      Atomic             Coordinates (Angstroms)
 Number     Number       Type             X           Y           Z
 ---------------------------------------------------------------------
      1          6           0       -0.532284    0.598769    1.202639
      2          6           0       -1.530018    1.528102    0.890571
      3          6           0       -2.746655    1.107445    0.345237
      4          6           0       -2.932661   -0.256288    0.124051
      5          6           0       -1.957950   -1.206553    0.424424
      6          6           0       -0.749052   -0.763192    0.968982
      7          1           0        0.409824    0.934364    1.625967
      8          1           0       -1.364445    2.586446    1.070959
      9          1           0       -3.536147    1.805420    0.094337
     10          1           0       -2.152205   -2.254956    0.233286
     11          1           0        0.024012   -1.487176    1.210362
     12          7           0       -4.216564   -0.713637   -0.452859
     13          8           0       -4.355781   -1.920665   -0.638168
     14          8           0       -5.059360    0.143581   -0.708808
     15          6           0        2.902224    0.639204   -0.563360
     16          6           0        2.917606    2.103239   -0.122508
     17          6           0        1.749597    2.905763   -0.696531
     18          1           0        2.927946    0.593035   -1.660698
     19          1           0        1.953253    0.180130   -0.253359
     20          1           0        3.866845    2.559041   -0.432033
     21          1           0        2.892038    2.145922    0.973914
     22          1           0        0.794029    2.477488   -0.377047
     23          1           0        1.774374    2.892953   -1.790982
     24          1           0        1.780097    3.949530   -0.368687
     25          6           0        4.063686   -0.176070    0.002379
     26          6           0        4.048305   -1.640105   -0.438473
     27          6           0        5.216313   -2.442631    0.135550
     28          1           0        5.012657    0.283003   -0.307622
     29          1           0        4.037965   -0.129902    1.099717
     30          1           0        4.073872   -1.682789   -1.534894
     31          1           0        3.099065   -2.095908   -0.128948
     32          1           0        5.191536   -2.429821    1.230001
     33          1           0        6.171882   -2.014355   -0.183934
     34          1           0        5.185813   -3.486397   -0.192294
 ---------------------------------------------------------------------

 SCF Done:  E(RHF) =  -669.533389931     A.U. after   15 cycles
 E2 =    -0.2094921965D+01 EUMP2 =    -0.67162831189609D+03

 The electronic state is 1-A.
 Alpha  occ. eigenvalues --  -20.60816 -20.60811 -15.85872 -11.31270 -11.27860
 Alpha  occ. eigenvalues --  -11.27851 -11.27577 -11.26865 -11.26835 -11.22546
 Alpha  occ. eigenvalues --  -11.22369 -11.22216 -11.22156 -11.21825 -11.21702
 Alpha  occ. eigenvalues --   -1.59891  -1.39444  -1.19466  -1.09298  -1.08845
 Alpha  occ. eigenvalues --   -1.04871  -1.04345  -0.96772  -0.95685  -0.87796
 Alpha  occ. eigenvalues --   -0.86265  -0.82508  -0.80408  -0.79079  -0.77540
 Alpha  occ. eigenvalues --   -0.72092  -0.71215  -0.70649  -0.65978  -0.65128
 Alpha  occ. eigenvalues --   -0.64824  -0.62242  -0.61742  -0.60135  -0.58371
 Alpha  occ. eigenvalues --   -0.56089  -0.55342  -0.53456  -0.53327  -0.53091
 Alpha  occ. eigenvalues --   -0.52942  -0.50727  -0.48852  -0.48842  -0.48692
 Alpha  occ. eigenvalues --   -0.47466  -0.46593  -0.46563  -0.44843  -0.44588
 Alpha  occ. eigenvalues --   -0.37309  -0.36446
 Alpha virt. eigenvalues --    0.04960   0.10908   0.16371   0.19032   0.22724
 Alpha virt. eigenvalues --    0.23374   0.25372   0.25876   0.27047   0.28269
 Alpha virt. eigenvalues --    0.29448   0.30436   0.30915   0.31346   0.32129

 Mulliken charges:
               1
     1  C   -0.170840
     2  C   -0.220535
     3  C   -0.171479
     4  C    0.158167
     5  C   -0.170730
     6  C   -0.220151
     7  H    0.232013
     8  H    0.226148
     9  H    0.276369
    10  H    0.276249
    11  H    0.224651
    12  N    0.488121
    13  O   -0.460167
    14  O   -0.460073
    15  C   -0.305309
    16  C   -0.302396
    17  C   -0.485031
    18  H    0.154960
    19  H    0.149206
    20  H    0.157424
    21  H    0.143671
    22  H    0.157978
    23  H    0.160906
    24  H    0.159595
    25  C   -0.298533
    26  C   -0.298841
    27  C   -0.476133
    28  H    0.153030
    29  H    0.145569
    30  H    0.155755
    31  H    0.145818
    32  H    0.154507
    33  H    0.157509
    34  H    0.162572
 Sum of Mulliken charges =  -0.00000

 Dipole moment (field-independent basis, Debye):
    X=              4.5422    Y=              1.5749    Z=              1.9314  Tot=              5.1809
 Quadrupole moment (field-independent basis, Debye-Ang):
   XX=           -121.1376   YY=            -91.6418   ZZ=            -94.4200
   XY=             -7.1849   XZ=             -6.5075   YZ=             -0.5306

 Normal termination of Gaussian 16 at Thu May  6 14:11:12 2021.
