 Gaussian 16, Revision A.03,
 Gaussian 16:  EM64L-G16RevA.03 25-Dec-2016

 -------------
 #p 6-31g* mp2
 -------------

 ------------------------------------------------------
 Input file generated by CHIRIPA (05-May-2021 14:55:23)
 ------------------------------------------------------
 Symbolic Z-matrix:
 Charge =  0 Multiplicity = 1

                         Standard orientation:
 ---------------------------------------------------------------------
 Center     Atomic      Atomic             Coordinates (Angstroms)
 Number     Number       Type             X           Y           Z
 ---------------------------------------------------------------------
      1          6           0       -1.515326    2.301645    0.718568
      2          6           0       -1.100656    1.279081    1.578180
      3          6           0       -1.382457   -0.057345    1.279679
      4          6           0       -2.084037   -0.336518    0.107870
      5          6           0       -2.510614    0.660009   -0.768632
      6          6           0       -2.217743    1.989396   -0.450034
      7          1           0       -1.292117    3.337079    0.958256
      8          1           0       -0.554988    1.518625    2.486425
      9          1           0       -1.073283   -0.868638    1.927470
     10          1           0       -3.052863    0.390103   -1.666706
     11          1           0       -2.541024    2.781472   -1.119474
     12          7           0       -2.388227   -1.747606   -0.218777
     13          8           0       -3.007756   -1.967288   -1.257315
     14          8           0       -2.001362   -2.607217    0.569920
     15          6           0        2.917437   -0.431602    0.200408
     16          6           0        2.878373   -1.785486   -0.509139
     17          6           0        3.510356   -2.905079    0.318449
     18          1           0        3.960671   -0.175335    0.430486
     19          1           0        2.396309   -0.515383    1.164150
     20          1           0        3.398220   -1.698816   -1.471877
     21          1           0        1.835127   -2.038470   -0.737727
     22          1           0        2.987447   -3.020495    1.273356
     23          1           0        4.559422   -2.678911    0.535036
     24          1           0        3.471657   -3.864048   -0.207612
     25          6           0        2.289355    0.697724   -0.614373
     26          6           0        2.328419    2.051608    0.095173
     27          6           0        1.696436    3.171200   -0.732416
     28          1           0        2.810484    0.781505   -1.578116
     29          1           0        1.246122    0.441457   -0.844453
     30          1           0        3.371665    2.304591    0.323762
     31          1           0        1.808573    1.964937    1.057911
     32          1           0        0.647371    2.945033   -0.949002
     33          1           0        2.219345    3.286616   -1.687322
     34          1           0        1.735135    4.130169   -0.206353
 ---------------------------------------------------------------------

 SCF Done:  E(RHF) =  -669.534500007     A.U. after   15 cycles
 E2 =    -0.2095497389D+01 EUMP2 =    -0.67162999739665D+03

 The electronic state is 1-A.
 Alpha  occ. eigenvalues --  -20.60894 -20.60889 -15.85950 -11.31351 -11.27942
 Alpha  occ. eigenvalues --  -11.27930 -11.27645 -11.26923 -11.26913 -11.21975
 Alpha  occ. eigenvalues --  -11.21542 -11.21509 -11.21501 -11.21451 -11.20900
 Alpha  occ. eigenvalues --   -1.59969  -1.39521  -1.19543  -1.08942  -1.08556
 Alpha  occ. eigenvalues --   -1.04942  -1.03671  -0.96154  -0.95725  -0.87160
 Alpha  occ. eigenvalues --   -0.86332  -0.82573  -0.79756  -0.78367  -0.77614
 Alpha  occ. eigenvalues --   -0.72164  -0.71297  -0.70633  -0.65276  -0.65184
 Alpha  occ. eigenvalues --   -0.64905  -0.62280  -0.61119  -0.59525  -0.57731
 Alpha  occ. eigenvalues --   -0.55593  -0.55287  -0.53234  -0.53026  -0.52828
 Alpha  occ. eigenvalues --   -0.52543  -0.50091  -0.48927  -0.48918  -0.48050
 Alpha  occ. eigenvalues --   -0.46782  -0.45905  -0.45799  -0.44917  -0.43923
 Alpha  occ. eigenvalues --   -0.37409  -0.36510
 Alpha virt. eigenvalues --    0.04902   0.10941   0.16328   0.20348   0.22991
 Alpha virt. eigenvalues --    0.24159   0.25544   0.26700   0.27229   0.28477
 Alpha virt. eigenvalues --    0.29023   0.30222   0.31248   0.31522   0.32088

 Mulliken charges:
               1
     1  C   -0.168572
     2  C   -0.216756
     3  C   -0.171991
     4  C    0.157845
     5  C   -0.170710
     6  C   -0.219880
     7  H    0.229350
     8  H    0.224564
     9  H    0.276255
    10  H    0.276594
    11  H    0.225144
    12  N    0.487924
    13  O   -0.459712
    14  O   -0.460215
    15  C   -0.297241
    16  C   -0.300850
    17  C   -0.475242
    18  H    0.149079
    19  H    0.143724
    20  H    0.151856
    21  H    0.157000
    22  H    0.155524
    23  H    0.153002
    24  H    0.163506
    25  C   -0.300450
    26  C   -0.296610
    27  C   -0.482852
    28  H    0.150193
    29  H    0.154247
    30  H    0.152593
    31  H    0.143786
    32  H    0.157550
    33  H    0.157746
    34  H    0.153597
 Sum of Mulliken charges =  -0.00000

 Dipole moment (field-independent basis, Debye):
    X=              0.9316    Y=              4.8610    Z=              1.1145  Tot=              5.0734
 Quadrupole moment (field-independent basis, Debye-Ang):
   XX=            -98.2652   YY=            -99.2237   ZZ=            -91.2702
   XY=            -11.4757   XZ=             -0.8043   YZ=             -0.8276

 Normal termination of Gaussian 16 at Thu May  6 03:08:17 2021.
