 Gaussian 16, Revision A.03,
 Gaussian 16:  EM64L-G16RevA.03 25-Dec-2016

 -------------
 #p 6-31g* mp2
 -------------

 ------------------------------------------------------
 Input file generated by CHIRIPA (05-May-2021 14:53:17)
 ------------------------------------------------------
 Symbolic Z-matrix:
 Charge =  0 Multiplicity = 1

                         Standard orientation:
 ---------------------------------------------------------------------
 Center     Atomic      Atomic             Coordinates (Angstroms)
 Number     Number       Type             X           Y           Z
 ---------------------------------------------------------------------
      1          6           0        3.938810   -0.051986   -0.264457
      2          6           0        5.411114   -0.421728   -0.081166
      3          6           0        6.355825    0.533641   -0.810951
      4          1           0        3.699704   -0.045525   -1.336712
      5          1           0        3.777441    0.972717    0.097952
      6          1           0        5.569373   -1.445925   -0.442539
      7          1           0        5.646694   -0.427496    0.990788
      8          1           0        6.227101    1.557284   -0.444639
      9          1           0        6.149340    0.533069   -1.886109
     10          1           0        7.403202    0.250809   -0.666490
     11          6           0        2.982029   -0.997823    0.459207
     12          6           0        1.509724   -0.628081    0.275916
     13          6           0        0.565014   -1.583449    1.005702
     14          1           0        3.143398   -2.022525    0.096798
     15          1           0        3.221135   -1.004283    1.531463
     16          1           0        1.274144   -0.622312   -0.796037
     17          1           0        1.351465    0.396117    0.637289
     18          1           0        0.771498   -1.582877    2.080860
     19          1           0        0.693738   -2.607093    0.639389
     20          1           0       -0.482363   -1.300617    0.861241
     21          6           0       -1.067187    2.191229    0.642305
     22          6           0       -1.731119    1.421909    1.603482
     23          6           0       -2.639830    0.432274    1.216938
     24          6           0       -2.861641    0.237886   -0.145525
     25          6           0       -2.215732    0.988050   -1.127027
     26          6           0       -1.311181    1.972230   -0.717484
     27          1           0       -0.362894    2.957882    0.951514
     28          1           0       -1.543598    1.589784    2.660222
     29          1           0       -3.167576   -0.177718    1.939997
     30          1           0       -2.423408    0.797503   -2.172962
     31          1           0       -0.797004    2.568184   -1.466153
     32          7           0       -3.821450   -0.806908   -0.566916
     33          8           0       -3.999349   -0.958577   -1.773557
     34          8           0       -4.377675   -1.454366    0.317420
 ---------------------------------------------------------------------

 SCF Done:  E(RHF) =  -669.533876086     A.U. after   15 cycles
 E2 =    -0.2094742658D+01 EUMP2 =    -0.67162861874471D+03

 The electronic state is 1-A.
 Alpha  occ. eigenvalues --  -20.60820 -20.60815 -15.85876 -11.31260 -11.27852
 Alpha  occ. eigenvalues --  -11.27816 -11.27592 -11.26863 -11.26848 -11.21881
 Alpha  occ. eigenvalues --  -11.21731 -11.21709 -11.21568 -11.21363 -11.21019
 Alpha  occ. eigenvalues --   -1.59897  -1.39449  -1.19470  -1.08855  -1.08664
 Alpha  occ. eigenvalues --   -1.04866  -1.03725  -0.96177  -0.95678  -0.87194
 Alpha  occ. eigenvalues --   -0.86256  -0.82500  -0.79802  -0.78498  -0.77540
 Alpha  occ. eigenvalues --   -0.72093  -0.71230  -0.70566  -0.65313  -0.65106
 Alpha  occ. eigenvalues --   -0.64852  -0.62200  -0.61142  -0.59649  -0.57908
 Alpha  occ. eigenvalues --   -0.55484  -0.55363  -0.53593  -0.52944  -0.52685
 Alpha  occ. eigenvalues --   -0.52135  -0.50126  -0.48855  -0.48846  -0.48149
 Alpha  occ. eigenvalues --   -0.46854  -0.46043  -0.45979  -0.44849  -0.44019
 Alpha  occ. eigenvalues --   -0.37348  -0.36382
 Alpha virt. eigenvalues --    0.04966   0.11125   0.16397   0.21158   0.22680
 Alpha virt. eigenvalues --    0.24163   0.26320   0.26904   0.27307   0.27806
 Alpha virt. eigenvalues --    0.28423   0.30676   0.31288   0.31745   0.31825

 Mulliken charges:
               1
     1  C   -0.297242
     2  C   -0.299607
     3  C   -0.475677
     4  H    0.149294
     5  H    0.144495
     6  H    0.153645
     7  H    0.151889
     8  H    0.153529
     9  H    0.155326
    10  H    0.161344
    11  C   -0.298503
    12  C   -0.297588
    13  C   -0.480707
    14  H    0.151412
    15  H    0.148230
    16  H    0.150725
    17  H    0.146184
    18  H    0.149955
    19  H    0.156962
    20  H    0.168105
    21  C   -0.171087
    22  C   -0.211506
    23  C   -0.179456
    24  C    0.162307
    25  C   -0.172296
    26  C   -0.214162
    27  H    0.226074
    28  H    0.224201
    29  H    0.276301
    30  H    0.276075
    31  H    0.224317
    32  N    0.487988
    33  O   -0.460394
    34  O   -0.460131
 Sum of Mulliken charges =  -0.00000

 Dipole moment (field-independent basis, Debye):
    X=              3.2766    Y=              3.7200    Z=              1.4616  Tot=              5.1683
 Quadrupole moment (field-independent basis, Debye-Ang):
   XX=           -115.5254   YY=            -93.3613   ZZ=            -90.1790
   XY=            -10.1352   XZ=             -5.4221   YZ=             -0.5693

 Normal termination of Gaussian 16 at Thu May  6 10:41:23 2021.
