 Gaussian 16, Revision A.03,
 Gaussian 16:  EM64L-G16RevA.03 25-Dec-2016

 -------------
 #p 6-31g* mp2
 -------------

 ------------------------------------------------------
 Input file generated by CHIRIPA (05-May-2021 14:53:14)
 ------------------------------------------------------
 Symbolic Z-matrix:
 Charge =  0 Multiplicity = 1

                         Standard orientation:
 ---------------------------------------------------------------------
 Center     Atomic      Atomic             Coordinates (Angstroms)
 Number     Number       Type             X           Y           Z
 ---------------------------------------------------------------------
      1          6           0        2.736464   -0.439623   -0.231720
      2          6           0        3.684276   -1.592907   -0.562741
      3          6           0        2.971683   -2.944214   -0.625766
      4          1           0        2.244991   -0.641785    0.729805
      5          1           0        1.939996   -0.400282   -0.987687
      6          1           0        4.479499   -1.629197    0.192851
      7          1           0        4.173694   -1.387885   -1.523497
      8          1           0        2.190127   -2.932208   -1.392335
      9          1           0        2.497670   -3.174892    0.333765
     10          1           0        3.667873   -3.754494   -0.863730
     11          6           0        3.434089    0.917808   -0.165167
     12          6           0        2.486277    2.071091    0.165854
     13          6           0        3.198870    3.422399    0.228879
     14          1           0        4.230557    0.878466    0.590800
     15          1           0        3.925562    1.119969   -1.126692
     16          1           0        1.996859    1.866069    1.126610
     17          1           0        1.691054    2.107381   -0.589738
     18          1           0        3.672883    3.653076   -0.730653
     19          1           0        3.980425    3.410393    0.995448
     20          1           0        2.502680    4.232678    0.466843
     21          6           0       -3.782560    1.768989   -0.656108
     22          6           0       -4.174299    0.462499   -0.966179
     23          6           0       -3.421644   -0.628739   -0.522041
     24          6           0       -2.277714   -0.375869    0.233452
     25          6           0       -1.861462    0.914162    0.558793
     26          6           0       -2.629424    1.990260    0.104049
     27          1           0       -4.373186    2.610808   -1.005245
     28          1           0       -5.069379    0.287659   -1.556354
     29          1           0       -3.702016   -1.650467   -0.747610
     30          1           0       -0.964359    1.056863    1.148931
     31          1           0       -2.322794    3.003819    0.346372
     32          7           0       -1.472810   -1.523099    0.709256
     33          8           0       -0.469092   -1.273651    1.373307
     34          8           0       -1.860884   -2.650024    0.409130
 ---------------------------------------------------------------------

 SCF Done:  E(RHF) =  -669.536198009     A.U. after   15 cycles
 E2 =    -0.2092080275D+01 EUMP2 =    -0.67162827828417D+03

 The electronic state is 1-A.
 Alpha  occ. eigenvalues --  -20.60881 -20.60861 -15.85903 -11.31225 -11.27795
 Alpha  occ. eigenvalues --  -11.27775 -11.27534 -11.26804 -11.26789 -11.21532
 Alpha  occ. eigenvalues --  -11.21084 -11.20936 -11.20750 -11.20436 -11.19968
 Alpha  occ. eigenvalues --   -1.59930  -1.39487  -1.19396  -1.08801  -1.07867
 Alpha  occ. eigenvalues --   -1.04791  -1.02994  -0.95644  -0.95409  -0.86428
 Alpha  occ. eigenvalues --   -0.86191  -0.82480  -0.79134  -0.77687  -0.77419
 Alpha  occ. eigenvalues --   -0.72133  -0.71239  -0.70505  -0.65055  -0.64795
 Alpha  occ. eigenvalues --   -0.64498  -0.62137  -0.60393  -0.58863  -0.57008
 Alpha  occ. eigenvalues --   -0.55300  -0.54680  -0.53125  -0.52885  -0.52170
 Alpha  occ. eigenvalues --   -0.51810  -0.49346  -0.48895  -0.48881  -0.47415
 Alpha  occ. eigenvalues --   -0.46181  -0.45406  -0.45053  -0.44516  -0.43216
 Alpha  occ. eigenvalues --   -0.37378  -0.36390
 Alpha virt. eigenvalues --    0.04975   0.11243   0.16444   0.20874   0.23248
 Alpha virt. eigenvalues --    0.24712   0.25779   0.27158   0.27698   0.28552
 Alpha virt. eigenvalues --    0.29360   0.31103   0.31754   0.32034   0.32150

 Mulliken charges:
               1
     1  C   -0.304251
     2  C   -0.299736
     3  C   -0.475998
     4  H    0.173130
     5  H    0.143128
     6  H    0.149337
     7  H    0.146440
     8  H    0.153782
     9  H    0.168718
    10  H    0.154882
    11  C   -0.297523
    12  C   -0.301710
    13  C   -0.474476
    14  H    0.149200
    15  H    0.147100
    16  H    0.150822
    17  H    0.147443
    18  H    0.155718
    19  H    0.156905
    20  H    0.154517
    21  C   -0.170607
    22  C   -0.218744
    23  C   -0.170789
    24  C    0.157567
    25  C   -0.171747
    26  C   -0.219507
    27  H    0.225735
    28  H    0.223526
    29  H    0.275602
    30  H    0.278755
    31  H    0.224017
    32  N    0.490128
    33  O   -0.461789
    34  O   -0.459576
 Sum of Mulliken charges =  -0.00000

 Dipole moment (field-independent basis, Debye):
    X=             -2.9646    Y=              3.8871    Z=             -1.5468  Tot=              5.1275
 Quadrupole moment (field-independent basis, Debye-Ang):
   XX=            -80.7753   YY=            -97.5192   ZZ=            -94.3751
   XY=             -6.5466   XZ=              5.4988   YZ=              2.7248

 Normal termination of Gaussian 16 at Thu May  6 10:31:35 2021.
