 Gaussian 16, Revision A.03,
 Gaussian 16:  EM64L-G16RevA.03 25-Dec-2016

 -------------
 #p 6-31g* mp2
 -------------

 ------------------------------------------------------
 Input file generated by CHIRIPA (05-May-2021 14:51:09)
 ------------------------------------------------------
 Symbolic Z-matrix:
 Charge =  0 Multiplicity = 1

                         Standard orientation:
 ---------------------------------------------------------------------
 Center     Atomic      Atomic             Coordinates (Angstroms)
 Number     Number       Type             X           Y           Z
 ---------------------------------------------------------------------
      1          6           0        4.344259   -0.044494    0.388435
      2          6           0        5.784388   -0.269867   -0.073322
      3          6           0        6.802713    0.497200    0.770726
      4          1           0        4.118047    1.029947    0.351698
      5          1           0        4.252284   -0.347481    1.440640
      6          1           0        5.873286    0.032159   -1.124746
      7          1           0        6.007136   -1.343916   -0.035663
      8          1           0        6.743180    0.189770    1.819794
      9          1           0        6.608569    1.573663    0.724523
     10          1           0        7.825636    0.321735    0.423305
     11          6           0        3.314641   -0.804744   -0.445612
     12          6           0        1.874512   -0.579372    0.016145
     13          6           0        0.856187   -1.346438   -0.827903
     14          1           0        3.406616   -0.501758   -1.497817
     15          1           0        3.540853   -1.879186   -0.408875
     16          1           0        1.651764    0.494677   -0.021514
     17          1           0        1.785614   -0.881398    1.067569
     18          1           0        1.050331   -2.422902   -0.781700
     19          1           0        0.915720   -1.039008   -1.876971
     20          1           0       -0.166736   -1.170974   -0.480482
     21          6           0       -4.365873    0.162231    0.504860
     22          6           0       -5.515222   -0.549686   -0.209393
     23          6           0       -6.580432   -1.068966    0.756768
     24          1           0       -3.905153   -0.528985    1.223820
     25          1           0       -4.769981    0.999261    1.090926
     26          1           0       -5.108905   -1.384277   -0.795038
     27          1           0       -5.973137    0.143245   -0.926874
     28          1           0       -7.013164   -0.244416    1.332493
     29          1           0       -6.144022   -1.780616    1.465077
     30          1           0       -7.392621   -1.574376    0.225006
     31          6           0       -3.293026    0.687008   -0.447683
     32          6           0       -2.143677    1.398924    0.266571
     33          6           0       -1.078468    1.918206   -0.699591
     34          1           0       -2.888919   -0.150021   -1.033748
     35          1           0       -3.753746    1.378224   -1.166642
     36          1           0       -1.685763    0.705994    0.984050
     37          1           0       -2.549994    2.233515    0.852215
     38          1           0       -1.514877    2.629855   -1.407901
     39          1           0       -0.645735    1.093655   -1.275316
     40          1           0       -0.266278    2.423615   -0.167830
 ---------------------------------------------------------------------

 SCF Done:  E(RHF) =  -470.732385484     A.U. after   11 cycles
 E2 =    -0.1583840172D+01 EUMP2 =    -0.47231622565609D+03

 The electronic state is 1-A.
 Alpha  occ. eigenvalues --  -11.21598 -11.21596 -11.21595 -11.21566 -11.21405
 Alpha  occ. eigenvalues --  -11.21399 -11.21346 -11.21340 -11.21109 -11.21068
 Alpha  occ. eigenvalues --  -11.21066 -11.20975  -1.08456  -1.08400  -1.03613
 Alpha  occ. eigenvalues --   -1.03448  -0.96080  -0.95887  -0.87041  -0.86961
 Alpha  occ. eigenvalues --   -0.79605  -0.79579  -0.78240  -0.78237  -0.65172
 Alpha  occ. eigenvalues --   -0.64993  -0.61254  -0.60764  -0.59341  -0.59285
 Alpha  occ. eigenvalues --   -0.57593  -0.57583  -0.55513  -0.54983  -0.52700
 Alpha  occ. eigenvalues --   -0.52662  -0.52437  -0.52341  -0.50012  -0.49805
 Alpha  occ. eigenvalues --   -0.47974  -0.47826  -0.46634  -0.46590  -0.45784
 Alpha  occ. eigenvalues --   -0.45766  -0.45714  -0.45683  -0.43814  -0.43728
 Alpha virt. eigenvalues --    0.20524   0.22973   0.23640   0.25341   0.25870
 Alpha virt. eigenvalues --    0.26526   0.26837   0.27577   0.27852   0.29199
 Alpha virt. eigenvalues --    0.30617   0.31161   0.31415   0.32090   0.32610

 Mulliken charges:
               1
     1  C   -0.298267
     2  C   -0.299646
     3  C   -0.475715
     4  H    0.149619
     5  H    0.149457
     6  H    0.151985
     7  H    0.151916
     8  H    0.155147
     9  H    0.155198
    10  H    0.160248
    11  C   -0.298024
    12  C   -0.303730
    13  C   -0.482205
    14  H    0.149558
    15  H    0.149423
    16  H    0.158324
    17  H    0.151337
    18  H    0.156238
    19  H    0.154834
    20  H    0.163887
    21  C   -0.298140
    22  C   -0.299701
    23  C   -0.475711
    24  H    0.149452
    25  H    0.149599
    26  H    0.152103
    27  H    0.151952
    28  H    0.155156
    29  H    0.155186
    30  H    0.160272
    31  C   -0.300564
    32  C   -0.301417
    33  C   -0.481877
    34  H    0.150738
    35  H    0.149990
    36  H    0.152488
    37  H    0.152424
    38  H    0.154479
    39  H    0.164365
    40  H    0.159621
 Sum of Mulliken charges =  -0.00000

 Dipole moment (field-independent basis, Debye):
    X=              0.0045    Y=              0.0018    Z=             -0.0103  Tot=              0.0114
 Quadrupole moment (field-independent basis, Debye-Ang):
   XX=            -86.0382   YY=            -83.8587   ZZ=            -84.9805
   XY=             -1.2537   XZ=              0.1379   YZ=             -0.5948

 Normal termination of Gaussian 16 at Wed May  5 19:44:58 2021.
