 Gaussian 16, Revision A.03,
 Gaussian 16:  EM64L-G16RevA.03 25-Dec-2016

 -------------
 #p 6-31g* mp2
 -------------

 ------------------------------------------------------
 Input file generated by CHIRIPA (05-May-2021 14:51:07)
 ------------------------------------------------------
 Symbolic Z-matrix:
 Charge =  0 Multiplicity = 1

                         Standard orientation:
 ---------------------------------------------------------------------
 Center     Atomic      Atomic             Coordinates (Angstroms)
 Number     Number       Type             X           Y           Z
 ---------------------------------------------------------------------
      1          6           0       -3.021738   -0.464788   -0.378796
      2          6           0       -4.062193    0.265572    0.470917
      3          6           0       -4.978981    1.163838   -0.359994
      4          1           0       -2.418094    0.274214   -0.923254
      5          1           0       -3.537284   -1.068213   -1.138721
      6          1           0       -3.544873    0.866358    1.229898
      7          1           0       -4.663306   -0.475248    1.013563
      8          1           0       -5.521013    0.575193   -1.107188
      9          1           0       -4.396225    1.924423   -0.889624
     10          1           0       -5.715008    1.676273    0.267329
     11          6           0       -2.097779   -1.366701    0.437649
     12          6           0       -1.057324   -2.097061   -0.412064
     13          6           0       -0.140536   -2.995327    0.418847
     14          1           0       -1.582233   -0.763276    1.197574
     15          1           0       -2.701423   -2.105702    0.982107
     16          1           0       -0.456211   -1.356241   -0.954710
     17          1           0       -1.574644   -2.697847   -1.171045
     18          1           0       -0.723292   -3.755912    0.948478
     19          1           0        0.401495   -2.406682    1.166041
     20          1           0        0.595491   -3.507762   -0.208476
     21          6           0        1.945657    1.331330   -0.212729
     22          6           0        1.969998    2.741874    0.376980
     23          6           0        0.734778    3.561013    0.001432
     24          1           0        1.867653    1.399331   -1.306455
     25          1           0        1.041165    0.812258    0.133470
     26          1           0        2.874876    3.257653    0.030883
     27          1           0        2.048147    2.670508    1.469416
     28          1           0       -0.176070    3.071368    0.360883
     29          1           0        0.655356    3.661850   -1.085824
     30          1           0        0.772863    4.565881    0.433462
     31          6           0        3.173861    0.500159    0.153876
     32          6           0        3.149519   -0.910385   -0.435834
     33          6           0        4.384739   -1.729524   -0.060285
     34          1           0        4.078352    1.019231   -0.192323
     35          1           0        3.251864    0.432157    1.247601
     36          1           0        3.071370   -0.839019   -1.528270
     37          1           0        2.244641   -1.426165   -0.089737
     38          1           0        4.464160   -1.830361    1.026971
     39          1           0        5.295587   -1.239879   -0.419737
     40          1           0        4.346654   -2.734391   -0.492315
 ---------------------------------------------------------------------

 SCF Done:  E(RHF) =  -470.732899939     A.U. after   11 cycles
 E2 =    -0.1584128223D+01 EUMP2 =    -0.47231702816195D+03

 The electronic state is 1-A.
 Alpha  occ. eigenvalues --  -11.21653 -11.21615 -11.21610 -11.21500 -11.21445
 Alpha  occ. eigenvalues --  -11.21433 -11.21368 -11.21363 -11.21133 -11.21121
 Alpha  occ. eigenvalues --  -11.21070 -11.21039  -1.08487  -1.08419  -1.03591
 Alpha  occ. eigenvalues --   -1.03504  -0.96027  -0.95981  -0.87059  -0.86981
 Alpha  occ. eigenvalues --   -0.79656  -0.79561  -0.78300  -0.78237  -0.65302
 Alpha  occ. eigenvalues --   -0.64896  -0.61159  -0.60767  -0.59451  -0.59282
 Alpha  occ. eigenvalues --   -0.57655  -0.57564  -0.55382  -0.55224  -0.52715
 Alpha  occ. eigenvalues --   -0.52668  -0.52431  -0.52418  -0.50112  -0.49803
 Alpha  occ. eigenvalues --   -0.47940  -0.47894  -0.46756  -0.46492  -0.45990
 Alpha  occ. eigenvalues --   -0.45805  -0.45687  -0.45513  -0.43814  -0.43785
 Alpha virt. eigenvalues --    0.19599   0.22627   0.23783   0.24636   0.26110
 Alpha virt. eigenvalues --    0.26500   0.27201   0.27625   0.27828   0.30129
 Alpha virt. eigenvalues --    0.30931   0.31486   0.31700   0.31766   0.32259

 Mulliken charges:
               1
     1  C   -0.298984
     2  C   -0.299564
     3  C   -0.475814
     4  H    0.150602
     5  H    0.149705
     6  H    0.151503
     7  H    0.151948
     8  H    0.155178
     9  H    0.155637
    10  H    0.160292
    11  C   -0.298740
    12  C   -0.304345
    13  C   -0.479446
    14  H    0.148895
    15  H    0.149886
    16  H    0.156813
    17  H    0.152431
    18  H    0.156973
    19  H    0.154526
    20  H    0.161665
    21  C   -0.301873
    22  C   -0.299587
    23  C   -0.475818
    24  H    0.149673
    25  H    0.151650
    26  H    0.152460
    27  H    0.151998
    28  H    0.154423
    29  H    0.155290
    30  H    0.160683
    31  C   -0.297664
    32  C   -0.311506
    33  C   -0.475000
    34  H    0.149555
    35  H    0.149013
    36  H    0.150871
    37  H    0.167016
    38  H    0.154846
    39  H    0.154906
    40  H    0.159902
 Sum of Mulliken charges =  -0.00000

 Dipole moment (field-independent basis, Debye):
    X=             -0.0163    Y=             -0.0178    Z=             -0.0117  Tot=              0.0269
 Quadrupole moment (field-independent basis, Debye-Ang):
   XX=            -85.4644   YY=            -84.9746   ZZ=            -84.3296
   XY=              1.7995   XZ=             -0.7694   YZ=              0.2697

 Normal termination of Gaussian 16 at Thu May  6 00:28:10 2021.
