 Gaussian 16, Revision A.03,
 Gaussian 16:  EM64L-G16RevA.03 25-Dec-2016

 -------------
 #p 6-31g* mp2
 -------------

 ------------------------------------------------------
 Input file generated by CHIRIPA (05-May-2021 14:55:22)
 ------------------------------------------------------
 Symbolic Z-matrix:
 Charge =  0 Multiplicity = 1

                         Standard orientation:
 ---------------------------------------------------------------------
 Center     Atomic      Atomic             Coordinates (Angstroms)
 Number     Number       Type             X           Y           Z
 ---------------------------------------------------------------------
      1          6           0        1.296964    2.202917    0.598654
      2          6           0        0.777824    1.032415    0.035679
      3          6           0        1.630980    0.007712   -0.384628
      4          6           0        3.004229    0.187725   -0.226292
      5          6           0        3.551921    1.342196    0.330952
      6          6           0        2.679917    2.353805    0.744237
      7          1           0        0.626892    2.993845    0.922431
      8          1           0       -0.295768    0.912489   -0.078612
      9          1           0        1.255955   -0.908800   -0.823696
     10          1           0        4.626634    1.432821    0.431932
     11          1           0        3.085905    3.261747    1.181112
     12          7           0        3.917403   -0.890152   -0.667535
     13          8           0        5.123436   -0.707141   -0.517108
     14          8           0        3.409825   -1.897592   -1.155454
     15          6           0       -4.274331   -0.024455    0.222074
     16          6           0       -4.931317    0.177783   -1.143742
     17          6           0       -6.173523    1.066705   -1.076393
     18          1           0       -5.006181   -0.466312    0.912076
     19          1           0       -4.003128    0.955184    0.639389
     20          1           0       -5.199947   -0.802033   -1.558971
     21          1           0       -4.197762    0.619033   -1.830626
     22          1           0       -5.917821    2.057076   -0.686032
     23          1           0       -6.925702    0.627936   -0.412833
     24          1           0       -6.627269    1.197969   -2.063685
     25          6           0       -3.031212   -0.910897    0.171064
     26          6           0       -2.374224   -1.113134    1.536881
     27          6           0       -1.132018   -2.002057    1.469531
     28          1           0       -3.302414   -1.890536   -0.246250
     29          1           0       -2.299361   -0.469040   -0.518938
     30          1           0       -3.107780   -1.554385    2.223764
     31          1           0       -2.105595   -0.133319    1.952110
     32          1           0       -0.379840   -1.563288    0.805971
     33          1           0       -1.387720   -2.992428    1.079170
     34          1           0       -0.678274   -2.133321    2.456823
 ---------------------------------------------------------------------

 SCF Done:  E(RHF) =  -669.533948564     A.U. after   15 cycles
 E2 =    -0.2093542741D+01 EUMP2 =    -0.67162749130486D+03

 The electronic state is 1-A.
 Alpha  occ. eigenvalues --  -20.60759 -20.60753 -15.85813 -11.31198 -11.27768
 Alpha  occ. eigenvalues --  -11.27757 -11.27513 -11.26789 -11.26761 -11.22354
 Alpha  occ. eigenvalues --  -11.22268 -11.22225 -11.22115 -11.21599 -11.21598
 Alpha  occ. eigenvalues --   -1.59834  -1.39386  -1.19379  -1.09194  -1.08763
 Alpha  occ. eigenvalues --   -1.04812  -1.04180  -0.96634  -0.95599  -0.87647
 Alpha  occ. eigenvalues --   -0.86181  -0.82449  -0.80253  -0.79013  -0.77483
 Alpha  occ. eigenvalues --   -0.72032  -0.71157  -0.70498  -0.65964  -0.65036
 Alpha  occ. eigenvalues --   -0.64740  -0.62356  -0.61374  -0.59984  -0.58239
 Alpha  occ. eigenvalues --   -0.55976  -0.55277  -0.53306  -0.53219  -0.52997
 Alpha  occ. eigenvalues --   -0.52787  -0.50556  -0.48794  -0.48786  -0.48544
 Alpha  occ. eigenvalues --   -0.47305  -0.46529  -0.46477  -0.44786  -0.44464
 Alpha  occ. eigenvalues --   -0.37356  -0.36330
 Alpha virt. eigenvalues --    0.05024   0.11209   0.16408   0.19072   0.22729
 Alpha virt. eigenvalues --    0.23947   0.25312   0.26053   0.26905   0.28563
 Alpha virt. eigenvalues --    0.29074   0.30827   0.31184   0.31307   0.32209

 Mulliken charges:
               1
     1  C   -0.172930
     2  C   -0.221370
     3  C   -0.173310
     4  C    0.157339
     5  C   -0.171356
     6  C   -0.218241
     7  H    0.225897
     8  H    0.232857
     9  H    0.276590
    10  H    0.275720
    11  H    0.223501
    12  N    0.488227
    13  O   -0.460517
    14  O   -0.460004
    15  C   -0.298088
    16  C   -0.300013
    17  C   -0.475980
    18  H    0.153500
    19  H    0.145794
    20  H    0.154809
    21  H    0.150406
    22  H    0.154259
    23  H    0.156790
    24  H    0.162487
    25  C   -0.302332
    26  C   -0.302513
    27  C   -0.477973
    28  H    0.156135
    29  H    0.140100
    30  H    0.157049
    31  H    0.147125
    32  H    0.151233
    33  H    0.159573
    34  H    0.165238
 Sum of Mulliken charges =  -0.00000

 Dipole moment (field-independent basis, Debye):
    X=             -3.3358    Y=              3.7113    Z=              1.6003  Tot=              5.2404
 Quadrupole moment (field-independent basis, Debye-Ang):
   XX=           -110.9262   YY=            -91.7418   ZZ=            -95.6975
   XY=             14.6941   XZ=              6.5768   YZ=              0.2133

 Normal termination of Gaussian 16 at Thu May  6 06:13:03 2021.
