 Gaussian 16, Revision A.03,
 Gaussian 16:  EM64L-G16RevA.03 25-Dec-2016

 -------------
 #p 6-31g* mp2
 -------------

 ------------------------------------------------------
 Input file generated by CHIRIPA (05-May-2021 14:53:14)
 ------------------------------------------------------
 Symbolic Z-matrix:
 Charge =  0 Multiplicity = 1

                         Standard orientation:
 ---------------------------------------------------------------------
 Center     Atomic      Atomic             Coordinates (Angstroms)
 Number     Number       Type             X           Y           Z
 ---------------------------------------------------------------------
      1          6           0        3.648199   -0.710720   -0.071374
      2          6           0        4.824450   -1.569667    0.394061
      3          6           0        4.438765   -3.033444    0.609459
      4          1           0        2.840530   -0.773195    0.670726
      5          1           0        3.246809   -1.126451   -1.005958
      6          1           0        5.224379   -1.151634    1.326757
      7          1           0        5.629487   -1.504987   -0.349140
      8          1           0        4.059663   -3.472579   -0.319004
      9          1           0        3.652253   -3.117219    1.366415
     10          1           0        5.294469   -3.629333    0.941945
     11          6           0        4.018026    0.755126   -0.291042
     12          6           0        2.841775    1.614073   -0.756476
     13          6           0        3.227460    3.077850   -0.971875
     14          1           0        4.419416    1.170857    0.643543
     15          1           0        4.825695    0.817601   -1.033141
     16          1           0        2.036737    1.549393   -0.013276
     17          1           0        2.441846    1.196040   -1.689172
     18          1           0        4.013972    3.161624   -1.728831
     19          1           0        3.606562    3.516985   -0.043412
     20          1           0        2.371756    3.673739   -1.304361
     21          6           0       -5.003761   -1.166697   -0.862553
     22          6           0       -3.713994   -1.591219   -1.198416
     23          6           0       -2.593502   -0.961746   -0.648136
     24          6           0       -2.800382    0.093769    0.238644
     25          6           0       -4.072722    0.539778    0.592932
     26          6           0       -5.178700   -0.104427    0.030475
     27          1           0       -5.868550   -1.661409   -1.294754
     28          1           0       -3.575121   -2.415928   -1.891679
     29          1           0       -1.583811   -1.270059   -0.890802
     30          1           0       -4.179400    1.364668    1.286902
     31          1           0       -6.179176    0.227393    0.293128
     32          7           0       -1.621850    0.767962    0.827646
     33          8           0       -1.830923    1.695526    1.606459
     34          8           0       -0.511357    0.356063    0.499341
 ---------------------------------------------------------------------

 SCF Done:  E(RHF) =  -669.536266291     A.U. after   15 cycles
 E2 =    -0.2091114934D+01 EUMP2 =    -0.67162738122464D+03

 The electronic state is 1-A.
 Alpha  occ. eigenvalues --  -20.60990 -20.60970 -15.86008 -11.31310 -11.27871
 Alpha  occ. eigenvalues --  -11.27865 -11.27606 -11.26874 -11.26864 -11.20833
 Alpha  occ. eigenvalues --  -11.20485 -11.20343 -11.20257 -11.20081 -11.19929
 Alpha  occ. eigenvalues --   -1.60041  -1.39597  -1.19476  -1.08886  -1.07367
 Alpha  occ. eigenvalues --   -1.04869  -1.02511  -0.95730  -0.95012  -0.86271
 Alpha  occ. eigenvalues --   -0.86036  -0.82565  -0.78576  -0.77625  -0.77117
 Alpha  occ. eigenvalues --   -0.72228  -0.71351  -0.70585  -0.65133  -0.64873
 Alpha  occ. eigenvalues --   -0.63997  -0.62216  -0.59908  -0.58392  -0.56598
 Alpha  occ. eigenvalues --   -0.55376  -0.54316  -0.53203  -0.52961  -0.51734
 Alpha  occ. eigenvalues --   -0.51433  -0.49090  -0.48985  -0.48914  -0.46892
 Alpha  occ. eigenvalues --   -0.45599  -0.45025  -0.44689  -0.44464  -0.42760
 Alpha  occ. eigenvalues --   -0.37455  -0.36469
 Alpha virt. eigenvalues --    0.04902   0.11186   0.16398   0.21310   0.23861
 Alpha virt. eigenvalues --    0.25281   0.27228   0.27696   0.27964   0.28702
 Alpha virt. eigenvalues --    0.28978   0.30933   0.32331   0.32417   0.32845

 Mulliken charges:
               1
     1  C   -0.299319
     2  C   -0.298839
     3  C   -0.474903
     4  H    0.161318
     5  H    0.144104
     6  H    0.151342
     7  H    0.148937
     8  H    0.151871
     9  H    0.155610
    10  H    0.157419
    11  C   -0.297483
    12  C   -0.309116
    13  C   -0.474694
    14  H    0.147837
    15  H    0.143443
    16  H    0.182824
    17  H    0.144472
    18  H    0.148636
    19  H    0.153737
    20  H    0.158530
    21  C   -0.170524
    22  C   -0.218585
    23  C   -0.170859
    24  C    0.157680
    25  C   -0.170548
    26  C   -0.218627
    27  H    0.226060
    28  H    0.223965
    29  H    0.276344
    30  H    0.275840
    31  H    0.223847
    32  N    0.490525
    33  O   -0.459284
    34  O   -0.461561
 Sum of Mulliken charges =  -0.00000

 Dipole moment (field-independent basis, Debye):
    X=             -4.5170    Y=             -2.3591    Z=             -1.9377  Tot=              5.4519
 Quadrupole moment (field-independent basis, Debye-Ang):
   XX=            -71.3175   YY=            -95.5263   ZZ=            -94.3758
   XY=              4.1105   XZ=              3.4559   YZ=              1.8381

 Normal termination of Gaussian 16 at Thu May  6 17:07:53 2021.
