 Gaussian 16, Revision A.03,
 Gaussian 16:  EM64L-G16RevA.03 25-Dec-2016

 -------------
 #p 6-31g* mp2
 -------------

 ------------------------------------------------------
 Input file generated by CHIRIPA (05-May-2021 14:51:09)
 ------------------------------------------------------
 Symbolic Z-matrix:
 Charge =  0 Multiplicity = 1

                         Standard orientation:
 ---------------------------------------------------------------------
 Center     Atomic      Atomic             Coordinates (Angstroms)
 Number     Number       Type             X           Y           Z
 ---------------------------------------------------------------------
      1          6           0       -3.201424   -0.220989   -0.186528
      2          6           0       -2.693593   -1.544748    0.385971
      3          6           0       -1.259747   -1.861716   -0.039954
      4          1           0       -3.142428   -0.256343   -1.282984
      5          1           0       -2.534207    0.590142    0.136401
      6          1           0       -3.362356   -2.352950    0.063197
      7          1           0       -2.753984   -1.506311    1.481184
      8          1           0       -0.575507   -1.075719    0.295643
      9          1           0       -1.187336   -1.927168   -1.130400
     10          1           0       -0.916881   -2.812260    0.380485
     11          6           0       -4.633394    0.109733    0.230379
     12          6           0       -5.141225    1.433492   -0.342119
     13          6           0       -6.575071    1.750460    0.083805
     14          1           0       -5.300611   -0.701398   -0.092550
     15          1           0       -4.692389    0.145086    1.326835
     16          1           0       -5.080834    1.395055   -1.437332
     17          1           0       -4.472462    2.241693   -0.019346
     18          1           0       -6.647482    1.815912    1.174251
     19          1           0       -7.259311    0.964463   -0.251792
     20          1           0       -6.917937    2.701004   -0.336634
     21          6           0        3.925015   -0.696887    0.108822
     22          6           0        2.638129   -1.400481   -0.323459
     23          6           0        2.668555   -2.905485   -0.055449
     24          1           0        4.776775   -1.147571   -0.418753
     25          1           0        4.090580   -0.876199    1.180190
     26          1           0        2.474309   -1.218743   -1.393389
     27          1           0        1.789311   -0.947941    0.205062
     28          1           0        2.807617   -3.103920    1.012206
     29          1           0        3.496506   -3.376261   -0.595327
     30          1           0        1.738868   -3.388518   -0.372022
     31          6           0        3.909803    0.808144   -0.152672
     32          6           0        5.196690    1.511737    0.279607
     33          6           0        5.166262    3.016741    0.011598
     34          1           0        3.744237    0.987455   -1.224041
     35          1           0        3.058044    1.258827    0.374901
     36          1           0        6.045506    1.059197   -0.248913
     37          1           0        5.360509    1.330000    1.349538
     38          1           0        4.338311    3.487517    0.551476
     39          1           0        5.027201    3.215177   -1.056056
     40          1           0        6.095951    3.499774    0.328171
 ---------------------------------------------------------------------

 SCF Done:  E(RHF) =  -470.732898876     A.U. after   11 cycles
 E2 =    -0.1582862253D+01 EUMP2 =    -0.47231576112924D+03

 The electronic state is 1-A.
 Alpha  occ. eigenvalues --  -11.21605 -11.21599 -11.21578 -11.21481 -11.21410
 Alpha  occ. eigenvalues --  -11.21360 -11.21350 -11.21292 -11.21075 -11.21056
 Alpha  occ. eigenvalues --  -11.21052 -11.20967  -1.08437  -1.08375  -1.03552
 Alpha  occ. eigenvalues --   -1.03452  -0.96017  -0.95891  -0.87010  -0.86935
 Alpha  occ. eigenvalues --   -0.79653  -0.79491  -0.78268  -0.78166  -0.65090
 Alpha  occ. eigenvalues --   -0.64993  -0.61022  -0.60797  -0.59450  -0.59209
 Alpha  occ. eigenvalues --   -0.57613  -0.57521  -0.55330  -0.55163  -0.52810
 Alpha  occ. eigenvalues --   -0.52519  -0.52417  -0.52288  -0.50006  -0.49819
 Alpha  occ. eigenvalues --   -0.48058  -0.47728  -0.46758  -0.46442  -0.45856
 Alpha  occ. eigenvalues --   -0.45738  -0.45689  -0.45507  -0.43826  -0.43675
 Alpha virt. eigenvalues --    0.21981   0.23016   0.23484   0.24830   0.25831
 Alpha virt. eigenvalues --    0.26708   0.26959   0.27221   0.27780   0.29100
 Alpha virt. eigenvalues --    0.30046   0.30811   0.31489   0.31737   0.32461

 Mulliken charges:
               1
     1  C   -0.298369
     2  C   -0.300425
     3  C   -0.478527
     4  H    0.149748
     5  H    0.149363
     6  H    0.151796
     7  H    0.151730
     8  H    0.158692
     9  H    0.155266
    10  H    0.161142
    11  C   -0.298248
    12  C   -0.299631
    13  C   -0.475705
    14  H    0.149568
    15  H    0.149583
    16  H    0.151978
    17  H    0.151904
    18  H    0.155156
    19  H    0.155195
    20  H    0.160275
    21  C   -0.297937
    22  C   -0.302709
    23  C   -0.477976
    24  H    0.149310
    25  H    0.149049
    26  H    0.151423
    27  H    0.156753
    28  H    0.154240
    29  H    0.154393
    30  H    0.163731
    31  C   -0.298055
    32  C   -0.299563
    33  C   -0.475660
    34  H    0.149531
    35  H    0.148869
    36  H    0.151971
    37  H    0.151813
    38  H    0.154989
    39  H    0.155169
    40  H    0.160169
 Sum of Mulliken charges =  -0.00000

 Dipole moment (field-independent basis, Debye):
    X=             -0.0269    Y=             -0.0081    Z=             -0.0075  Tot=              0.0291
 Quadrupole moment (field-independent basis, Debye-Ang):
   XX=            -85.7905   YY=            -85.9035   ZZ=            -83.2872
   XY=              0.3588   XZ=              0.1572   YZ=              0.6426

 Normal termination of Gaussian 16 at Wed May  5 19:43:51 2021.
