 Gaussian 16, Revision A.03,
 Gaussian 16:  EM64L-G16RevA.03 25-Dec-2016

 -------------
 #p 6-31g* mp2
 -------------

 ------------------------------------------------------
 Input file generated by CHIRIPA (05-May-2021 14:55:21)
 ------------------------------------------------------
 Symbolic Z-matrix:
 Charge =  0 Multiplicity = 1

                         Standard orientation:
 ---------------------------------------------------------------------
 Center     Atomic      Atomic             Coordinates (Angstroms)
 Number     Number       Type             X           Y           Z
 ---------------------------------------------------------------------
      1          6           0       -3.861281    2.466571   -0.102466
      2          6           0       -4.062010    1.544223   -1.134698
      3          6           0       -3.537449    0.251510   -1.043726
      4          6           0       -2.813906   -0.086618    0.098834
      5          6           0       -2.596827    0.809864    1.144055
      6          6           0       -3.130618    2.097099    1.031617
      7          1           0       -4.272357    3.468653   -0.181473
      8          1           0       -4.629042    1.828386   -2.016611
      9          1           0       -3.677770   -0.482373   -1.828038
     10          1           0       -2.027260    0.497373    2.010866
     11          1           0       -2.973148    2.811327    1.834814
     12          7           0       -2.253690   -1.452256    0.206505
     13          8           0       -1.619896   -1.725475    1.223507
     14          8           0       -2.458996   -2.223565   -0.728144
     15          6           0        4.052241    0.429030   -0.428592
     16          6           0        5.220967    0.987700    0.383784
     17          6           0        5.875384    2.200280   -0.278924
     18          1           0        4.409029    0.153123   -1.430352
     19          1           0        3.302420    1.219597   -0.570600
     20          1           0        5.967725    0.195923    0.525400
     21          1           0        4.861396    1.262131    1.383791
     22          1           0        5.148439    3.009014   -0.405813
     23          1           0        6.261054    1.936748   -1.269081
     24          1           0        6.708384    2.583529    0.318648
     25          6           0        3.387722   -0.783476    0.221003
     26          6           0        2.218997   -1.342146   -0.591372
     27          6           0        1.564579   -2.554726    0.071336
     28          1           0        4.137544   -1.574043    0.363012
     29          1           0        3.030935   -0.507569    1.222763
     30          1           0        2.578568   -1.616576   -1.591378
     31          1           0        1.472239   -0.550368   -0.732987
     32          1           0        1.178910   -2.291194    1.061493
     33          1           0        2.291524   -3.363460    0.198225
     34          1           0        0.731580   -2.937975   -0.526235
 ---------------------------------------------------------------------

 SCF Done:  E(RHF) =  -669.535963717     A.U. after   15 cycles
 E2 =    -0.2091715973D+01 EUMP2 =    -0.67162767969011D+03

 The electronic state is 1-A.
 Alpha  occ. eigenvalues --  -20.60946 -20.60936 -15.85962 -11.31300 -11.27863
 Alpha  occ. eigenvalues --  -11.27856 -11.27598 -11.26869 -11.26859 -11.21281
 Alpha  occ. eigenvalues --  -11.20938 -11.20855 -11.20721 -11.20651 -11.19457
 Alpha  occ. eigenvalues --   -1.59992  -1.39550  -1.19466  -1.08867  -1.07834
 Alpha  occ. eigenvalues --   -1.04863  -1.02815  -0.95714  -0.95217  -0.86267
 Alpha  occ. eigenvalues --   -0.86225  -0.82544  -0.78919  -0.77617  -0.77591
 Alpha  occ. eigenvalues --   -0.72190  -0.71312  -0.70574  -0.65122  -0.64866
 Alpha  occ. eigenvalues --   -0.64478  -0.62210  -0.60219  -0.58669  -0.56825
 Alpha  occ. eigenvalues --   -0.55367  -0.54520  -0.53194  -0.52955  -0.51870
 Alpha  occ. eigenvalues --   -0.51650  -0.49301  -0.48942  -0.48805  -0.47210
 Alpha  occ. eigenvalues --   -0.46005  -0.45182  -0.45117  -0.44785  -0.43047
 Alpha  occ. eigenvalues --   -0.37441  -0.36464
 Alpha virt. eigenvalues --    0.04909   0.11189   0.16386   0.21316   0.23377
 Alpha virt. eigenvalues --    0.25059   0.27146   0.27257   0.28003   0.28165
 Alpha virt. eigenvalues --    0.28960   0.30913   0.32018   0.32283   0.32476

 Mulliken charges:
               1
     1  C   -0.170603
     2  C   -0.218526
     3  C   -0.170693
     4  C    0.158848
     5  C   -0.170994
     6  C   -0.218549
     7  H    0.226037
     8  H    0.223899
     9  H    0.275943
    10  H    0.275420
    11  H    0.223793
    12  N    0.489129
    13  O   -0.458416
    14  O   -0.460362
    15  C   -0.297171
    16  C   -0.298970
    17  C   -0.475142
    18  H    0.148873
    19  H    0.146224
    20  H    0.152132
    21  H    0.150489
    22  H    0.153187
    23  H    0.154969
    24  H    0.158992
    25  C   -0.297256
    26  C   -0.298832
    27  C   -0.479852
    28  H    0.148942
    29  H    0.148209
    30  H    0.148250
    31  H    0.144260
    32  H    0.168379
    33  H    0.146429
    34  H    0.172961
 Sum of Mulliken charges =  -0.00000

 Dipole moment (field-independent basis, Debye):
    X=             -2.2522    Y=              4.7214    Z=             -0.3187  Tot=              5.2407
 Quadrupole moment (field-independent basis, Debye-Ang):
   XX=            -84.2306   YY=            -96.2360   ZZ=            -90.8819
   XY=            -14.1220   XZ=              2.9256   YZ=              2.2501

 Normal termination of Gaussian 16 at Wed May  5 15:56:38 2021.
