 Gaussian 16, Revision A.03,
 Gaussian 16:  EM64L-G16RevA.03 25-Dec-2016

 -------------
 #p 6-31g* mp2
 -------------

 ------------------------------------------------------
 Input file generated by CHIRIPA (05-May-2021 14:57:22)
 ------------------------------------------------------
 Symbolic Z-matrix:
 Charge =  0 Multiplicity = 1

                         Standard orientation:
 ---------------------------------------------------------------------
 Center     Atomic      Atomic             Coordinates (Angstroms)
 Number     Number       Type             X           Y           Z
 ---------------------------------------------------------------------
      1          6           0        5.816042    1.619889   -0.110289
      2          6           0        5.995678    0.329098   -0.618334
      3          6           0        4.973834   -0.620219   -0.522519
      4          6           0        3.779926   -0.242979    0.090312
      5          6           0        3.570594    1.035062    0.606142
      6          6           0        4.606206    1.968138    0.499252
      7          1           0        6.615183    2.351033   -0.189022
      8          1           0        6.934190    0.055843   -1.092224
      9          1           0        5.086117   -1.626571   -0.907314
     10          1           0        2.623849    1.277954    1.073149
     11          1           0        4.463891    2.969843    0.894699
     12          7           0        2.690857   -1.239382    0.197609
     13          8           0        1.648469   -0.882126    0.742064
     14          8           0        2.900255   -2.358751   -0.264779
     15          6           0       -3.289506   -2.350879    0.045691
     16          6           0       -4.635235   -1.989111    0.166772
     17          6           0       -5.017916   -0.645979    0.102737
     18          6           0       -4.024181    0.313648   -0.084067
     19          6           0       -2.675191   -0.015171   -0.208126
     20          6           0       -2.315496   -1.364492   -0.141042
     21          1           0       -3.001159   -3.396659    0.096619
     22          1           0       -5.393819   -2.753012    0.311861
     23          1           0       -6.052491   -0.338014    0.193452
     24          1           0       -1.941708    0.768866   -0.352020
     25          1           0       -1.269627   -1.642522   -0.235392
     26          7           0       -4.417142    1.738838   -0.153471
     27          8           0       -3.522486    2.565239   -0.318670
     28          8           0       -5.612357    2.002515   -0.041358
 ---------------------------------------------------------------------

 SCF Done:  E(RHF) =  -868.340728386     A.U. after   16 cycles
 E2 =    -0.2598108193D+01 EUMP2 =    -0.87093883657910D+03

 The electronic state is 1-A.
 Alpha  occ. eigenvalues --  -20.61644 -20.61625 -20.60145 -20.60139 -15.86649
 Alpha  occ. eigenvalues --  -15.85185 -11.31696 -11.30321 -11.28230 -11.28214
 Alpha  occ. eigenvalues --  -11.27907 -11.27174 -11.27147 -11.26884 -11.26758
 Alpha  occ. eigenvalues --  -11.26482 -11.25883 -11.25569  -1.60697  -1.59223
 Alpha  occ. eigenvalues --   -1.40257  -1.38784  -1.19838  -1.18442  -1.09294
 Alpha  occ. eigenvalues --   -1.07877  -1.05190  -1.03782  -0.96181  -0.94761
 Alpha  occ. eigenvalues --   -0.86604  -0.85191  -0.83023  -0.81583  -0.78105
 Alpha  occ. eigenvalues --   -0.76665  -0.72882  -0.71992  -0.71413  -0.70940
 Alpha  occ. eigenvalues --   -0.70541  -0.69551  -0.65493  -0.65187  -0.64079
 Alpha  occ. eigenvalues --   -0.63736  -0.62539  -0.61114  -0.55703  -0.54294
 Alpha  occ. eigenvalues --   -0.53539  -0.53275  -0.52160  -0.51840  -0.49646
 Alpha  occ. eigenvalues --   -0.49611  -0.48179  -0.48141  -0.45728  -0.44241
 Alpha  occ. eigenvalues --   -0.37800  -0.36778  -0.36420  -0.35382
 Alpha virt. eigenvalues --    0.04386   0.05817   0.10881   0.12265   0.15941
 Alpha virt. eigenvalues --    0.17388   0.21051   0.22530   0.26995   0.27820
 Alpha virt. eigenvalues --    0.28603   0.29241   0.30685   0.32067   0.32243

 Mulliken charges:
               1
     1  C   -0.169638
     2  C   -0.218583
     3  C   -0.170500
     4  C    0.157315
     5  C   -0.170600
     6  C   -0.218418
     7  H    0.227975
     8  H    0.225028
     9  H    0.275639
    10  H    0.276457
    11  H    0.226760
    12  N    0.489344
    13  O   -0.468298
    14  O   -0.459223
    15  C   -0.172456
    16  C   -0.218622
    17  C   -0.173481
    18  C    0.157998
    19  C   -0.173285
    20  C   -0.223824
    21  H    0.226349
    22  H    0.220064
    23  H    0.272027
    24  H    0.273741
    25  H    0.246680
    26  N    0.488274
    27  O   -0.463622
    28  O   -0.463099
 Sum of Mulliken charges =  -0.00000

 Dipole moment (field-independent basis, Debye):
    X=              5.7749    Y=             -1.5547    Z=             -0.1361  Tot=              5.9820
 Quadrupole moment (field-independent basis, Debye-Ang):
   XX=            -81.5172   YY=           -107.8577   ZZ=           -105.3742
   XY=             33.0768   XZ=             -4.5540   YZ=              2.6366

 Normal termination of Gaussian 16 at Fri May  7 06:24:28 2021.
