 Gaussian 16, Revision A.03,
 Gaussian 16:  EM64L-G16RevA.03 25-Dec-2016

 -------------
 #p 6-31g* mp2
 -------------

 ------------------------------------------------------
 Input file generated by CHIRIPA (05-May-2021 14:57:24)
 ------------------------------------------------------
 Symbolic Z-matrix:
 Charge =  0 Multiplicity = 1

                         Standard orientation:
 ---------------------------------------------------------------------
 Center     Atomic      Atomic             Coordinates (Angstroms)
 Number     Number       Type             X           Y           Z
 ---------------------------------------------------------------------
      1          6           0        3.514137   -2.456906    0.406034
      2          6           0        2.623182   -1.877416   -0.503313
      3          6           0        2.613327   -0.493899   -0.704135
      4          6           0        3.512095    0.283662    0.024497
      5          6           0        4.411851   -0.263996    0.937623
      6          6           0        4.404059   -1.649770    1.122337
      7          1           0        3.514939   -3.532532    0.555780
      8          1           0        1.930936   -2.501788   -1.060987
      9          1           0        1.934234   -0.019069   -1.401837
     10          1           0        5.090107    0.384342    1.478960
     11          1           0        5.097104   -2.097062    1.829206
     12          7           0        3.511003    1.749524   -0.179578
     13          8           0        4.312789    2.412662    0.474658
     14          8           0        2.708382    2.207573   -0.989903
     15          6           0       -5.819555    0.524881    0.790956
     16          6           0       -5.513624   -0.788382    0.419110
     17          6           0       -4.238506   -1.113975   -0.052707
     18          6           0       -3.289216   -0.096881   -0.140217
     19          6           0       -3.563487    1.220870    0.222547
     20          6           0       -4.845228    1.523554    0.691663
     21          1           0       -6.812670    0.768911    1.156425
     22          1           0       -6.268315   -1.566008    0.495166
     23          1           0       -3.974719   -2.122439   -0.347386
     24          1           0       -2.790264    1.974517    0.135603
     25          1           0       -5.079995    2.544312    0.979730
     26          7           0       -1.935800   -0.429446   -0.638279
     27          8           0       -1.117128    0.484792   -0.705981
     28          8           0       -1.719291   -1.598051   -0.951527
 ---------------------------------------------------------------------

 SCF Done:  E(RHF) =  -868.340033799     A.U. after   16 cycles
 E2 =    -0.2598807054D+01 EUMP2 =    -0.87093884085291D+03

 The electronic state is 1-A.
 Alpha  occ. eigenvalues --  -20.61291 -20.61222 -20.59668 -20.59625 -15.86262
 Alpha  occ. eigenvalues --  -15.84694 -11.31421 -11.29897 -11.27995 -11.27923
 Alpha  occ. eigenvalues --  -11.27684 -11.26959 -11.26910 -11.26582 -11.26279
 Alpha  occ. eigenvalues --  -11.26273 -11.25595 -11.25329  -1.60318  -1.58730
 Alpha  occ. eigenvalues --   -1.39871  -1.38282  -1.19578  -1.18086  -1.09018
 Alpha  occ. eigenvalues --   -1.07534  -1.04946  -1.03440  -0.95885  -0.94379
 Alpha  occ. eigenvalues --   -0.86355  -0.84861  -0.82717  -0.81198  -0.77785
 Alpha  occ. eigenvalues --   -0.76240  -0.72496  -0.71610  -0.70923  -0.70684
 Alpha  occ. eigenvalues --   -0.70050  -0.69215  -0.65232  -0.64950  -0.63738
 Alpha  occ. eigenvalues --   -0.63443  -0.62290  -0.60759  -0.55466  -0.54024
 Alpha  occ. eigenvalues --   -0.53291  -0.53034  -0.51827  -0.51523  -0.49276
 Alpha  occ. eigenvalues --   -0.49239  -0.47689  -0.47658  -0.45314  -0.43722
 Alpha  occ. eigenvalues --   -0.37553  -0.36540  -0.36123  -0.35029
 Alpha virt. eigenvalues --    0.04730   0.06256   0.11117   0.12604   0.16265
 Alpha virt. eigenvalues --    0.17749   0.21275   0.22717   0.27208   0.28141
 Alpha virt. eigenvalues --    0.28733   0.29612   0.30865   0.32144   0.32436

 Mulliken charges:
               1
     1  C   -0.172183
     2  C   -0.220955
     3  C   -0.166228
     4  C    0.154270
     5  C   -0.172996
     6  C   -0.220151
     7  H    0.221096
     8  H    0.231950
     9  H    0.290534
    10  H    0.270806
    11  H    0.217760
    12  N    0.487755
    13  O   -0.467528
    14  O   -0.456919
    15  C   -0.170082
    16  C   -0.218768
    17  C   -0.170854
    18  C    0.157529
    19  C   -0.170524
    20  C   -0.218819
    21  H    0.226640
    22  H    0.223599
    23  H    0.274017
    24  H    0.280408
    25  H    0.225737
    26  N    0.489533
    27  O   -0.457314
    28  O   -0.468316
 Sum of Mulliken charges =  -0.00000

 Dipole moment (field-independent basis, Debye):
    X=             -5.2616    Y=             -3.8836    Z=              2.3185  Tot=              6.9384
 Quadrupole moment (field-independent basis, Debye-Ang):
   XX=            -72.6482   YY=           -104.3565   ZZ=           -104.3513
   XY=            -20.1094   XZ=             -0.4272   YZ=              0.8359

 Normal termination of Gaussian 16 at Fri May  7 06:29:15 2021.
