 Gaussian 16, Revision A.03,
 Gaussian 16:  EM64L-G16RevA.03 25-Dec-2016

 -------------
 #p 6-31g* mp2
 -------------

 ------------------------------------------------------
 Input file generated by CHIRIPA (05-May-2021 14:55:24)
 ------------------------------------------------------
 Symbolic Z-matrix:
 Charge =  0 Multiplicity = 1

                         Standard orientation:
 ---------------------------------------------------------------------
 Center     Atomic      Atomic             Coordinates (Angstroms)
 Number     Number       Type             X           Y           Z
 ---------------------------------------------------------------------
      1          6           0        0.857026   -1.276454    0.882536
      2          6           0        0.769191   -0.406671   -0.209382
      3          6           0        1.897722    0.285957   -0.657970
      4          6           0        3.103548    0.084126    0.011761
      5          6           0        3.223054   -0.775621    1.102560
      6          6           0        2.081518   -1.457833    1.533874
      7          1           0       -0.024696   -1.810458    1.224300
      8          1           0       -0.180456   -0.263857   -0.717142
      9          1           0        1.857954    0.965347   -1.500742
     10          1           0        4.183515   -0.897405    1.588462
     11          1           0        2.152691   -2.132685    2.382139
     12          7           0        4.305157    0.811867   -0.453995
     13          8           0        5.355835    0.616678    0.153141
     14          8           0        4.173548    1.563678   -1.417372
     15          6           0       -4.231743    0.596301    0.019254
     16          6           0       -3.598278    1.946981    0.354469
     17          6           0       -4.636732    3.038049    0.617107
     18          1           0       -4.877277    0.709954   -0.862400
     19          1           0       -4.885289    0.289964    0.847766
     20          1           0       -2.945046    2.250025   -0.473823
     21          1           0       -2.954027    1.830059    1.235313
     22          1           0       -5.282120    2.761443    1.457086
     23          1           0       -5.273087    3.183795   -0.261761
     24          1           0       -4.162101    3.995178    0.854785
     25          6           0       -3.206357   -0.504616   -0.245873
     26          6           0       -3.839824   -1.855297   -0.581088
     27          6           0       -2.801370   -2.946364   -0.843726
     28          1           0       -2.552812   -0.198279   -1.074384
     29          1           0       -2.560824   -0.618268    0.635781
     30          1           0       -4.484074   -1.738374   -1.461932
     31          1           0       -4.493056   -2.158340    0.247205
     32          1           0       -2.165014   -3.092110    0.035143
     33          1           0       -2.155982   -2.669758   -1.683705
     34          1           0       -3.276000   -3.903494   -1.081404
 ---------------------------------------------------------------------

 SCF Done:  E(RHF) =  -669.535232934     A.U. after   15 cycles
 E2 =    -0.2092450709D+01 EUMP2 =    -0.67162768364251D+03

 The electronic state is 1-A.
 Alpha  occ. eigenvalues --  -20.60682 -20.60677 -15.85733 -11.31073 -11.27638
 Alpha  occ. eigenvalues --  -11.27613 -11.27352 -11.26657 -11.26553 -11.22729
 Alpha  occ. eigenvalues --  -11.22668 -11.22382 -11.22297 -11.22263 -11.21657
 Alpha  occ. eigenvalues --   -1.59758  -1.39312  -1.19234  -1.09483  -1.08631
 Alpha  occ. eigenvalues --   -1.04633  -1.04472  -0.96946  -0.95477  -0.87956
 Alpha  occ. eigenvalues --   -0.86034  -0.82310  -0.80565  -0.79329  -0.77350
 Alpha  occ. eigenvalues --   -0.71952  -0.71080  -0.70356  -0.66109  -0.64882
 Alpha  occ. eigenvalues --   -0.64640  -0.62003  -0.61855  -0.60310  -0.58556
 Alpha  occ. eigenvalues --   -0.56251  -0.55146  -0.53587  -0.53402  -0.52954
 Alpha  occ. eigenvalues --   -0.52706  -0.50886  -0.48863  -0.48711  -0.48700
 Alpha  occ. eigenvalues --   -0.47594  -0.46784  -0.46728  -0.44757  -0.44724
 Alpha  occ. eigenvalues --   -0.37210  -0.36232
 Alpha virt. eigenvalues --    0.05157   0.11374   0.16642   0.18959   0.22515
 Alpha virt. eigenvalues --    0.23172   0.24006   0.25580   0.26858   0.28320
 Alpha virt. eigenvalues --    0.29163   0.30329   0.30826   0.31404   0.32060

 Mulliken charges:
               1
     1  C   -0.176934
     2  C   -0.223728
     3  C   -0.173265
     4  C    0.158859
     5  C   -0.171385
     6  C   -0.218860
     7  H    0.228447
     8  H    0.233949
     9  H    0.275206
    10  H    0.275019
    11  H    0.222864
    12  N    0.488028
    13  O   -0.460837
    14  O   -0.460768
    15  C   -0.297758
    16  C   -0.301013
    17  C   -0.476375
    18  H    0.153252
    19  H    0.152516
    20  H    0.151064
    21  H    0.152854
    22  H    0.156366
    23  H    0.156736
    24  H    0.163532
    25  C   -0.305746
    26  C   -0.299802
    27  C   -0.478829
    28  H    0.146527
    29  H    0.145731
    30  H    0.157017
    31  H    0.155508
    32  H    0.148162
    33  H    0.156562
    34  H    0.167101
 Sum of Mulliken charges =  -0.00000

 Dipole moment (field-independent basis, Debye):
    X=             -4.5669    Y=             -2.5388    Z=              1.6096  Tot=              5.4674
 Quadrupole moment (field-independent basis, Debye-Ang):
   XX=           -119.3743   YY=            -95.2157   ZZ=            -91.5335
   XY=             -9.1498   XZ=              7.5704   YZ=             -1.9895

 Normal termination of Gaussian 16 at Wed May  5 20:45:20 2021.
