 Gaussian 16, Revision A.03,
 Gaussian 16:  EM64L-G16RevA.03 25-Dec-2016

 -------------
 #p 6-31g* mp2
 -------------

 ------------------------------------------------------
 Input file generated by CHIRIPA (05-May-2021 14:55:22)
 ------------------------------------------------------
 Symbolic Z-matrix:
 Charge =  0 Multiplicity = 1

                         Standard orientation:
 ---------------------------------------------------------------------
 Center     Atomic      Atomic             Coordinates (Angstroms)
 Number     Number       Type             X           Y           Z
 ---------------------------------------------------------------------
      1          6           0        4.094826    0.710043    0.182500
      2          6           0        3.672961    0.238448   -1.064957
      3          6           0        2.537971   -0.570898   -1.171282
      4          6           0        1.845503   -0.890552   -0.004406
      5          6           0        2.240709   -0.436228    1.252850
      6          6           0        3.378616    0.371796    1.335390
      7          1           0        4.977646    1.338249    0.255858
      8          1           0        4.227226    0.499530   -1.961991
      9          1           0        2.189223   -0.949702   -2.124330
     10          1           0        1.667617   -0.713396    2.129298
     11          1           0        3.703919    0.736606    2.305512
     12          7           0        0.642396   -1.746670   -0.104377
     13          8           0        0.049700   -2.014010    0.938636
     14          8           0        0.314878   -2.134145   -1.223856
     15          6           0       -2.257529    1.507538   -0.408297
     16          6           0       -1.224683    2.271254    0.421131
     17          6           0       -0.515855    3.364759   -0.378621
     18          1           0       -1.760685    1.061926   -1.280949
     19          1           0       -3.000101    2.216629   -0.799669
     20          1           0       -0.485061    1.560745    0.811966
     21          1           0       -1.724008    2.714941    1.292012
     22          1           0       -1.238281    4.095734   -0.755950
     23          1           0        0.007706    2.934982   -1.238723
     24          1           0        0.218131    3.898035    0.233539
     25          6           0       -2.974573    0.411061    0.377396
     26          6           0       -4.007418   -0.352655   -0.452033
     27          6           0       -4.716246   -1.446160    0.347720
     28          1           0       -2.232001   -0.298030    0.768768
     29          1           0       -3.471416    0.856674    1.250048
     30          1           0       -3.508093   -0.796341   -1.322913
     31          1           0       -4.747040    0.357854   -0.842868
     32          1           0       -5.239807   -1.016382    1.207823
     33          1           0       -3.993821   -2.177135    0.725049
     34          1           0       -5.450232   -1.979437   -0.264439
 ---------------------------------------------------------------------

 SCF Done:  E(RHF) =  -669.536756136     A.U. after   15 cycles
 E2 =    -0.2093044090D+01 EUMP2 =    -0.67162980022530D+03

 The electronic state is 1-A.
 Alpha  occ. eigenvalues --  -20.61083 -20.61078 -15.86092 -11.31377 -11.27926
 Alpha  occ. eigenvalues --  -11.27919 -11.27641 -11.26918 -11.26908 -11.21239
 Alpha  occ. eigenvalues --  -11.20903 -11.20722 -11.20518 -11.20275 -11.19947
 Alpha  occ. eigenvalues --   -1.60131  -1.39688  -1.19531  -1.08942  -1.07660
 Alpha  occ. eigenvalues --   -1.04917  -1.02802  -0.95791  -0.95258  -0.86324
 Alpha  occ. eigenvalues --   -0.86278  -0.82626  -0.78922  -0.77691  -0.77396
 Alpha  occ. eigenvalues --   -0.72313  -0.71452  -0.70632  -0.65186  -0.64916
 Alpha  occ. eigenvalues --   -0.64272  -0.62264  -0.60198  -0.58685  -0.56857
 Alpha  occ. eigenvalues --   -0.55419  -0.54547  -0.53234  -0.53006  -0.52009
 Alpha  occ. eigenvalues --   -0.51677  -0.49237  -0.49082  -0.49041  -0.47227
 Alpha  occ. eigenvalues --   -0.45971  -0.45445  -0.44952  -0.44410  -0.43032
 Alpha  occ. eigenvalues --   -0.37487  -0.36502
 Alpha virt. eigenvalues --    0.04797   0.11079   0.16279   0.21252   0.23239
 Alpha virt. eigenvalues --    0.25064   0.26959   0.27286   0.27999   0.28461
 Alpha virt. eigenvalues --    0.28654   0.31013   0.31949   0.32227   0.32311

 Mulliken charges:
               1
     1  C   -0.170060
     2  C   -0.218118
     3  C   -0.171306
     4  C    0.159692
     5  C   -0.171250
     6  C   -0.218195
     7  H    0.226478
     8  H    0.224271
     9  H    0.275926
    10  H    0.276448
    11  H    0.224413
    12  N    0.487968
    13  O   -0.459236
    14  O   -0.458656
    15  C   -0.299703
    16  C   -0.300281
    17  C   -0.473878
    18  H    0.150590
    19  H    0.146860
    20  H    0.147998
    21  H    0.150842
    22  H    0.155164
    23  H    0.152893
    24  H    0.155451
    25  C   -0.309058
    26  C   -0.298575
    27  C   -0.477713
    28  H    0.170485
    29  H    0.143854
    30  H    0.158386
    31  H    0.145380
    32  H    0.149840
    33  H    0.166566
    34  H    0.156525
 Sum of Mulliken charges =  -0.00000

 Dipole moment (field-independent basis, Debye):
    X=              4.4579    Y=              2.7777    Z=              0.3508  Tot=              5.2641
 Quadrupole moment (field-independent basis, Debye-Ang):
   XX=            -79.9755   YY=           -101.4707   ZZ=            -89.9422
   XY=              1.3076   XZ=              0.0316   YZ=              0.5473

 Normal termination of Gaussian 16 at Thu May  6 01:28:38 2021.
