 Gaussian 16, Revision A.03,
 Gaussian 16:  EM64L-G16RevA.03 25-Dec-2016

 -------------
 #p 6-31g* mp2
 -------------

 ------------------------------------------------------
 Input file generated by CHIRIPA (05-May-2021 14:53:13)
 ------------------------------------------------------
 Symbolic Z-matrix:
 Charge =  0 Multiplicity = 1

                         Standard orientation:
 ---------------------------------------------------------------------
 Center     Atomic      Atomic             Coordinates (Angstroms)
 Number     Number       Type             X           Y           Z
 ---------------------------------------------------------------------
      1          6           0       -5.536024   -0.029965   -0.353014
      2          6           0       -6.222012   -1.340684    0.033536
      3          6           0       -7.564295   -1.535907   -0.672123
      4          1           0       -6.202926    0.809809   -0.114336
      5          1           0       -5.385517   -0.010042   -1.441291
      6          1           0       -6.369931   -1.358733    1.120923
      7          1           0       -5.553321   -2.177423   -0.205913
      8          1           0       -7.430676   -1.544161   -1.758714
      9          1           0       -8.251926   -0.720819   -0.424339
     10          1           0       -8.037318   -2.479057   -0.381302
     11          6           0       -4.193033    0.179524    0.344279
     12          6           0       -3.507046    1.490243   -0.042272
     13          6           0       -2.164762    1.685466    0.663388
     14          1           0       -4.343541    0.159601    1.432555
     15          1           0       -3.526131   -0.660250    0.105601
     16          1           0       -4.175736    2.326982    0.197178
     17          1           0       -3.359126    1.508292   -1.129659
     18          1           0       -1.477131    0.870378    0.415604
     19          1           0       -2.298381    1.693720    1.749979
     20          1           0       -1.691739    2.628616    0.372566
     21          6           0        1.660554    1.230807    0.356704
     22          6           0        1.944902    0.115159    1.151055
     23          6           0        3.127501   -0.606695    0.964144
     24          6           0        4.007287   -0.183060   -0.030743
     25          6           0        3.752295    0.924260   -0.838277
     26          6           0        2.563566    1.631091   -0.633681
     27          1           0        0.739501    1.785725    0.508770
     28          1           0        1.245453   -0.198004    1.920955
     29          1           0        3.372616   -1.474125    1.564896
     30          1           0        4.468942    1.212245   -1.597816
     31          1           0        2.345355    2.497128   -1.252074
     32          7           0        5.262496   -0.939302   -0.237978
     33          8           0        6.021209   -0.545654   -1.121174
     34          8           0        5.463850   -1.911371    0.486710
 ---------------------------------------------------------------------

 SCF Done:  E(RHF) =  -669.535261940     A.U. after   15 cycles
 E2 =    -0.2091266194D+01 EUMP2 =    -0.67162652813367D+03

 The electronic state is 1-A.
 Alpha  occ. eigenvalues --  -20.60701 -20.60696 -15.85755 -11.31098 -11.27674
 Alpha  occ. eigenvalues --  -11.27671 -11.27301 -11.26663 -11.26651 -11.22579
 Alpha  occ. eigenvalues --  -11.22436 -11.22156 -11.22090 -11.21966 -11.21468
 Alpha  occ. eigenvalues --   -1.59778  -1.39332  -1.19267  -1.09163  -1.08656
 Alpha  occ. eigenvalues --   -1.04671  -1.04314  -0.96807  -0.95493  -0.87839
 Alpha  occ. eigenvalues --   -0.86063  -0.82338  -0.80402  -0.78923  -0.77392
 Alpha  occ. eigenvalues --   -0.71972  -0.71102  -0.70372  -0.65784  -0.64914
 Alpha  occ. eigenvalues --   -0.64677  -0.62024  -0.61703  -0.60217  -0.58372
 Alpha  occ. eigenvalues --   -0.56176  -0.55154  -0.53420  -0.53225  -0.52982
 Alpha  occ. eigenvalues --   -0.52757  -0.50702  -0.48733  -0.48729  -0.48696
 Alpha  occ. eigenvalues --   -0.47385  -0.46479  -0.46364  -0.44743  -0.44548
 Alpha  occ. eigenvalues --   -0.37222  -0.36285
 Alpha virt. eigenvalues --    0.05131   0.11338   0.16588   0.20757   0.22291
 Alpha virt. eigenvalues --    0.23774   0.25909   0.26231   0.26531   0.27373
 Alpha virt. eigenvalues --    0.28894   0.29828   0.30758   0.31216   0.32114

 Mulliken charges:
               1
     1  C   -0.299026
     2  C   -0.300241
     3  C   -0.476121
     4  H    0.150748
     5  H    0.150833
     6  H    0.152363
     7  H    0.152810
     8  H    0.155991
     9  H    0.155708
    10  H    0.161831
    11  C   -0.299739
    12  C   -0.298816
    13  C   -0.485781
    14  H    0.150210
    15  H    0.150706
    16  H    0.155454
    17  H    0.154653
    18  H    0.154570
    19  H    0.158728
    20  H    0.156285
    21  C   -0.176709
    22  C   -0.222978
    23  C   -0.170719
    24  C    0.157968
    25  C   -0.170713
    26  C   -0.221506
    27  H    0.239815
    28  H    0.223652
    29  H    0.275195
    30  H    0.275151
    31  H    0.223113
    32  N    0.488067
    33  O   -0.460743
    34  O   -0.460761
 Sum of Mulliken charges =  -0.00000

 Dipole moment (field-independent basis, Debye):
    X=             -4.7097    Y=              2.6552    Z=              0.7155  Tot=              5.4538
 Quadrupole moment (field-independent basis, Debye-Ang):
   XX=           -130.5177   YY=            -94.1173   ZZ=            -92.0661
   XY=             11.9956   XZ=              1.2529   YZ=             -2.6782

 Normal termination of Gaussian 16 at Thu May  6 20:17:39 2021.
