 Gaussian 16, Revision A.03,
 Gaussian 16:  EM64L-G16RevA.03 25-Dec-2016

 -------------
 #p 6-31g* mp2
 -------------

 ------------------------------------------------------
 Input file generated by CHIRIPA (05-May-2021 14:57:27)
 ------------------------------------------------------
 Symbolic Z-matrix:
 Charge =  0 Multiplicity = 1

                         Standard orientation:
 ---------------------------------------------------------------------
 Center     Atomic      Atomic             Coordinates (Angstroms)
 Number     Number       Type             X           Y           Z
 ---------------------------------------------------------------------
      1          6           0        0.384946   -0.660738    1.544532
      2          6           0        0.910940   -1.569683    0.620590
      3          6           0        2.102219   -1.286920   -0.054280
      4          6           0        2.744180   -0.080372    0.220342
      5          6           0        2.245319    0.845536    1.135286
      6          6           0        1.052636    0.541850    1.798484
      7          1           0       -0.541013   -0.888521    2.064254
      8          1           0        0.394556   -2.504403    0.421369
      9          1           0        2.531662   -1.972679   -0.774511
     10          1           0        2.782760    1.769146    1.312823
     11          1           0        0.646473    1.249627    2.515512
     12          7           0        4.006076    0.230051   -0.487934
     13          8           0        4.552493    1.299916   -0.228215
     14          8           0        4.424838   -0.602382   -1.289389
     15          6           0       -2.565472   -2.390157   -0.258684
     16          6           0       -3.023079   -1.650408    0.836710
     17          6           0       -3.011477   -0.252779    0.804345
     18          6           0       -2.533374    0.375321   -0.344653
     19          6           0       -2.070792   -0.333842   -1.452081
     20          6           0       -2.091624   -1.730675   -1.397576
     21          1           0       -2.578069   -3.475559   -0.224943
     22          1           0       -3.391630   -2.159892    1.722510
     23          1           0       -3.359869    0.344498    1.638192
     24          1           0       -1.709247    0.202257   -2.321161
     25          1           0       -1.735625   -2.302596   -2.249758
     26          7           0       -2.516207    1.854507   -0.390637
     27          8           0       -2.090063    2.384039   -1.414665
     28          8           0       -2.929220    2.456353    0.598222
 ---------------------------------------------------------------------

 SCF Done:  E(RHF) =  -868.334842246     A.U. after   16 cycles
 E2 =    -0.2605994226D+01 EUMP2 =    -0.87094083647213D+03

 The electronic state is 1-A.
 Alpha  occ. eigenvalues --  -20.61567 -20.61529 -20.60691 -20.60673 -15.86608
 Alpha  occ. eigenvalues --  -15.85739 -11.32168 -11.31090 -11.28816 -11.28702
 Alpha  occ. eigenvalues --  -11.28578 -11.27890 -11.27790 -11.27707 -11.27619
 Alpha  occ. eigenvalues --  -11.27300 -11.26685 -11.26607  -1.60620  -1.59761
 Alpha  occ. eigenvalues --   -1.40169  -1.39315  -1.20417  -1.19263  -1.09767
 Alpha  occ. eigenvalues --   -1.08660  -1.05844  -1.04673  -0.96556  -0.95500
 Alpha  occ. eigenvalues --   -0.87213  -0.86072  -0.83377  -0.82339  -0.78376
 Alpha  occ. eigenvalues --   -0.77390  -0.72825  -0.71959  -0.71954  -0.71502
 Alpha  occ. eigenvalues --   -0.71084  -0.70423  -0.66045  -0.65814  -0.64916
 Alpha  occ. eigenvalues --   -0.64719  -0.63148  -0.62046  -0.56325  -0.55504
 Alpha  occ. eigenvalues --   -0.54240  -0.53898  -0.52812  -0.52537  -0.49601
 Alpha  occ. eigenvalues --   -0.49566  -0.48722  -0.48710  -0.45531  -0.44725
 Alpha  occ. eigenvalues --   -0.38505  -0.37543  -0.37116  -0.36083
 Alpha virt. eigenvalues --    0.04095   0.05151   0.10111   0.11365   0.15374
 Alpha virt. eigenvalues --    0.16698   0.20083   0.21939   0.25852   0.26828
 Alpha virt. eigenvalues --    0.28041   0.28871   0.29879   0.31572   0.31992

 Mulliken charges:
               1
     1  C   -0.169879
     2  C   -0.214987
     3  C   -0.174931
     4  C    0.158359
     5  C   -0.168893
     6  C   -0.222278
     7  H    0.223481
     8  H    0.214899
     9  H    0.271965
    10  H    0.277576
    11  H    0.227433
    12  N    0.488242
    13  O   -0.458584
    14  O   -0.462891
    15  C   -0.178664
    16  C   -0.226514
    17  C   -0.181715
    18  C    0.168201
    19  C   -0.164490
    20  C   -0.216664
    21  H    0.227864
    22  H    0.225683
    23  H    0.276446
    24  H    0.281209
    25  H    0.227686
    26  N    0.487843
    27  O   -0.454432
    28  O   -0.461963
 Sum of Mulliken charges =  -0.00000

 Dipole moment (field-independent basis, Debye):
    X=             -4.6894    Y=             -6.0791    Z=              2.4467  Tot=              8.0581
 Quadrupole moment (field-independent basis, Debye-Ang):
   XX=           -129.7029   YY=           -105.6586   ZZ=            -98.8898
   XY=             11.0163   XZ=              4.0987   YZ=              4.2078

 Normal termination of Gaussian 16 at Fri May  7 05:08:29 2021.
