 Gaussian 16, Revision A.03,
 Gaussian 16:  EM64L-G16RevA.03 25-Dec-2016

 -------------
 #p 6-31g* mp2
 -------------

 ------------------------------------------------------
 Input file generated by CHIRIPA (05-May-2021 14:55:24)
 ------------------------------------------------------
 Symbolic Z-matrix:
 Charge =  0 Multiplicity = 1

                         Standard orientation:
 ---------------------------------------------------------------------
 Center     Atomic      Atomic             Coordinates (Angstroms)
 Number     Number       Type             X           Y           Z
 ---------------------------------------------------------------------
      1          6           0       -6.534107   -0.233314    0.161540
      2          6           0       -5.658116   -1.323685    0.177399
      3          6           0       -4.277437   -1.126699    0.080090
      4          6           0       -3.805029    0.180008   -0.032334
      5          6           0       -4.652284    1.286850   -0.051009
      6          6           0       -6.029286    1.066182    0.047587
      7          1           0       -7.605224   -0.395536    0.237632
      8          1           0       -6.047341   -2.334000    0.265793
      9          1           0       -3.576759   -1.952758    0.089832
     10          1           0       -4.234504    2.282300   -0.140206
     11          1           0       -6.707232    1.914873    0.035005
     12          7           0       -2.345313    0.401083   -0.136032
     13          8           0       -1.954265    1.562155   -0.234164
     14          8           0       -1.619875   -0.590896   -0.117215
     15          6           0        5.749815    0.215179    0.332130
     16          6           0        7.092238    0.002091   -0.368213
     17          6           0        8.225589    0.806869    0.268687
     18          1           0        5.498525    1.284471    0.311813
     19          1           0        5.848207   -0.062724    1.390660
     20          1           0        6.990972    0.279001   -1.425418
     21          1           0        7.340269   -1.066843   -0.346393
     22          1           0        8.355469    0.524984    1.318579
     23          1           0        8.004187    1.878476    0.233423
     24          1           0        9.176053    0.639649   -0.247564
     25          6           0        4.606942   -0.582721   -0.293108
     26          6           0        3.264519   -0.369634    0.407236
     27          6           0        2.131168   -1.174413   -0.229665
     28          1           0        4.508549   -0.304820   -1.351637
     29          1           0        4.858231   -1.652014   -0.272790
     30          1           0        3.016488    0.699299    0.385416
     31          1           0        3.365785   -0.646545    1.464441
     32          1           0        2.352570   -2.246019   -0.194402
     33          1           0        2.001288   -0.892528   -1.279556
     34          1           0        1.180704   -1.007193    0.286586
 ---------------------------------------------------------------------

 SCF Done:  E(RHF) =  -669.536107471     A.U. after   15 cycles
 E2 =    -0.2090689142D+01 EUMP2 =    -0.67162679661295D+03

 The electronic state is 1-A.
 Alpha  occ. eigenvalues --  -20.60951 -20.60938 -15.85978 -11.31296 -11.27859
 Alpha  occ. eigenvalues --  -11.27855 -11.27596 -11.26865 -11.26856 -11.20937
 Alpha  occ. eigenvalues --  -11.20558 -11.20517 -11.20356 -11.20252 -11.19261
 Alpha  occ. eigenvalues --   -1.60007  -1.39563  -1.19464  -1.08869  -1.07474
 Alpha  occ. eigenvalues --   -1.04859  -1.02477  -0.95713  -0.94902  -0.86260
 Alpha  occ. eigenvalues --   -0.85917  -0.82544  -0.78582  -0.77597  -0.77250
 Alpha  occ. eigenvalues --   -0.72199  -0.71321  -0.70572  -0.65119  -0.64863
 Alpha  occ. eigenvalues --   -0.64118  -0.62206  -0.59888  -0.58326  -0.56489
 Alpha  occ. eigenvalues --   -0.55364  -0.54215  -0.53192  -0.52952  -0.51557
 Alpha  occ. eigenvalues --   -0.51343  -0.48967  -0.48950  -0.48829  -0.46864
 Alpha  occ. eigenvalues --   -0.45652  -0.44977  -0.44786  -0.44708  -0.42679
 Alpha  occ. eigenvalues --   -0.37444  -0.36461
 Alpha virt. eigenvalues --    0.04929   0.11195   0.16428   0.21331   0.23750
 Alpha virt. eigenvalues --    0.25441   0.27249   0.27548   0.28198   0.28400
 Alpha virt. eigenvalues --    0.29160   0.30894   0.32390   0.32418   0.32636

 Mulliken charges:
               1
     1  C   -0.170581
     2  C   -0.218559
     3  C   -0.170856
     4  C    0.157625
     5  C   -0.170555
     6  C   -0.218608
     7  H    0.225991
     8  H    0.223865
     9  H    0.276015
    10  H    0.275844
    11  H    0.223804
    12  N    0.490294
    13  O   -0.459159
    14  O   -0.460835
    15  C   -0.297446
    16  C   -0.298858
    17  C   -0.475172
    18  H    0.149367
    19  H    0.147699
    20  H    0.151187
    21  H    0.150502
    22  H    0.154152
    23  H    0.154705
    24  H    0.158140
    25  C   -0.297134
    26  C   -0.300008
    27  C   -0.481523
    28  H    0.148358
    29  H    0.146476
    30  H    0.154102
    31  H    0.146806
    32  H    0.144432
    33  H    0.153342
    34  H    0.186585
 Sum of Mulliken charges =  -0.00000

 Dipole moment (field-independent basis, Debye):
    X=             -5.5580    Y=             -0.7259    Z=              0.3692  Tot=              5.6173
 Quadrupole moment (field-independent basis, Debye-Ang):
   XX=            -58.4006   YY=            -89.9695   ZZ=            -95.5252
   XY=              0.7946   XZ=             -1.4259   YZ=             -0.9491

 Normal termination of Gaussian 16 at Wed May  5 19:08:55 2021.
