 Gaussian 16, Revision A.03,
 Gaussian 16:  EM64L-G16RevA.03 25-Dec-2016

 -------------
 #p 6-31g* mp2
 -------------

 ------------------------------------------------------
 Input file generated by CHIRIPA (05-May-2021 14:55:22)
 ------------------------------------------------------
 Symbolic Z-matrix:
 Charge =  0 Multiplicity = 1

                         Standard orientation:
 ---------------------------------------------------------------------
 Center     Atomic      Atomic             Coordinates (Angstroms)
 Number     Number       Type             X           Y           Z
 ---------------------------------------------------------------------
      1          6           0        3.838283    2.516106   -0.000307
      2          6           0        4.766839    1.657081   -0.597282
      3          6           0        4.576756    0.272410   -0.564061
      4          6           0        3.441881   -0.221246    0.077540
      5          6           0        2.498688    0.608762    0.681498
      6          6           0        2.709161    1.990132    0.636056
      7          1           0        3.993864    3.590470   -0.030860
      8          1           0        5.644646    2.062749   -1.092190
      9          1           0        5.279688   -0.415437   -1.018122
     10          1           0        1.633299    0.174759    1.167463
     11          1           0        1.986363    2.654870    1.100524
     12          7           0        3.229856   -1.685388    0.119178
     13          8           0        2.221881   -2.095299    0.690664
     14          8           0        4.075660   -2.395347   -0.420460
     15          6           0       -3.838612   -0.482948   -0.101850
     16          6           0       -2.512602    0.278347   -0.112491
     17          6           0       -1.298040   -0.650154   -0.135257
     18          1           0       -3.866115   -1.146525    0.773282
     19          1           0       -3.888211   -1.131433   -0.987515
     20          1           0       -2.466120    0.926238    0.772208
     21          1           0       -2.488333    0.940329   -0.987595
     22          1           0       -1.316989   -1.287498   -1.025220
     23          1           0       -1.294651   -1.301669    0.744582
     24          1           0       -0.360775   -0.085052   -0.142562
     25          6           0       -5.062062    0.431588   -0.079085
     26          6           0       -6.388071   -0.329707   -0.068443
     27          6           0       -7.602633    0.598794   -0.045677
     28          1           0       -5.012463    1.080073    0.806580
     29          1           0       -5.034558    1.095164   -0.954216
     30          1           0       -6.412341   -0.991689    0.806661
     31          1           0       -6.434554   -0.977598   -0.953143
     32          1           0       -7.606023    1.250309   -0.925517
     33          1           0       -7.583684    1.236139    0.844285
     34          1           0       -8.539898    0.033692   -0.038372
 ---------------------------------------------------------------------

 SCF Done:  E(RHF) =  -669.535328705     A.U. after   15 cycles
 E2 =    -0.2091520130D+01 EUMP2 =    -0.67162684883534D+03

 The electronic state is 1-A.
 Alpha  occ. eigenvalues --  -20.60760 -20.60746 -15.85802 -11.31192 -11.27764
 Alpha  occ. eigenvalues --  -11.27732 -11.27511 -11.26790 -11.26780 -11.21564
 Alpha  occ. eigenvalues --  -11.21550 -11.21356 -11.21277 -11.21047 -11.20840
 Alpha  occ. eigenvalues --   -1.59825  -1.39377  -1.19369  -1.08758  -1.08372
 Alpha  occ. eigenvalues --   -1.04778  -1.03461  -0.95899  -0.95584  -0.86907
 Alpha  occ. eigenvalues --   -0.86166  -0.82419  -0.79521  -0.78186  -0.77460
 Alpha  occ. eigenvalues --   -0.72021  -0.71145  -0.70483  -0.65020  -0.65003
 Alpha  occ. eigenvalues --   -0.64787  -0.62163  -0.60852  -0.59272  -0.57521
 Alpha  occ. eigenvalues --   -0.55283  -0.55156  -0.53155  -0.52964  -0.52456
 Alpha  occ. eigenvalues --   -0.52268  -0.49810  -0.48784  -0.48773  -0.47829
 Alpha  occ. eigenvalues --   -0.46555  -0.45720  -0.45655  -0.44782  -0.43703
 Alpha  occ. eigenvalues --   -0.37347  -0.36364
 Alpha virt. eigenvalues --    0.05034   0.11191   0.16535   0.21125   0.22941
 Alpha virt. eigenvalues --    0.24232   0.26657   0.26910   0.27538   0.27844
 Alpha virt. eigenvalues --    0.29145   0.30907   0.31535   0.31649   0.31955

 Mulliken charges:
               1
     1  C   -0.170672
     2  C   -0.218289
     3  C   -0.170994
     4  C    0.157722
     5  C   -0.172264
     6  C   -0.220114
     7  H    0.225643
     8  H    0.223504
     9  H    0.275647
    10  H    0.279974
    11  H    0.223874
    12  N    0.488248
    13  O   -0.459721
    14  O   -0.460551
    15  C   -0.298421
    16  C   -0.300629
    17  C   -0.475531
    18  H    0.151321
    19  H    0.151260
    20  H    0.146337
    21  H    0.149918
    22  H    0.160338
    23  H    0.162898
    24  H    0.151950
    25  C   -0.297964
    26  C   -0.299725
    27  C   -0.475638
    28  H    0.148077
    29  H    0.148754
    30  H    0.152621
    31  H    0.152645
    32  H    0.154705
    33  H    0.154551
    34  H    0.160527
 Sum of Mulliken charges =  -0.00000

 Dipole moment (field-independent basis, Debye):
    X=              0.7777    Y=              5.0531    Z=             -0.1551  Tot=              5.1149
 Quadrupole moment (field-independent basis, Debye-Ang):
   XX=            -87.2150   YY=            -97.7842   ZZ=            -93.0938
   XY=             17.9478   XZ=             -2.9451   YZ=              0.8240

 Normal termination of Gaussian 16 at Thu May  6 12:32:46 2021.
