 Gaussian 16, Revision A.03,
 Gaussian 16:  EM64L-G16RevA.03 25-Dec-2016

 -------------
 #p 6-31g* mp2
 -------------

 ------------------------------------------------------
 Input file generated by CHIRIPA (05-May-2021 14:53:15)
 ------------------------------------------------------
 Symbolic Z-matrix:
 Charge =  0 Multiplicity = 1

                         Standard orientation:
 ---------------------------------------------------------------------
 Center     Atomic      Atomic             Coordinates (Angstroms)
 Number     Number       Type             X           Y           Z
 ---------------------------------------------------------------------
      1          6           0       -3.427661    0.669868    0.202277
      2          6           0       -3.912369    2.059920   -0.211002
      3          6           0       -3.151558    3.184501    0.492046
      4          1           0       -3.532028    0.560644    1.290451
      5          1           0       -2.354956    0.582382   -0.019187
      6          1           0       -4.984144    2.144272    0.009901
      7          1           0       -3.807014    2.165778   -1.298343
      8          1           0       -2.082570    3.128650    0.262377
      9          1           0       -3.266389    3.107022    1.578054
     10          1           0       -3.514169    4.169501    0.181969
     11          6           0       -4.178657   -0.464841   -0.492106
     12          6           0       -3.693949   -1.854892   -0.078827
     13          6           0       -4.454760   -2.979474   -0.781875
     14          1           0       -5.251361   -0.377354   -0.270642
     15          1           0       -4.074289   -0.355616   -1.580280
     16          1           0       -3.799304   -1.960751    1.008514
     17          1           0       -2.622173   -1.939245   -0.299730
     18          1           0       -4.339929   -2.901995   -1.867883
     19          1           0       -5.523747   -2.923623   -0.552205
     20          1           0       -4.092149   -3.964474   -0.471797
     21          6           0        5.237478    0.103297   -0.980568
     22          6           0        5.093968   -0.602578    0.218460
     23          6           0        3.843074   -0.710679    0.833383
     24          6           0        2.752124   -0.097818    0.218957
     25          6           0        2.862982    0.612294   -0.975506
     26          6           0        4.123491    0.707414   -1.572680
     27          1           0        6.212936    0.182231   -1.451360
     28          1           0        5.957352   -1.072757    0.680567
     29          1           0        3.703627   -1.251115    1.761769
     30          1           0        1.983857    1.070307   -1.412291
     31          1           0        4.231973    1.256238   -2.503846
     32          7           0        1.422770   -0.205389    0.860554
     33          8           0        0.477227    0.343564    0.299094
     34          8           0        1.351537   -0.836619    1.912747
 ---------------------------------------------------------------------

 SCF Done:  E(RHF) =  -669.536196773     A.U. after   15 cycles
 E2 =    -0.2091096741D+01 EUMP2 =    -0.67162729351384D+03

 The electronic state is 1-A.
 Alpha  occ. eigenvalues --  -20.61002 -20.60995 -15.86039 -11.31339 -11.27902
 Alpha  occ. eigenvalues --  -11.27895 -11.27632 -11.26902 -11.26892 -11.20473
 Alpha  occ. eigenvalues --  -11.20443 -11.20217 -11.20199 -11.19998 -11.19795
 Alpha  occ. eigenvalues --   -1.60059  -1.39617  -1.19505  -1.08912  -1.07193
 Alpha  occ. eigenvalues --   -1.04898  -1.02424  -0.95757  -0.94872  -0.86300
 Alpha  occ. eigenvalues --   -0.85895  -0.82595  -0.78476  -0.77651  -0.76949
 Alpha  occ. eigenvalues --   -0.72260  -0.71373  -0.70613  -0.65163  -0.64901
 Alpha  occ. eigenvalues --   -0.63825  -0.62246  -0.59834  -0.58245  -0.56476
 Alpha  occ. eigenvalues --   -0.55402  -0.54164  -0.53231  -0.52990  -0.51628
 Alpha  occ. eigenvalues --   -0.51295  -0.49065  -0.49008  -0.48782  -0.46795
 Alpha  occ. eigenvalues --   -0.45506  -0.45041  -0.44536  -0.44312  -0.42630
 Alpha  occ. eigenvalues --   -0.37482  -0.36499
 Alpha virt. eigenvalues --    0.04878   0.11157   0.16378   0.21276   0.24041
 Alpha virt. eigenvalues --    0.25330   0.27211   0.27718   0.28187   0.28797
 Alpha virt. eigenvalues --    0.29152   0.30882   0.32268   0.32536   0.32805

 Mulliken charges:
               1
     1  C   -0.309907
     2  C   -0.298161
     3  C   -0.475284
     4  H    0.148572
     5  H    0.178931
     6  H    0.146732
     7  H    0.146563
     8  H    0.160240
     9  H    0.154840
    10  H    0.153310
    11  C   -0.297238
    12  C   -0.299244
    13  C   -0.475117
    14  H    0.144184
    15  H    0.144505
    16  H    0.152752
    17  H    0.158403
    18  H    0.151775
    19  H    0.152436
    20  H    0.157745
    21  C   -0.170528
    22  C   -0.218585
    23  C   -0.170339
    24  C    0.157362
    25  C   -0.170743
    26  C   -0.218492
    27  H    0.226171
    28  H    0.223992
    29  H    0.276025
    30  H    0.275272
    31  H    0.223966
    32  N    0.493665
    33  O   -0.465732
    34  O   -0.458069
 Sum of Mulliken charges =  -0.00000

 Dipole moment (field-independent basis, Debye):
    X=              5.0976    Y=              0.3349    Z=             -2.1650  Tot=              5.5484
 Quadrupole moment (field-independent basis, Debye-Ang):
   XX=            -69.9396   YY=            -95.6237   ZZ=            -93.0259
   XY=             -0.9617   XZ=             -4.7147   YZ=             -2.5993

 Normal termination of Gaussian 16 at Wed May  5 18:40:02 2021.
