 Gaussian 16, Revision A.03,
 Gaussian 16:  EM64L-G16RevA.03 25-Dec-2016

 -------------
 #p 6-31g* mp2
 -------------

 ------------------------------------------------------
 Input file generated by CHIRIPA (05-May-2021 14:51:10)
 ------------------------------------------------------
 Symbolic Z-matrix:
 Charge =  0 Multiplicity = 1

                         Standard orientation:
 ---------------------------------------------------------------------
 Center     Atomic      Atomic             Coordinates (Angstroms)
 Number     Number       Type             X           Y           Z
 ---------------------------------------------------------------------
      1          6           0        2.868569   -0.514109   -0.024441
      2          6           0        2.143422   -1.857699   -0.107589
      3          6           0        0.621683   -1.709036   -0.109474
      4          1           0        2.549008    0.012118    0.885455
      5          1           0        2.561585    0.113435   -0.872583
      6          1           0        2.452732   -2.483041    0.739696
      7          1           0        2.464890   -2.380872   -1.017294
      8          1           0        0.294500   -1.106838   -0.963236
      9          1           0        0.282274   -1.209587    0.803737
     10          1           0        0.123365   -2.681630   -0.169478
     11          6           0        4.390495   -0.646248   -0.021594
     12          6           0        5.115641    0.697342    0.061554
     13          6           0        6.637380    0.548679    0.063439
     14          1           0        4.697478   -1.273792    0.826548
     15          1           0        4.710055   -1.172474   -0.931490
     16          1           0        4.794173    1.220515    0.971259
     17          1           0        4.806331    1.322684   -0.785730
     18          1           0        6.976790    0.049231   -0.849772
     19          1           0        6.964563   -0.053519    0.917201
     20          1           0        7.135698    1.521273    0.123443
     21          6           0       -4.018569   -0.010011    0.312428
     22          6           0       -5.356827   -0.254867   -0.385496
     23          6           0       -6.123430   -1.438834    0.204704
     24          1           0       -3.404196   -0.918077    0.242387
     25          1           0       -4.197524    0.164540    1.382429
     26          1           0       -5.175524   -0.427533   -1.454108
     27          1           0       -5.968010    0.653953   -0.313952
     28          1           0       -6.333328   -1.271342    1.266067
     29          1           0       -5.536338   -2.358972    0.119432
     30          1           0       -7.076976   -1.595971   -0.309024
     31          6           0       -3.240493    1.170367   -0.266393
     32          6           0       -1.902236    1.415224    0.431531
     33          6           0       -1.135634    2.599191   -0.158670
     34          1           0       -3.061540    0.995818   -1.336395
     35          1           0       -3.854866    2.078434   -0.196352
     36          1           0       -1.291053    0.506404    0.359986
     37          1           0       -2.083540    1.587890    1.500143
     38          1           0       -1.722724    3.519329   -0.073398
     39          1           0       -0.925736    2.431699   -1.220032
     40          1           0       -0.182087    2.756328    0.355059
 ---------------------------------------------------------------------

 SCF Done:  E(RHF) =  -470.732890999     A.U. after   11 cycles
 E2 =    -0.1583064073D+01 EUMP2 =    -0.47231595507244D+03

 The electronic state is 1-A.
 Alpha  occ. eigenvalues --  -11.21662 -11.21619 -11.21545 -11.21439 -11.21406
 Alpha  occ. eigenvalues --  -11.21378 -11.21316 -11.21255 -11.21156 -11.21084
 Alpha  occ. eigenvalues --  -11.21028 -11.20985  -1.08470  -1.08338  -1.03586
 Alpha  occ. eigenvalues --   -1.03436  -0.96036  -0.95898  -0.87067  -0.86907
 Alpha  occ. eigenvalues --   -0.79707  -0.79459  -0.78299  -0.78129  -0.65097
 Alpha  occ. eigenvalues --   -0.64980  -0.60975  -0.60869  -0.59408  -0.59260
 Alpha  occ. eigenvalues --   -0.57672  -0.57479  -0.55319  -0.55192  -0.52730
 Alpha  occ. eigenvalues --   -0.52603  -0.52515  -0.52297  -0.49986  -0.49836
 Alpha  occ. eigenvalues --   -0.48157  -0.47703  -0.46692  -0.46480  -0.45919
 Alpha  occ. eigenvalues --   -0.45743  -0.45666  -0.45399  -0.43828  -0.43695
 Alpha virt. eigenvalues --    0.21741   0.22977   0.23771   0.24973   0.25816
 Alpha virt. eigenvalues --    0.26437   0.27206   0.27297   0.28350   0.29189
 Alpha virt. eigenvalues --    0.30629   0.31225   0.31803   0.31828   0.32172

 Mulliken charges:
               1
     1  C   -0.298578
     2  C   -0.299587
     3  C   -0.480156
     4  H    0.149717
     5  H    0.149999
     6  H    0.152219
     7  H    0.152084
     8  H    0.156115
     9  H    0.159165
    10  H    0.160473
    11  C   -0.298302
    12  C   -0.299700
    13  C   -0.475739
    14  H    0.149588
    15  H    0.149706
    16  H    0.151967
    17  H    0.152147
    18  H    0.155195
    19  H    0.155192
    20  H    0.160372
    21  C   -0.298770
    22  C   -0.299531
    23  C   -0.475648
    24  H    0.150451
    25  H    0.149110
    26  H    0.151756
    27  H    0.151775
    28  H    0.155033
    29  H    0.155134
    30  H    0.160011
    31  C   -0.297211
    32  C   -0.310623
    33  C   -0.475038
    34  H    0.148674
    35  H    0.149009
    36  H    0.165017
    37  H    0.150240
    38  H    0.154692
    39  H    0.154007
    40  H    0.160035
 Sum of Mulliken charges =  -0.00000

 Dipole moment (field-independent basis, Debye):
    X=              0.0612    Y=             -0.0471    Z=              0.0036  Tot=              0.0773
 Quadrupole moment (field-independent basis, Debye-Ang):
   XX=            -86.4336   YY=            -85.1772   ZZ=            -83.3988
   XY=             -0.8479   XZ=             -0.1127   YZ=              0.6162

 Normal termination of Gaussian 16 at Thu May  6 03:47:13 2021.
