 Gaussian 16, Revision A.03,
 Gaussian 16:  EM64L-G16RevA.03 25-Dec-2016

 -------------
 #p 6-31g* mp2
 -------------

 ------------------------------------------------------
 Input file generated by CHIRIPA (05-May-2021 14:55:19)
 ------------------------------------------------------
 Symbolic Z-matrix:
 Charge =  0 Multiplicity = 1

                         Standard orientation:
 ---------------------------------------------------------------------
 Center     Atomic      Atomic             Coordinates (Angstroms)
 Number     Number       Type             X           Y           Z
 ---------------------------------------------------------------------
      1          6           0        4.904509   -1.941832   -0.127565
      2          6           0        3.509102   -2.037381   -0.142715
      3          6           0        2.718394   -0.884423   -0.138495
      4          6           0        3.359197    0.353429   -0.118871
      5          6           0        4.747245    0.481393   -0.103451
      6          6           0        5.518046   -0.684966   -0.108015
      7          1           0        5.511018   -2.842683   -0.130977
      8          1           0        3.029891   -3.012148   -0.157911
      9          1           0        1.636148   -0.929481   -0.149937
     10          1           0        5.196176    1.467118   -0.088446
     11          1           0        6.601531   -0.607732   -0.096219
     12          7           0        2.532647    1.581107   -0.114221
     13          8           0        3.121485    2.659812   -0.096812
     14          8           0        1.311611    1.441410   -0.128074
     15          6           0       -3.773334   -0.478785    0.048945
     16          6           0       -2.739841    0.078632    1.028315
     17          6           0       -1.342699   -0.501825    0.807274
     18          1           0       -3.809381   -1.572429    0.146874
     19          1           0       -3.445856   -0.267589   -0.978454
     20          1           0       -3.069859   -0.132337    2.053593
     21          1           0       -2.706387    1.171091    0.928177
     22          1           0       -0.988661   -0.279134   -0.204491
     23          1           0       -1.354197   -1.589969    0.927320
     24          1           0       -0.619674   -0.089709    1.518087
     25          6           0       -5.174948    0.091989    0.257327
     26          6           0       -6.208440   -0.465428   -0.722042
     27          6           0       -7.605582    0.115028   -0.501002
     28          1           0       -5.502426   -0.119208    1.284726
     29          1           0       -5.138900    1.185631    0.159397
     30          1           0       -6.241894   -1.557889   -0.621904
     31          1           0       -5.878423   -0.254460   -1.747321
     32          1           0       -7.594084    1.203172   -0.621048
     33          1           0       -7.959620   -0.107663    0.510763
     34          1           0       -8.328607   -0.297087   -1.211816
 ---------------------------------------------------------------------

 SCF Done:  E(RHF) =  -669.535476625     A.U. after   15 cycles
 E2 =    -0.2091648526D+01 EUMP2 =    -0.67162712515099D+03

 The electronic state is 1-A.
 Alpha  occ. eigenvalues --  -20.60812 -20.60792 -15.85846 -11.31175 -11.27755
 Alpha  occ. eigenvalues --  -11.27706 -11.27496 -11.26764 -11.26744 -11.21287
 Alpha  occ. eigenvalues --  -11.21005 -11.20982 -11.20899 -11.20794 -11.20387
 Alpha  occ. eigenvalues --   -1.59882  -1.39437  -1.19351  -1.08758  -1.07986
 Alpha  occ. eigenvalues --   -1.04747  -1.03064  -0.95648  -0.95477  -0.86566
 Alpha  occ. eigenvalues --   -0.86144  -0.82431  -0.79168  -0.77819  -0.77449
 Alpha  occ. eigenvalues --   -0.72081  -0.71200  -0.70462  -0.65013  -0.64757
 Alpha  occ. eigenvalues --   -0.64603  -0.62100  -0.60442  -0.58884  -0.57128
 Alpha  occ. eigenvalues --   -0.55260  -0.54802  -0.53083  -0.52875  -0.52183
 Alpha  occ. eigenvalues --   -0.51956  -0.49531  -0.48832  -0.48751  -0.47467
 Alpha  occ. eigenvalues --   -0.46154  -0.45347  -0.45253  -0.44848  -0.43298
 Alpha  occ. eigenvalues --   -0.37339  -0.36350
 Alpha virt. eigenvalues --    0.05023   0.11289   0.16517   0.21200   0.23321
 Alpha virt. eigenvalues --    0.24716   0.26144   0.27095   0.27744   0.27993
 Alpha virt. eigenvalues --    0.29280   0.30629   0.31633   0.31950   0.32558

 Mulliken charges:
               1
     1  C   -0.170254
     2  C   -0.221518
     3  C   -0.175170
     4  C    0.155101
     5  C   -0.170252
     6  C   -0.219095
     7  H    0.225531
     8  H    0.224095
     9  H    0.288565
    10  H    0.275410
    11  H    0.223317
    12  N    0.490587
    13  O   -0.460196
    14  O   -0.463855
    15  C   -0.298575
    16  C   -0.300246
    17  C   -0.478744
    18  H    0.145692
    19  H    0.150464
    20  H    0.148452
    21  H    0.159876
    22  H    0.163984
    23  H    0.141016
    24  H    0.167461
    25  C   -0.298242
    26  C   -0.299288
    27  C   -0.475520
    28  H    0.148385
    29  H    0.151453
    30  H    0.150224
    31  H    0.151954
    32  H    0.155790
    33  H    0.154544
    34  H    0.159056
 Sum of Mulliken charges =  -0.00000

 Dipole moment (field-independent basis, Debye):
    X=              3.0156    Y=             -4.1772    Z=             -0.0388  Tot=              5.1521
 Quadrupole moment (field-independent basis, Debye-Ang):
   XX=            -73.5802   YY=            -96.3791   ZZ=            -95.3291
   XY=            -10.9547   XZ=             -0.3882   YZ=              0.1650

 Normal termination of Gaussian 16 at Thu May  6 17:24:14 2021.
