 Gaussian 16, Revision A.03,
 Gaussian 16:  EM64L-G16RevA.03 25-Dec-2016

 -------------
 #p 6-31g* mp2
 -------------

 ------------------------------------------------------
 Input file generated by CHIRIPA (05-May-2021 14:55:19)
 ------------------------------------------------------
 Symbolic Z-matrix:
 Charge =  0 Multiplicity = 1

                         Standard orientation:
 ---------------------------------------------------------------------
 Center     Atomic      Atomic             Coordinates (Angstroms)
 Number     Number       Type             X           Y           Z
 ---------------------------------------------------------------------
      1          6           0        1.366396    2.786773    0.304482
      2          6           0        2.617469    2.452594    0.833312
      3          6           0        3.177946    1.195005    0.590651
      4          6           0        2.456596    0.291859   -0.188625
      5          6           0        1.208073    0.595144   -0.729456
      6          6           0        0.666924    1.858618   -0.473842
      7          1           0        0.938511    3.765984    0.498018
      8          1           0        3.162949    3.171414    1.438121
      9          1           0        4.144678    0.910118    0.987749
     10          1           0        0.688139   -0.142460   -1.328645
     11          1           0       -0.304865    2.115402   -0.885828
     12          7           0        3.039718   -1.042609   -0.452376
     13          8           0        2.384091   -1.820512   -1.142056
     14          8           0        4.141354   -1.285394    0.035570
     15          6           0       -2.295421   -0.866254    0.077363
     16          6           0       -1.896271   -2.101920    0.884700
     17          6           0       -0.440993   -2.512014    0.657145
     18          1           0       -2.131766   -1.065276   -0.990603
     19          1           0       -1.632267   -0.032009    0.345055
     20          1           0       -2.560866   -2.933208    0.616578
     21          1           0       -2.061076   -1.900000    1.950854
     22          1           0        0.236906   -1.701137    0.942684
     23          1           0       -0.265724   -2.740215   -0.399173
     24          1           0       -0.176955   -3.397405    1.243852
     25          6           0       -3.747436   -0.443943    0.294236
     26          6           0       -4.146585    0.791724   -0.513100
     27          6           0       -5.601864    1.201817   -0.285545
     28          1           0       -4.410590   -1.278187    0.026545
     29          1           0       -3.911091   -0.244920    1.362203
     30          1           0       -3.981781    0.589804   -1.579254
     31          1           0       -3.481991    1.623012   -0.244978
     32          1           0       -5.777133    1.430019    0.770773
     33          1           0       -6.279763    0.390941   -0.571085
     34          1           0       -5.865902    2.087209   -0.872253
 ---------------------------------------------------------------------

 SCF Done:  E(RHF) =  -669.534417934     A.U. after   15 cycles
 E2 =    -0.2094971033D+01 EUMP2 =    -0.67162938896786D+03

 The electronic state is 1-A.
 Alpha  occ. eigenvalues --  -20.60802 -20.60768 -15.85818 -11.31181 -11.27780
 Alpha  occ. eigenvalues --  -11.27730 -11.27520 -11.26777 -11.26742 -11.22144
 Alpha  occ. eigenvalues --  -11.21726 -11.21652 -11.21498 -11.21484 -11.20526
 Alpha  occ. eigenvalues --   -1.59851  -1.39406  -1.19379  -1.08769  -1.08698
 Alpha  occ. eigenvalues --   -1.04779  -1.03671  -0.96091  -0.95598  -0.87109
 Alpha  occ. eigenvalues --   -0.86168  -0.82433  -0.79779  -0.78601  -0.77410
 Alpha  occ. eigenvalues --   -0.72052  -0.71175  -0.70478  -0.65350  -0.65021
 Alpha  occ. eigenvalues --   -0.64761  -0.62122  -0.61071  -0.59510  -0.57714
 Alpha  occ. eigenvalues --   -0.55376  -0.55270  -0.53147  -0.52865  -0.52728
 Alpha  occ. eigenvalues --   -0.52531  -0.50044  -0.48846  -0.48802  -0.48036
 Alpha  occ. eigenvalues --   -0.46819  -0.46086  -0.45958  -0.44652  -0.43937
 Alpha  occ. eigenvalues --   -0.37351  -0.36296
 Alpha virt. eigenvalues --    0.05019   0.11180   0.16353   0.20443   0.22831
 Alpha virt. eigenvalues --    0.23713   0.25254   0.25816   0.27625   0.28446
 Alpha virt. eigenvalues --    0.29041   0.30883   0.31457   0.31639   0.32264

 Mulliken charges:
               1
     1  C   -0.171571
     2  C   -0.219016
     3  C   -0.171042
     4  C    0.155879
     5  C   -0.168572
     6  C   -0.222068
     7  H    0.225763
     8  H    0.223438
     9  H    0.275729
    10  H    0.280103
    11  H    0.226687
    12  N    0.489751
    13  O   -0.458187
    14  O   -0.460382
    15  C   -0.306700
    16  C   -0.300133
    17  C   -0.477295
    18  H    0.145873
    19  H    0.148840
    20  H    0.152376
    21  H    0.150393
    22  H    0.149091
    23  H    0.168531
    24  H    0.162827
    25  C   -0.297169
    26  C   -0.300003
    27  C   -0.475594
    28  H    0.152385
    29  H    0.150853
    30  H    0.151530
    31  H    0.143995
    32  H    0.156072
    33  H    0.157852
    34  H    0.159762
 Sum of Mulliken charges =  -0.00000

 Dipole moment (field-independent basis, Debye):
    X=             -1.9886    Y=              4.5700    Z=              0.8988  Tot=              5.0643
 Quadrupole moment (field-independent basis, Debye-Ang):
   XX=           -102.7074   YY=            -91.7681   ZZ=            -93.7112
   XY=             12.8289   XZ=              5.4373   YZ=              0.7245

 Normal termination of Gaussian 16 at Thu May  6 10:48:27 2021.
