 Gaussian 16, Revision A.03,
 Gaussian 16:  EM64L-G16RevA.03 25-Dec-2016

 -------------
 #p 6-31g* mp2
 -------------

 ------------------------------------------------------
 Input file generated by CHIRIPA (05-May-2021 14:55:19)
 ------------------------------------------------------
 Symbolic Z-matrix:
 Charge =  0 Multiplicity = 1

                         Standard orientation:
 ---------------------------------------------------------------------
 Center     Atomic      Atomic             Coordinates (Angstroms)
 Number     Number       Type             X           Y           Z
 ---------------------------------------------------------------------
      1          6           0       -4.522683   -1.915435    0.149122
      2          6           0       -5.232290   -0.735881    0.397380
      3          6           0       -4.596450    0.506349    0.313000
      4          6           0       -3.243931    0.532267   -0.023614
      5          6           0       -2.509760   -0.625416   -0.276701
      6          6           0       -3.166074   -1.856542   -0.186534
      7          1           0       -5.024571   -2.876116    0.216919
      8          1           0       -6.285933   -0.778589    0.658258
      9          1           0       -5.121829    1.434992    0.500127
     10          1           0       -1.460310   -0.550918   -0.534621
     11          1           0       -2.612471   -2.770977   -0.379865
     12          7           0       -2.559958    1.841482   -0.116007
     13          8           0       -1.367649    1.837362   -0.414367
     14          8           0       -3.229120    2.846974    0.111686
     15          6           0        5.026444   -0.405641    0.235783
     16          6           0        5.774368    0.877148   -0.128973
     17          6           0        7.233415    0.860996    0.327878
     18          1           0        5.069873   -0.551074    1.323858
     19          1           0        5.543354   -1.264031   -0.215177
     20          1           0        5.255413    1.732994    0.321393
     21          1           0        5.728989    1.019645   -1.216287
     22          1           0        7.771821    0.025910   -0.131851
     23          1           0        7.295555    0.743313    1.414565
     24          1           0        7.749220    1.787489    0.056924
     25          6           0        3.566600   -0.404579   -0.214313
     26          6           0        2.818676   -1.687368    0.150443
     27          6           0        1.359629   -1.671217   -0.306408
     28          1           0        3.049690    0.453811    0.236648
     29          1           0        3.523171   -0.259146   -1.302388
     30          1           0        2.864054   -1.829865    1.237757
     31          1           0        3.337630   -2.543215   -0.299923
     32          1           0        1.297489   -1.553532   -1.393096
     33          1           0        0.821222   -0.836130    0.153321
     34          1           0        0.843824   -2.597709   -0.035454
 ---------------------------------------------------------------------

 SCF Done:  E(RHF) =  -669.535770075     A.U. after   15 cycles
 E2 =    -0.2091198624D+01 EUMP2 =    -0.67162696869861D+03

 The electronic state is 1-A.
 Alpha  occ. eigenvalues --  -20.60747 -20.60741 -15.85793 -11.31111 -11.27699
 Alpha  occ. eigenvalues --  -11.27622 -11.27440 -11.26710 -11.26680 -11.21727
 Alpha  occ. eigenvalues --  -11.21450 -11.21377 -11.21250 -11.21190 -11.20880
 Alpha  occ. eigenvalues --   -1.59819  -1.39374  -1.19291  -1.08699  -1.08338
 Alpha  occ. eigenvalues --   -1.04687  -1.03518  -0.95996  -0.95534  -0.87034
 Alpha  occ. eigenvalues --   -0.86086  -0.82368  -0.79599  -0.78115  -0.77410
 Alpha  occ. eigenvalues --   -0.72014  -0.71140  -0.70408  -0.64970  -0.64944
 Alpha  occ. eigenvalues --   -0.64694  -0.62060  -0.60898  -0.59370  -0.57578
 Alpha  occ. eigenvalues --   -0.55323  -0.55154  -0.53029  -0.52911  -0.52684
 Alpha  occ. eigenvalues --   -0.52309  -0.49915  -0.48770  -0.48769  -0.47887
 Alpha  occ. eigenvalues --   -0.46584  -0.45669  -0.45561  -0.44786  -0.43758
 Alpha  occ. eigenvalues --   -0.37283  -0.36286
 Alpha virt. eigenvalues --    0.05095   0.11338   0.16602   0.20849   0.23000
 Alpha virt. eigenvalues --    0.24224   0.25817   0.26779   0.27277   0.28063
 Alpha virt. eigenvalues --    0.29329   0.29806   0.31427   0.31683   0.32480

 Mulliken charges:
               1
     1  C   -0.170575
     2  C   -0.219100
     3  C   -0.170252
     4  C    0.157408
     5  C   -0.179119
     6  C   -0.222521
     7  H    0.225259
     8  H    0.223095
     9  H    0.275237
    10  H    0.290820
    11  H    0.223877
    12  N    0.487574
    13  O   -0.461933
    14  O   -0.460377
    15  C   -0.298634
    16  C   -0.300072
    17  C   -0.475753
    18  H    0.149276
    19  H    0.147999
    20  H    0.154934
    21  H    0.152498
    22  H    0.154128
    23  H    0.154854
    24  H    0.160733
    25  C   -0.300128
    26  C   -0.298542
    27  C   -0.486797
    28  H    0.157509
    29  H    0.150881
    30  H    0.152813
    31  H    0.151448
    32  H    0.157139
    33  H    0.163750
    34  H    0.152570
 Sum of Mulliken charges =  -0.00000

 Dipole moment (field-independent basis, Debye):
    X=             -2.3087    Y=             -4.5285    Z=              0.3305  Tot=              5.0938
 Quadrupole moment (field-independent basis, Debye-Ang):
   XX=            -76.6693   YY=            -99.2189   ZZ=            -94.6212
   XY=             11.5739   XZ=             -2.7563   YZ=              1.2600

 Normal termination of Gaussian 16 at Wed May  5 20:31:37 2021.
