 Gaussian 16, Revision A.03,
 Gaussian 16:  EM64L-G16RevA.03 25-Dec-2016

 -------------
 #p 6-31g* mp2
 -------------

 ------------------------------------------------------
 Input file generated by CHIRIPA (05-May-2021 14:57:26)
 ------------------------------------------------------
 Symbolic Z-matrix:
 Charge =  0 Multiplicity = 1

                         Standard orientation:
 ---------------------------------------------------------------------
 Center     Atomic      Atomic             Coordinates (Angstroms)
 Number     Number       Type             X           Y           Z
 ---------------------------------------------------------------------
      1          6           0       -1.987564   -0.035746    0.537513
      2          6           0       -2.679603    1.155718    0.778380
      3          6           0       -4.052304    1.242571    0.527987
      4          6           0       -4.704398    0.113530    0.034702
      5          6           0       -4.042751   -1.087694   -0.215446
      6          6           0       -2.670144   -1.151682    0.042242
      7          1           0       -0.921254   -0.094334    0.734858
      8          1           0       -2.152090    2.023960    1.162999
      9          1           0       -4.612629    2.152487    0.705488
     10          1           0       -4.595866   -1.936432   -0.599014
     11          1           0       -2.135273   -2.078296   -0.145758
     12          7           0       -6.157566    0.193375   -0.234240
     13          8           0       -6.709043   -0.815468   -0.668688
     14          8           0       -6.717565    1.263288   -0.005495
     15          6           0        6.468261    1.431603   -0.153309
     16          6           0        5.201752    1.918481   -0.493054
     17          6           0        4.084676    1.078673   -0.455466
     18          6           0        4.271221   -0.248477   -0.071845
     19          6           0        5.520158   -0.763213    0.272383
     20          6           0        6.623149    0.094668    0.227653
     21          1           0        7.330561    2.091006   -0.185282
     22          1           0        5.078483    2.956313   -0.789290
     23          1           0        3.092789    1.429436   -0.713427
     24          1           0        5.611631   -1.802525    0.563731
     25          1           0        7.605541   -0.286190    0.492034
     26          7           0        3.096079   -1.147110   -0.028272
     27          8           0        3.286941   -2.312321    0.313038
     28          8           0        2.006392   -0.669232   -0.336253
 ---------------------------------------------------------------------

 SCF Done:  E(RHF) =  -868.340218227     A.U. after   16 cycles
 E2 =    -0.2597999407D+01 EUMP2 =    -0.87093821763390D+03

 The electronic state is 1-A.
 Alpha  occ. eigenvalues --  -20.61868 -20.61809 -20.60124 -20.60115 -15.86870
 Alpha  occ. eigenvalues --  -15.85171 -11.31969 -11.30349 -11.28523 -11.28486
 Alpha  occ. eigenvalues --  -11.28185 -11.27460 -11.27439 -11.26953 -11.26884
 Alpha  occ. eigenvalues --  -11.26414 -11.25878 -11.25735  -1.60902  -1.59203
 Alpha  occ. eigenvalues --   -1.40464  -1.38762  -1.20114  -1.18493  -1.09556
 Alpha  occ. eigenvalues --   -1.07880  -1.05477  -1.03880  -0.96437  -0.94751
 Alpha  occ. eigenvalues --   -0.86886  -0.85260  -0.83281  -0.81605  -0.78359
 Alpha  occ. eigenvalues --   -0.76715  -0.73110  -0.72202  -0.71391  -0.71215
 Alpha  occ. eigenvalues --   -0.70526  -0.69479  -0.65769  -0.65473  -0.64125
 Alpha  occ. eigenvalues --   -0.63858  -0.62829  -0.61241  -0.55979  -0.54220
 Alpha  occ. eigenvalues --   -0.53818  -0.53563  -0.52212  -0.51951  -0.49872
 Alpha  occ. eigenvalues --   -0.49827  -0.48158  -0.48130  -0.45923  -0.44210
 Alpha  occ. eigenvalues --   -0.38073  -0.37068  -0.36404  -0.35507
 Alpha virt. eigenvalues --    0.04139   0.05829   0.10591   0.12165   0.15674
 Alpha virt. eigenvalues --    0.17388   0.20747   0.22490   0.26688   0.27555
 Alpha virt. eigenvalues --    0.28221   0.29410   0.30402   0.31666   0.32364

 Mulliken charges:
               1
     1  C   -0.175559
     2  C   -0.220731
     3  C   -0.172014
     4  C    0.157053
     5  C   -0.172205
     6  C   -0.220760
     7  H    0.245068
     8  H    0.218762
     9  H    0.271860
    10  H    0.273431
    11  H    0.229958
    12  N    0.488296
    13  O   -0.462180
    14  O   -0.463471
    15  C   -0.169768
    16  C   -0.218376
    17  C   -0.170922
    18  C    0.157673
    19  C   -0.170268
    20  C   -0.218436
    21  H    0.228259
    22  H    0.225350
    23  H    0.273505
    24  H    0.276795
    25  H    0.225932
    26  N    0.491085
    27  O   -0.456266
    28  O   -0.472073
 Sum of Mulliken charges =  -0.00000

 Dipole moment (field-independent basis, Debye):
    X=              9.8857    Y=              2.7818    Z=              0.8003  Tot=             10.3008
 Quadrupole moment (field-independent basis, Debye-Ang):
   XX=           -116.9761   YY=            -99.2611   ZZ=           -105.4794
   XY=             12.4677   XZ=             -4.1613   YZ=              0.1651

 Normal termination of Gaussian 16 at Wed May  5 18:02:29 2021.
