 Gaussian 16, Revision A.03,
 Gaussian 16:  EM64L-G16RevA.03 25-Dec-2016

 -------------
 #p 6-31g* mp2
 -------------

 ------------------------------------------------------
 Input file generated by CHIRIPA (05-May-2021 14:51:13)
 ------------------------------------------------------
 Symbolic Z-matrix:
 Charge =  0 Multiplicity = 1

                         Standard orientation:
 ---------------------------------------------------------------------
 Center     Atomic      Atomic             Coordinates (Angstroms)
 Number     Number       Type             X           Y           Z
 ---------------------------------------------------------------------
      1          6           0        5.315081   -0.428428    0.351852
      2          6           0        6.399855   -0.296251   -0.717625
      3          6           0        7.687267   -1.033700   -0.348119
      4          1           0        5.700100   -0.041695    1.305342
      5          1           0        5.095767   -1.493140    0.512114
      6          1           0        6.616073    0.767950   -0.876812
      7          1           0        6.012143   -0.683168   -1.668725
      8          1           0        7.492873   -2.102091   -0.209009
      9          1           0        8.100235   -0.642728    0.587403
     10          1           0        8.449140   -0.926018   -1.126459
     11          6           0        4.021999    0.303455   -0.003133
     12          6           0        2.937225    0.171278    1.066344
     13          6           0        1.649813    0.908726    0.696838
     14          1           0        4.241313    1.368167   -0.163395
     15          1           0        3.636980   -0.083278   -0.956623
     16          1           0        3.324937    0.558194    2.017444
     17          1           0        2.721007   -0.892923    1.225531
     18          1           0        1.236845    0.517755   -0.238684
     19          1           0        1.844207    1.977118    0.557728
     20          1           0        0.887940    0.801045    1.475178
     21          6           0       -4.195118    0.656032   -0.090651
     22          6           0       -2.796923    0.400640   -0.654397
     23          6           0       -1.861333    1.597240   -0.479432
     24          1           0       -4.627569    1.536754   -0.584878
     25          1           0       -4.112765    0.905326    0.976339
     26          1           0       -2.882008    0.150548   -1.719681
     27          1           0       -2.367827   -0.479691   -0.158907
     28          1           0       -1.746823    1.844923    0.580823
     29          1           0       -2.263924    2.478742   -0.988820
     30          1           0       -0.867315    1.392968   -0.889385
     31          6           0       -5.141961   -0.531059   -0.258069
     32          6           0       -6.540156   -0.275666    0.305678
     33          6           0       -7.475747   -1.472267    0.130713
     34          1           0       -5.224316   -0.780353   -1.325058
     35          1           0       -4.709511   -1.411781    0.236159
     36          1           0       -6.969252    0.604664   -0.189812
     37          1           0       -6.455073   -0.025575    1.370962
     38          1           0       -7.073156   -2.353769    0.640101
     39          1           0       -7.590258   -1.719950   -0.929542
     40          1           0       -8.469765   -1.267995    0.540667
 ---------------------------------------------------------------------

 SCF Done:  E(RHF) =  -470.732705860     A.U. after   11 cycles
 E2 =    -0.1582519597D+01 EUMP2 =    -0.47231522545684D+03

 The electronic state is 1-A.
 Alpha  occ. eigenvalues --  -11.21598 -11.21577 -11.21573 -11.21530 -11.21399
 Alpha  occ. eigenvalues --  -11.21364 -11.21340 -11.21303 -11.21069 -11.21053
 Alpha  occ. eigenvalues --  -11.21034 -11.20896  -1.08424  -1.08381  -1.03538
 Alpha  occ. eigenvalues --   -1.03454  -0.96031  -0.95861  -0.87095  -0.86831
 Alpha  occ. eigenvalues --   -0.79657  -0.79466  -0.78238  -0.78195  -0.65057
 Alpha  occ. eigenvalues --   -0.65013  -0.60951  -0.60862  -0.59381  -0.59267
 Alpha  occ. eigenvalues --   -0.57671  -0.57462  -0.55291  -0.55181  -0.52920
 Alpha  occ. eigenvalues --   -0.52560  -0.52383  -0.52143  -0.49914  -0.49828
 Alpha  occ. eigenvalues --   -0.47983  -0.47759  -0.46608  -0.46572  -0.45777
 Alpha  occ. eigenvalues --   -0.45738  -0.45701  -0.45667  -0.43829  -0.43620
 Alpha virt. eigenvalues --    0.22199   0.22998   0.23542   0.24882   0.26511
 Alpha virt. eigenvalues --    0.26590   0.26937   0.27387   0.27623   0.29062
 Alpha virt. eigenvalues --    0.29576   0.31258   0.31565   0.31966   0.32327

 Mulliken charges:
               1
     1  C   -0.298204
     2  C   -0.299635
     3  C   -0.475699
     4  H    0.149654
     5  H    0.149475
     6  H    0.151935
     7  H    0.151902
     8  H    0.155162
     9  H    0.155175
    10  H    0.160242
    11  C   -0.298400
    12  C   -0.300691
    13  C   -0.475271
    14  H    0.149543
    15  H    0.149448
    16  H    0.151665
    17  H    0.151624
    18  H    0.155575
    19  H    0.155514
    20  H    0.161307
    21  C   -0.298209
    22  C   -0.300150
    23  C   -0.478723
    24  H    0.149597
    25  H    0.149298
    26  H    0.151211
    27  H    0.151613
    28  H    0.155086
    29  H    0.153621
    30  H    0.166813
    31  C   -0.298194
    32  C   -0.299600
    33  C   -0.475668
    34  H    0.149383
    35  H    0.149455
    36  H    0.151907
    37  H    0.151851
    38  H    0.155098
    39  H    0.155125
    40  H    0.160164
 Sum of Mulliken charges =  -0.00000

 Dipole moment (field-independent basis, Debye):
    X=              0.0269    Y=              0.0124    Z=              0.0034  Tot=              0.0299
 Quadrupole moment (field-independent basis, Debye-Ang):
   XX=            -86.4536   YY=            -84.7928   ZZ=            -83.7708
   XY=              0.0873   XZ=              0.2519   YZ=              0.0901

 Normal termination of Gaussian 16 at Wed May  5 15:20:42 2021.
