 Gaussian 16, Revision A.03,
 Gaussian 16:  EM64L-G16RevA.03 25-Dec-2016

 -------------
 #p 6-31g* mp2
 -------------

 ------------------------------------------------------
 Input file generated by CHIRIPA (05-May-2021 14:57:24)
 ------------------------------------------------------
 Symbolic Z-matrix:
 Charge =  0 Multiplicity = 1

                         Standard orientation:
 ---------------------------------------------------------------------
 Center     Atomic      Atomic             Coordinates (Angstroms)
 Number     Number       Type             X           Y           Z
 ---------------------------------------------------------------------
      1          6           0        6.112003   -1.163564   -0.977642
      2          6           0        6.234939    0.154216   -0.525023
      3          6           0        5.168280    0.785094    0.122109
      4          6           0        3.987862    0.065358    0.300663
      5          6           0        3.834585   -1.248631   -0.138915
      6          6           0        4.914330   -1.859555   -0.783486
      7          1           0        6.945692   -1.645895   -1.479355
      8          1           0        7.163879    0.697164   -0.674430
      9          1           0        5.236283    1.804346    0.482550
     10          1           0        2.896045   -1.764234    0.024531
     11          1           0        4.816008   -2.883057   -1.133944
     12          7           0        2.851711    0.722678    0.984396
     13          8           0        1.822336    0.066947    1.129453
     14          8           0        3.012084    1.881170    1.362304
     15          6           0       -2.354367    1.642795   -0.888965
     16          6           0       -2.022901    0.368960   -0.415683
     17          6           0       -3.023459   -0.525699   -0.024511
     18          6           0       -4.351137   -0.111688   -0.120206
     19          6           0       -4.713263    1.150714   -0.587639
     20          6           0       -3.696125    2.028926   -0.973285
     21          1           0       -1.570669    2.331399   -1.190691
     22          1           0       -0.981720    0.066376   -0.349118
     23          1           0       -2.794978   -1.517816    0.345516
     24          1           0       -5.760081    1.423791   -0.642606
     25          1           0       -3.956494    3.017578   -1.340463
     26          7           0       -5.419159   -1.050118    0.290985
     27          8           0       -6.581316   -0.661265    0.197062
     28          8           0       -5.073894   -2.156742    0.699411
 ---------------------------------------------------------------------

 SCF Done:  E(RHF) =  -868.339689730     A.U. after   16 cycles
 E2 =    -0.2598267829D+01 EUMP2 =    -0.87093795755907D+03

 The electronic state is 1-A.
 Alpha  occ. eigenvalues --  -20.61739 -20.61682 -20.60147 -20.60141 -15.86743
 Alpha  occ. eigenvalues --  -15.85191 -11.31885 -11.30399 -11.28437 -11.28412
 Alpha  occ. eigenvalues --  -11.28108 -11.27381 -11.27370 -11.26966 -11.26881
 Alpha  occ. eigenvalues --  -11.26597 -11.25968 -11.25751  -1.60776  -1.59224
 Alpha  occ. eigenvalues --   -1.40337  -1.38782  -1.20033  -1.18535  -1.09466
 Alpha  occ. eigenvalues --   -1.07953  -1.05401  -1.03901  -0.96338  -0.94824
 Alpha  occ. eigenvalues --   -0.86808  -0.85300  -0.83179  -0.81653  -0.78257
 Alpha  occ. eigenvalues --   -0.76728  -0.72967  -0.72086  -0.71415  -0.71133
 Alpha  occ. eigenvalues --   -0.70544  -0.69640  -0.65687  -0.65394  -0.64178
 Alpha  occ. eigenvalues --   -0.63867  -0.62751  -0.61242  -0.55898  -0.54396
 Alpha  occ. eigenvalues --   -0.53743  -0.53485  -0.52254  -0.51968  -0.49733
 Alpha  occ. eigenvalues --   -0.49695  -0.48179  -0.48155  -0.45783  -0.44223
 Alpha  occ. eigenvalues --   -0.37995  -0.36994  -0.36502  -0.35500
 Alpha virt. eigenvalues --    0.04228   0.05778   0.10663   0.12156   0.15747
 Alpha virt. eigenvalues --    0.17329   0.20809   0.22374   0.26739   0.27465
 Alpha virt. eigenvalues --    0.28445   0.29149   0.30394   0.31538   0.32365

 Mulliken charges:
               1
     1  C   -0.169953
     2  C   -0.218433
     3  C   -0.170740
     4  C    0.157372
     5  C   -0.171165
     6  C   -0.218307
     7  H    0.228124
     8  H    0.225556
     9  H    0.276360
    10  H    0.273859
    11  H    0.225816
    12  N    0.489326
    13  O   -0.468460
    14  O   -0.456618
    15  C   -0.171381
    16  C   -0.220888
    17  C   -0.172899
    18  C    0.158224
    19  C   -0.172798
    20  C   -0.218673
    21  H    0.226445
    22  H    0.238809
    23  H    0.273858
    24  H    0.272723
    25  H    0.220604
    26  N    0.488187
    27  O   -0.462799
    28  O   -0.462149
 Sum of Mulliken charges =  -0.00000

 Dipole moment (field-independent basis, Debye):
    X=              8.2945    Y=              1.0040    Z=             -3.8610  Tot=              9.2040
 Quadrupole moment (field-independent basis, Debye-Ang):
   XX=           -102.5116   YY=           -100.5402   ZZ=           -107.2620
   XY=            -24.1741   XZ=             -1.7349   YZ=             -1.3163

 Normal termination of Gaussian 16 at Fri May  7 08:01:26 2021.
