 Gaussian 16, Revision A.03,
 Gaussian 16:  EM64L-G16RevA.03 25-Dec-2016

 -------------
 #p 6-31g* mp2
 -------------

 ------------------------------------------------------
 Input file generated by CHIRIPA (05-May-2021 14:53:16)
 ------------------------------------------------------
 Symbolic Z-matrix:
 Charge =  0 Multiplicity = 1

                         Standard orientation:
 ---------------------------------------------------------------------
 Center     Atomic      Atomic             Coordinates (Angstroms)
 Number     Number       Type             X           Y           Z
 ---------------------------------------------------------------------
      1          6           0        2.912993    1.351458   -0.423415
      2          6           0        1.606818    1.892132    0.159307
      3          6           0        1.342696    3.346644   -0.231114
      4          1           0        3.746873    1.980965   -0.083844
      5          1           0        2.881544    1.438257   -1.518345
      6          1           0        1.640157    1.803063    1.252729
      7          1           0        0.775972    1.261151   -0.181536
      8          1           0        1.282779    3.448574   -1.319517
      9          1           0        2.151874    3.993566    0.122897
     10          1           0        0.403971    3.712881    0.196117
     11          6           0        3.190952   -0.101450   -0.041937
     12          6           0        4.497126   -0.642123   -0.624659
     13          6           0        4.761249   -2.096635   -0.234238
     14          1           0        3.222400   -0.188248    1.052993
     15          1           0        2.357071   -0.730957   -0.381508
     16          1           0        5.327972   -0.011142   -0.283816
     17          1           0        4.463788   -0.553055   -1.718081
     18          1           0        3.952070   -2.743557   -0.588249
     19          1           0        4.821165   -2.198566    0.854165
     20          1           0        5.699973   -2.462872   -0.661469
     21          6           0       -4.478428    0.114477   -1.090013
     22          6           0       -4.232895    0.683343    0.164031
     23          6           0       -3.075923    0.356657    0.877641
     24          6           0       -2.181906   -0.546557    0.304730
     25          6           0       -2.398386   -1.130124   -0.942618
     26          6           0       -3.562005   -0.788849   -1.638368
     27          1           0       -5.379773    0.373921   -1.637426
     28          1           0       -4.942841    1.385175    0.592348
     29          1           0       -2.861001    0.782238    1.850321
     30          1           0       -1.672124   -1.826617   -1.343690
     31          1           0       -3.750085   -1.232191   -2.612081
     32          7           0       -0.953553   -0.900128    1.050744
     33          8           0       -0.181585   -1.698500    0.524146
     34          8           0       -0.785996   -0.372191    2.147942
 ---------------------------------------------------------------------

 SCF Done:  E(RHF) =  -669.535897649     A.U. after   15 cycles
 E2 =    -0.2092820978D+01 EUMP2 =    -0.67162871862689D+03

 The electronic state is 1-A.
 Alpha  occ. eigenvalues --  -20.60951 -20.60938 -15.85955 -11.31300 -11.27865
 Alpha  occ. eigenvalues --  -11.27855 -11.27595 -11.26866 -11.26856 -11.20769
 Alpha  occ. eigenvalues --  -11.20589 -11.20525 -11.20454 -11.20077 -11.19978
 Alpha  occ. eigenvalues --   -1.59994  -1.39552  -1.19465  -1.08867  -1.07411
 Alpha  occ. eigenvalues --   -1.04861  -1.02638  -0.95709  -0.95079  -0.86262
 Alpha  occ. eigenvalues --   -0.86101  -0.82544  -0.78707  -0.77600  -0.77161
 Alpha  occ. eigenvalues --   -0.72192  -0.71302  -0.70572  -0.65121  -0.64863
 Alpha  occ. eigenvalues --   -0.64047  -0.62209  -0.60051  -0.58463  -0.56681
 Alpha  occ. eigenvalues --   -0.55364  -0.54375  -0.53190  -0.52953  -0.51837
 Alpha  occ. eigenvalues --   -0.51496  -0.49051  -0.48952  -0.48937  -0.47031
 Alpha  occ. eigenvalues --   -0.45751  -0.45179  -0.44674  -0.44324  -0.42840
 Alpha  occ. eigenvalues --   -0.37438  -0.36461
 Alpha virt. eigenvalues --    0.04894   0.11190   0.16345   0.21313   0.23790
 Alpha virt. eigenvalues --    0.25091   0.27220   0.27457   0.28040   0.28548
 Alpha virt. eigenvalues --    0.28879   0.31010   0.32115   0.32249   0.32637

 Mulliken charges:
               1
     1  C   -0.298277
     2  C   -0.297597
     3  C   -0.474826
     4  H    0.146052
     5  H    0.143607
     6  H    0.163127
     7  H    0.143263
     8  H    0.151293
     9  H    0.154415
    10  H    0.155658
    11  C   -0.304673
    12  C   -0.299198
    13  C   -0.474452
    14  H    0.154703
    15  H    0.168136
    16  H    0.147543
    17  H    0.146444
    18  H    0.157968
    19  H    0.156666
    20  H    0.154622
    21  C   -0.170476
    22  C   -0.218530
    23  C   -0.170581
    24  C    0.156118
    25  C   -0.171426
    26  C   -0.218469
    27  H    0.226062
    28  H    0.223901
    29  H    0.276023
    30  H    0.275461
    31  H    0.223814
    32  N    0.490512
    33  O   -0.459489
    34  O   -0.457395
 Sum of Mulliken charges =  -0.00000

 Dipole moment (field-independent basis, Debye):
    X=             -4.5455    Y=              1.0887    Z=             -2.4534  Tot=              5.2789
 Quadrupole moment (field-independent basis, Debye-Ang):
   XX=            -76.7554   YY=            -96.3064   ZZ=            -93.2452
   XY=             -1.0730   XZ=              4.2399   YZ=              5.1105

 Normal termination of Gaussian 16 at Thu May  6 13:52:29 2021.
