 Gaussian 16, Revision A.03,
 Gaussian 16:  EM64L-G16RevA.03 25-Dec-2016

 -------------
 #p 6-31g* mp2
 -------------

 ------------------------------------------------------
 Input file generated by CHIRIPA (05-May-2021 14:53:12)
 ------------------------------------------------------
 Symbolic Z-matrix:
 Charge =  0 Multiplicity = 1

                         Standard orientation:
 ---------------------------------------------------------------------
 Center     Atomic      Atomic             Coordinates (Angstroms)
 Number     Number       Type             X           Y           Z
 ---------------------------------------------------------------------
      1          6           0        3.885627   -0.241464   -0.330952
      2          6           0        4.733401   -1.471124   -0.003538
      3          6           0        5.132037   -2.263052   -1.249224
      4          1           0        2.982481   -0.559489   -0.869592
      5          1           0        4.445641    0.409352   -1.016676
      6          1           0        4.172508   -2.118754    0.682458
      7          1           0        5.634541   -1.150155    0.534554
      8          1           0        5.713486   -1.637164   -1.933900
      9          1           0        4.243146   -2.611266   -1.785155
     10          1           0        5.737544   -3.137766   -0.992134
     11          6           0        3.479250    0.560529    0.904116
     12          6           0        2.631475    1.790189    0.576702
     13          6           0        2.232840    2.582116    1.822389
     14          1           0        2.919236   -0.090287    1.589841
     15          1           0        4.382395    0.878553    1.442756
     16          1           0        1.730336    1.469219    0.038611
     17          1           0        3.192369    2.437818   -0.109294
     18          1           0        3.121730    2.930331    2.358320
     19          1           0        1.651390    1.956228    2.507065
     20          1           0        1.627332    3.456831    1.565299
     21          6           0       -4.210767   -1.728529    1.195354
     22          6           0       -4.861051   -0.710319    0.490441
     23          6           0       -4.132089    0.184055   -0.299025
     24          6           0       -2.747952    0.030424   -0.361100
     25          6           0       -2.071169   -0.973759    0.329457
     26          6           0       -2.820353   -1.856774    1.112757
     27          1           0       -4.784896   -2.418888    1.806234
     28          1           0       -5.940757   -0.608331    0.552717
     29          1           0       -4.610026    0.981394   -0.855124
     30          1           0       -0.993726   -1.050226    0.247675
     31          1           0       -2.312661   -2.646577    1.659113
     32          7           0       -1.965528    0.971245   -1.193608
     33          8           0       -0.747063    0.814620   -1.231662
     34          8           0       -2.585546    1.847469   -1.792311
 ---------------------------------------------------------------------

 SCF Done:  E(RHF) =  -669.536149860     A.U. after   15 cycles
 E2 =    -0.2091103692D+01 EUMP2 =    -0.67162725355282D+03

 The electronic state is 1-A.
 Alpha  occ. eigenvalues --  -20.60975 -20.60960 -15.86007 -11.31316 -11.27884
 Alpha  occ. eigenvalues --  -11.27873 -11.27612 -11.26884 -11.26874 -11.21228
 Alpha  occ. eigenvalues --  -11.20806 -11.20750 -11.20744 -11.20546 -11.20352
 Alpha  occ. eigenvalues --   -1.60030  -1.39587  -1.19483  -1.08889  -1.07814
 Alpha  occ. eigenvalues --   -1.04880  -1.02914  -0.95733  -0.95407  -0.86427
 Alpha  occ. eigenvalues --   -0.86280  -0.82571  -0.78978  -0.77666  -0.77542
 Alpha  occ. eigenvalues --   -0.72233  -0.71342  -0.70593  -0.65143  -0.64883
 Alpha  occ. eigenvalues --   -0.64450  -0.62229  -0.60312  -0.58773  -0.56989
 Alpha  occ. eigenvalues --   -0.55383  -0.54716  -0.53210  -0.52972  -0.52105
 Alpha  occ. eigenvalues --   -0.51823  -0.49374  -0.48991  -0.48981  -0.47295
 Alpha  occ. eigenvalues --   -0.46024  -0.45209  -0.45141  -0.44770  -0.43175
 Alpha  occ. eigenvalues --   -0.37460  -0.36480
 Alpha virt. eigenvalues --    0.04880   0.11174   0.16356   0.21065   0.23195
 Alpha virt. eigenvalues --    0.24812   0.26584   0.27422   0.27832   0.28413
 Alpha virt. eigenvalues --    0.28929   0.30965   0.31832   0.32244   0.32535

 Mulliken charges:
               1
     1  C   -0.299166
     2  C   -0.298657
     3  C   -0.475190
     4  H    0.154445
     5  H    0.150634
     6  H    0.147263
     7  H    0.150930
     8  H    0.156099
     9  H    0.154854
    10  H    0.157831
    11  C   -0.296513
    12  C   -0.312164
    13  C   -0.474466
    14  H    0.141768
    15  H    0.146495
    16  H    0.179049
    17  H    0.150982
    18  H    0.151073
    19  H    0.148755
    20  H    0.162374
    21  C   -0.170563
    22  C   -0.218513
    23  C   -0.170728
    24  C    0.158112
    25  C   -0.170526
    26  C   -0.218475
    27  H    0.226128
    28  H    0.223935
    29  H    0.275936
    30  H    0.274978
    31  H    0.223925
    32  N    0.492632
    33  O   -0.464801
    34  O   -0.458439
 Sum of Mulliken charges =  -0.00000

 Dipole moment (field-independent basis, Debye):
    X=             -3.0019    Y=             -3.2607    Z=              2.7756  Tot=              5.2296
 Quadrupole moment (field-independent basis, Debye-Ang):
   XX=            -76.0863   YY=            -94.7138   ZZ=            -98.2486
   XY=              7.7834   XZ=             -6.2088   YZ=             -0.3942

 Normal termination of Gaussian 16 at Thu May  6 16:59:52 2021.
