 Gaussian 16, Revision A.03,
 Gaussian 16:  EM64L-G16RevA.03 25-Dec-2016

 -------------
 #p 6-31g* mp2
 -------------

 ------------------------------------------------------
 Input file generated by CHIRIPA (05-May-2021 14:53:17)
 ------------------------------------------------------
 Symbolic Z-matrix:
 Charge =  0 Multiplicity = 1

                         Standard orientation:
 ---------------------------------------------------------------------
 Center     Atomic      Atomic             Coordinates (Angstroms)
 Number     Number       Type             X           Y           Z
 ---------------------------------------------------------------------
      1          6           0        5.519840   -0.080979   -0.406317
      2          6           0        6.529135   -1.050093    0.210227
      3          6           0        7.714606   -1.335134   -0.712380
      4          1           0        5.155634   -0.496001   -1.356083
      5          1           0        6.029397    0.861081   -0.651818
      6          1           0        6.017522   -1.989550    0.455764
      7          1           0        6.890837   -0.632805    1.158730
      8          1           0        8.250561   -0.410013   -0.947971
      9          1           0        7.372284   -1.774468   -1.654931
     10          1           0        8.423673   -2.030141   -0.251891
     11          6           0        4.329026    0.213843    0.504051
     12          6           0        3.319732    1.182958   -0.112493
     13          6           0        2.134261    1.467999    0.810114
     14          1           0        3.819469   -0.728216    0.749552
     15          1           0        4.693233    0.628866    1.453817
     16          1           0        2.958029    0.765669   -1.060996
     17          1           0        3.831344    2.122415   -0.358030
     18          1           0        2.476583    1.907332    1.752666
     19          1           0        1.598305    0.542878    1.045705
     20          1           0        1.425194    2.163006    0.349626
     21          6           0       -2.152730    1.817477   -0.047026
     22          6           0       -1.788902    0.545049    0.405826
     23          6           0       -2.719525   -0.498215    0.415192
     24          6           0       -4.011030   -0.232625   -0.037322
     25          6           0       -4.403941    1.024305   -0.494529
     26          6           0       -3.456790    2.052630   -0.494969
     27          1           0       -1.423379    2.622107   -0.050835
     28          1           0       -0.776869    0.359531    0.754279
     29          1           0       -2.464704   -1.492836    0.760465
     30          1           0       -5.420350    1.178733   -0.835824
     31          1           0       -3.742157    3.039813   -0.847216
     32          7           0       -5.004988   -1.329173   -0.032131
     33          8           0       -6.136418   -1.069433   -0.435913
     34          8           0       -4.633803   -2.427625    0.375621
 ---------------------------------------------------------------------

 SCF Done:  E(RHF) =  -669.535387584     A.U. after   15 cycles
 E2 =    -0.2091150723D+01 EUMP2 =    -0.67162653830689D+03

 The electronic state is 1-A.
 Alpha  occ. eigenvalues --  -20.60705 -20.60700 -15.85757 -11.31104 -11.27671
 Alpha  occ. eigenvalues --  -11.27653 -11.27398 -11.26690 -11.26609 -11.22552
 Alpha  occ. eigenvalues --  -11.22424 -11.22116 -11.22049 -11.21929 -11.21431
 Alpha  occ. eigenvalues --   -1.59781  -1.39335  -1.19269  -1.09127  -1.08668
 Alpha  occ. eigenvalues --   -1.04670  -1.04276  -0.96757  -0.95508  -0.87789
 Alpha  occ. eigenvalues --   -0.86062  -0.82341  -0.80355  -0.78883  -0.77391
 Alpha  occ. eigenvalues --   -0.71976  -0.71104  -0.70386  -0.65766  -0.64920
 Alpha  occ. eigenvalues --   -0.64691  -0.62094  -0.61605  -0.60162  -0.58334
 Alpha  occ. eigenvalues --   -0.56058  -0.55168  -0.53504  -0.53196  -0.53001
 Alpha  occ. eigenvalues --   -0.52714  -0.50660  -0.48744  -0.48732  -0.48643
 Alpha  occ. eigenvalues --   -0.47350  -0.46438  -0.46327  -0.44745  -0.44515
 Alpha  occ. eigenvalues --   -0.37251  -0.36272
 Alpha virt. eigenvalues --    0.05138   0.11374   0.16637   0.19705   0.22467
 Alpha virt. eigenvalues --    0.23912   0.24946   0.25873   0.26277   0.27275
 Alpha virt. eigenvalues --    0.28894   0.29604   0.31139   0.31630   0.32389

 Mulliken charges:
               1
     1  C   -0.298982
     2  C   -0.300245
     3  C   -0.476128
     4  H    0.150882
     5  H    0.150455
     6  H    0.152849
     7  H    0.152572
     8  H    0.155600
     9  H    0.155994
    10  H    0.161818
    11  C   -0.299431
    12  C   -0.299588
    13  C   -0.481592
    14  H    0.150266
    15  H    0.151220
    16  H    0.154297
    17  H    0.155097
    18  H    0.161754
    19  H    0.151796
    20  H    0.153940
    21  C   -0.175223
    22  C   -0.224054
    23  C   -0.173152
    24  C    0.158907
    25  C   -0.171404
    26  C   -0.218497
    27  H    0.226661
    28  H    0.233960
    29  H    0.275391
    30  H    0.275193
    31  H    0.223026
    32  N    0.488045
    33  O   -0.460736
    34  O   -0.460690
 Sum of Mulliken charges =  -0.00000

 Dipole moment (field-independent basis, Debye):
    X=              3.8006    Y=              3.8667    Z=             -0.0212  Tot=              5.4218
 Quadrupole moment (field-independent basis, Debye-Ang):
   XX=           -120.5163   YY=            -94.4946   ZZ=            -94.9546
   XY=            -18.2030   XZ=              2.1533   YZ=             -1.3144

 Normal termination of Gaussian 16 at Wed May  5 15:43:07 2021.
