 Gaussian 16, Revision A.03,
 Gaussian 16:  EM64L-G16RevA.03 25-Dec-2016

 -------------
 #p 6-31g* mp2
 -------------

 ------------------------------------------------------
 Input file generated by CHIRIPA (05-May-2021 14:55:24)
 ------------------------------------------------------
 Symbolic Z-matrix:
 Charge =  0 Multiplicity = 1

                         Standard orientation:
 ---------------------------------------------------------------------
 Center     Atomic      Atomic             Coordinates (Angstroms)
 Number     Number       Type             X           Y           Z
 ---------------------------------------------------------------------
      1          6           0        2.930172   -2.196409    0.618285
      2          6           0        2.612154   -1.787418   -0.680989
      3          6           0        2.592251   -0.429518   -1.013046
      4          6           0        2.896849    0.496561   -0.016609
      5          6           0        3.217561    0.120438    1.286835
      6          6           0        3.231329   -1.242857    1.596326
      7          1           0        2.943250   -3.253354    0.867470
      8          1           0        2.377851   -2.525742   -1.442582
      9          1           0        2.349461   -0.085215   -2.011007
     10          1           0        3.446694    0.879795    2.024597
     11          1           0        3.478663   -1.557584    2.606186
     12          7           0        2.879026    1.936964   -0.356198
     13          8           0        3.151119    2.733121    0.539758
     14          8           0        2.593300    2.242522   -1.511894
     15          6           0       -4.454360   -0.181098   -0.146488
     16          6           0       -4.927682    1.051817    0.624141
     17          6           0       -6.415522    1.340236    0.421809
     18          1           0       -4.659415   -0.038032   -1.216269
     19          1           0       -5.044152   -1.052132    0.171067
     20          1           0       -4.336236    1.919999    0.306228
     21          1           0       -4.721301    0.905880    1.692190
     22          1           0       -7.021373    0.492072    0.756717
     23          1           0       -6.634119    1.511954   -0.637120
     24          1           0       -6.732574    2.225663    0.981595
     25          6           0       -2.969093   -0.482365    0.045728
     26          6           0       -2.495773   -1.715281   -0.724902
     27          6           0       -1.007932   -2.003700   -0.522570
     28          1           0       -2.379302    0.388669   -0.271828
     29          1           0       -2.764038   -0.625431    1.115508
     30          1           0       -2.702152   -1.569343   -1.792950
     31          1           0       -3.087218   -2.583462   -0.406989
     32          1           0       -0.789335   -2.175416    0.536359
     33          1           0       -0.402081   -1.155535   -0.857476
     34          1           0       -0.690880   -2.889126   -1.082355
 ---------------------------------------------------------------------

 SCF Done:  E(RHF) =  -669.535104207     A.U. after   15 cycles
 E2 =    -0.2092139310D+01 EUMP2 =    -0.67162724351762D+03

 The electronic state is 1-A.
 Alpha  occ. eigenvalues --  -20.60778 -20.60772 -15.85831 -11.31193 -11.27734
 Alpha  occ. eigenvalues --  -11.27730 -11.27472 -11.26770 -11.26749 -11.21777
 Alpha  occ. eigenvalues --  -11.21557 -11.21460 -11.21383 -11.21369 -11.21022
 Alpha  occ. eigenvalues --   -1.59853  -1.39407  -1.19356  -1.08751  -1.08494
 Alpha  occ. eigenvalues --   -1.04763  -1.03619  -0.96083  -0.95588  -0.87111
 Alpha  occ. eigenvalues --   -0.86150  -0.82421  -0.79689  -0.78293  -0.77469
 Alpha  occ. eigenvalues --   -0.72048  -0.71177  -0.70458  -0.65127  -0.65005
 Alpha  occ. eigenvalues --   -0.64761  -0.62110  -0.61019  -0.59468  -0.57697
 Alpha  occ. eigenvalues --   -0.55387  -0.55250  -0.53328  -0.52900  -0.52691
 Alpha  occ. eigenvalues --   -0.52327  -0.50015  -0.48807  -0.48804  -0.47990
 Alpha  occ. eigenvalues --   -0.46712  -0.45840  -0.45751  -0.44813  -0.43884
 Alpha  occ. eigenvalues --   -0.37317  -0.36279
 Alpha virt. eigenvalues --    0.05046   0.11223   0.16535   0.21117   0.22842
 Alpha virt. eigenvalues --    0.24178   0.26555   0.26735   0.27385   0.28218
 Alpha virt. eigenvalues --    0.28467   0.30077   0.31337   0.31778   0.31975

 Mulliken charges:
               1
     1  C   -0.171418
     2  C   -0.210392
     3  C   -0.174170
     4  C    0.159154
     5  C   -0.171365
     6  C   -0.218327
     7  H    0.225643
     8  H    0.224306
     9  H    0.275337
    10  H    0.275446
    11  H    0.223342
    12  N    0.488065
    13  O   -0.460246
    14  O   -0.460849
    15  C   -0.298342
    16  C   -0.300138
    17  C   -0.475811
    18  H    0.150229
    19  H    0.148518
    20  H    0.154607
    21  H    0.151492
    22  H    0.154304
    23  H    0.155566
    24  H    0.160980
    25  C   -0.298938
    26  C   -0.300429
    27  C   -0.475763
    28  H    0.153054
    29  H    0.148898
    30  H    0.152139
    31  H    0.150748
    32  H    0.154527
    33  H    0.159011
    34  H    0.150824
 Sum of Mulliken charges =  -0.00000

 Dipole moment (field-independent basis, Debye):
    X=              0.0926    Y=             -5.0334    Z=              1.2167  Tot=              5.1791
 Quadrupole moment (field-independent basis, Debye-Ang):
   XX=            -95.8964   YY=           -100.1335   ZZ=            -89.8388
   XY=            -14.3285   XZ=              4.6732   YZ=              1.3471

 Normal termination of Gaussian 16 at Thu May  6 07:57:00 2021.
