 Gaussian 16, Revision A.03,
 Gaussian 16:  EM64L-G16RevA.03 25-Dec-2016

 -------------
 #p 6-31g* mp2
 -------------

 ------------------------------------------------------
 Input file generated by CHIRIPA (05-May-2021 14:57:23)
 ------------------------------------------------------
 Symbolic Z-matrix:
 Charge =  0 Multiplicity = 1

                         Standard orientation:
 ---------------------------------------------------------------------
 Center     Atomic      Atomic             Coordinates (Angstroms)
 Number     Number       Type             X           Y           Z
 ---------------------------------------------------------------------
      1          6           0       -2.575840    2.133192   -0.906307
      2          6           0       -1.957361    0.951290   -1.327155
      3          6           0       -2.417986   -0.289950   -0.878048
      4          6           0       -3.504270   -0.312493   -0.004682
      5          6           0       -4.141606    0.847589    0.432698
      6          6           0       -3.664069    2.077668   -0.029270
      7          1           0       -2.211447    3.093082   -1.260180
      8          1           0       -1.112038    0.991380   -2.008233
      9          1           0       -1.957826   -1.220359   -1.187903
     10          1           0       -4.982264    0.775682    1.112066
     11          1           0       -4.146342    2.993932    0.299238
     12          7           0       -4.000864   -1.620630    0.477575
     13          8           0       -4.959571   -1.613523    1.246644
     14          8           0       -3.421984   -2.628286    0.077368
     15          6           0        2.244020    2.273449    0.573969
     16          6           0        3.213138    1.787760    1.457960
     17          6           0        3.872437    0.582936    1.196672
     18          6           0        3.536348   -0.113524    0.036811
     19          6           0        2.575347    0.344250   -0.863304
     20          6           0        1.928774    1.551417   -0.581804
     21          1           0        1.736804    3.210294    0.784793
     22          1           0        3.459998    2.346380    2.356318
     23          1           0        4.626714    0.183878    1.863934
     24          1           0        2.350706   -0.234944   -1.750709
     25          1           0        1.176566    1.926193   -1.270114
     26          7           0        4.227583   -1.390257   -0.250501
     27          8           0        3.913387   -1.984983   -1.279198
     28          8           0        5.070480   -1.772059    0.558441
 ---------------------------------------------------------------------

 SCF Done:  E(RHF) =  -868.336112221     A.U. after   16 cycles
 E2 =    -0.2600250623D+01 EUMP2 =    -0.87093636284378D+03

 The electronic state is 1-A.
 Alpha  occ. eigenvalues --  -20.61101 -20.61090 -20.61085 -20.61077 -15.86159
 Alpha  occ. eigenvalues --  -15.86144 -11.31700 -11.31645 -11.28307 -11.28298
 Alpha  occ. eigenvalues --  -11.28287 -11.28197 -11.28162 -11.28031 -11.27459
 Alpha  occ. eigenvalues --  -11.27394 -11.27352 -11.27235  -1.60171  -1.60155
 Alpha  occ. eigenvalues --   -1.39718  -1.39706  -1.19912  -1.19839  -1.09295
 Alpha  occ. eigenvalues --   -1.09209  -1.05358  -1.05269  -0.96087  -0.96021
 Alpha  occ. eigenvalues --   -0.86790  -0.86639  -0.82935  -0.82848  -0.77967
 Alpha  occ. eigenvalues --   -0.77841  -0.72375  -0.72360  -0.71496  -0.71479
 Alpha  occ. eigenvalues --   -0.71050  -0.70956  -0.65619  -0.65560  -0.65499
 Alpha  occ. eigenvalues --   -0.65138  -0.62816  -0.62500  -0.55902  -0.55773
 Alpha  occ. eigenvalues --   -0.53738  -0.53562  -0.53540  -0.53237  -0.49156
 Alpha  occ. eigenvalues --   -0.49124  -0.49116  -0.49107  -0.45084  -0.45082
 Alpha  occ. eigenvalues --   -0.37980  -0.37781  -0.37067  -0.36722
 Alpha virt. eigenvalues --    0.04589   0.04711   0.10383   0.11012   0.15930
 Alpha virt. eigenvalues --    0.16236   0.18548   0.21966   0.24828   0.26950
 Alpha virt. eigenvalues --    0.28163   0.28678   0.29814   0.31153   0.31986

 Mulliken charges:
               1
     1  C   -0.173035
     2  C   -0.217971
     3  C   -0.169014
     4  C    0.159027
     5  C   -0.169919
     6  C   -0.218419
     7  H    0.221598
     8  H    0.215991
     9  H    0.279304
    10  H    0.277534
    11  H    0.224299
    12  N    0.487864
    13  O   -0.459322
    14  O   -0.457173
    15  C   -0.169763
    16  C   -0.217956
    17  C   -0.169479
    18  C    0.159733
    19  C   -0.171560
    20  C   -0.215320
    21  H    0.224144
    22  H    0.225278
    23  H    0.277895
    24  H    0.273153
    25  H    0.212843
    26  N    0.488241
    27  O   -0.459858
    28  O   -0.458115
 Sum of Mulliken charges =  -0.00000

 Dipole moment (field-independent basis, Debye):
    X=             -0.6927    Y=              8.9442    Z=             -0.4947  Tot=              8.9846
 Quadrupole moment (field-independent basis, Debye-Ang):
   XX=           -130.2416   YY=           -108.8243   ZZ=           -100.6351
   XY=             -2.0309   XZ=             10.0507   YZ=              2.7892

 Normal termination of Gaussian 16 at Wed May  5 21:03:47 2021.
