 Gaussian 16, Revision A.03,
 Gaussian 16:  EM64L-G16RevA.03 25-Dec-2016

 -------------
 #p 6-31g* mp2
 -------------

 ------------------------------------------------------
 Input file generated by CHIRIPA (05-May-2021 14:53:13)
 ------------------------------------------------------
 Symbolic Z-matrix:
 Charge =  0 Multiplicity = 1

                         Standard orientation:
 ---------------------------------------------------------------------
 Center     Atomic      Atomic             Coordinates (Angstroms)
 Number     Number       Type             X           Y           Z
 ---------------------------------------------------------------------
      1          6           0       -3.217476    1.043249    0.173165
      2          6           0       -2.568804    1.869826   -0.937682
      3          6           0       -1.833852    3.100776   -0.406269
      4          1           0       -3.918806    1.677981    0.731911
      5          1           0       -2.443223    0.729429    0.886920
      6          1           0       -3.343839    2.180828   -1.649872
      7          1           0       -1.869078    1.233001   -1.493969
      8          1           0       -1.040665    2.805839    0.288330
      9          1           0       -2.523805    3.759051    0.131541
     10          1           0       -1.377688    3.677158   -1.217169
     11          6           0       -3.956009   -0.190660   -0.342360
     12          6           0       -4.604680   -1.017236    0.768488
     13          6           0       -5.339633   -2.248187    0.237075
     14          1           0       -4.730261    0.123160   -1.056114
     15          1           0       -3.254678   -0.825391   -0.901105
     16          1           0       -5.304406   -0.380412    1.324775
     17          1           0       -3.829645   -1.328239    1.480677
     18          1           0       -4.649680   -2.906461   -0.300736
     19          1           0       -6.132820   -1.953249   -0.457524
     20          1           0       -5.795796   -2.824569    1.047975
     21          6           0        0.299351   -0.652345    0.063969
     22          6           0        0.894653    0.206604    0.993669
     23          6           0        2.280431    0.391159    1.004052
     24          6           0        3.044103   -0.302174    0.066297
     25          6           0        2.480533   -1.164834   -0.872584
     26          6           0        1.092793   -1.334121   -0.864553
     27          1           0       -0.777917   -0.789781    0.063054
     28          1           0        0.280939    0.737381    1.715940
     29          1           0        2.767362    1.050070    1.712679
     30          1           0        3.118483   -1.680235   -1.580257
     31          1           0        0.633206   -2.001828   -1.587735
     32          7           0        4.512203   -0.114876    0.067542
     33          8           0        5.162905   -0.737273   -0.769025
     34          8           0        4.984399    0.650780    0.905062
 ---------------------------------------------------------------------

 SCF Done:  E(RHF) =  -669.534891957     A.U. after   15 cycles
 E2 =    -0.2093499493D+01 EUMP2 =    -0.67162839145006D+03

 The electronic state is 1-A.
 Alpha  occ. eigenvalues --  -20.60771 -20.60766 -15.85826 -11.31204 -11.27783
 Alpha  occ. eigenvalues --  -11.27778 -11.27484 -11.26795 -11.26783 -11.22648
 Alpha  occ. eigenvalues --  -11.22624 -11.22559 -11.22529 -11.21929 -11.21858
 Alpha  occ. eigenvalues --   -1.59847  -1.39400  -1.19383  -1.09565  -1.08766
 Alpha  occ. eigenvalues --   -1.04791  -1.04491  -0.96953  -0.95606  -0.87957
 Alpha  occ. eigenvalues --   -0.86188  -0.82441  -0.80557  -0.79375  -0.77483
 Alpha  occ. eigenvalues --   -0.72044  -0.71170  -0.70594  -0.66226  -0.65030
 Alpha  occ. eigenvalues --   -0.64752  -0.62179  -0.61844  -0.60302  -0.58554
 Alpha  occ. eigenvalues --   -0.56389  -0.55139  -0.53571  -0.53369  -0.53087
 Alpha  occ. eigenvalues --   -0.52882  -0.50898  -0.48866  -0.48799  -0.48797
 Alpha  occ. eigenvalues --   -0.47608  -0.46881  -0.46863  -0.44802  -0.44795
 Alpha  occ. eigenvalues --   -0.37337  -0.36385
 Alpha virt. eigenvalues --    0.05030   0.11145   0.16415   0.18387   0.22262
 Alpha virt. eigenvalues --    0.23706   0.24797   0.25481   0.26553   0.28246
 Alpha virt. eigenvalues --    0.29555   0.30815   0.31133   0.31299   0.31825

 Mulliken charges:
               1
     1  C   -0.303838
     2  C   -0.301533
     3  C   -0.476491
     4  H    0.157077
     5  H    0.138318
     6  H    0.156430
     7  H    0.151525
     8  H    0.152099
     9  H    0.156881
    10  H    0.165675
    11  C   -0.301322
    12  C   -0.300352
    13  C   -0.475882
    14  H    0.156483
    15  H    0.142112
    16  H    0.156152
    17  H    0.148702
    18  H    0.153902
    19  H    0.157925
    20  H    0.163764
    21  C   -0.175024
    22  C   -0.222287
    23  C   -0.170797
    24  C    0.158250
    25  C   -0.170158
    26  C   -0.221406
    27  H    0.236761
    28  H    0.224533
    29  H    0.275892
    30  H    0.275738
    31  H    0.223493
    32  N    0.488026
    33  O   -0.460360
    34  O   -0.460289
 Sum of Mulliken charges =  -0.00000

 Dipole moment (field-independent basis, Debye):
    X=             -5.3715    Y=             -0.5897    Z=             -0.0556  Tot=              5.4040
 Quadrupole moment (field-independent basis, Debye-Ang):
   XX=           -125.2892   YY=            -93.0224   ZZ=            -92.1775
   XY=             -1.8655   XZ=             -0.6922   YZ=              2.4080

 Normal termination of Gaussian 16 at Thu May  6 18:40:59 2021.
