 Gaussian 16, Revision A.03,
 Gaussian 16:  EM64L-G16RevA.03 25-Dec-2016

 -------------
 #p 6-31g* mp2
 -------------

 ------------------------------------------------------
 Input file generated by CHIRIPA (05-May-2021 14:55:18)
 ------------------------------------------------------
 Symbolic Z-matrix:
 Charge =  0 Multiplicity = 1

                         Standard orientation:
 ---------------------------------------------------------------------
 Center     Atomic      Atomic             Coordinates (Angstroms)
 Number     Number       Type             X           Y           Z
 ---------------------------------------------------------------------
      1          6           0       -4.265502    1.541820    0.778765
      2          6           0       -2.906821    1.721787    0.499267
      3          6           0       -2.122241    0.647835    0.068443
      4          6           0       -2.731654   -0.597952   -0.072690
      5          6           0       -4.082769   -0.809040    0.197904
      6          6           0       -4.848112    0.279207    0.627458
      7          1           0       -4.867511    2.381644    1.112946
      8          1           0       -2.451681    2.701222    0.615884
      9          1           0       -1.068126    0.759117   -0.154886
     10          1           0       -4.508267   -1.797265    0.072280
     11          1           0       -5.903044    0.136502    0.843791
     12          7           0       -1.911237   -1.742464   -0.528112
     13          8           0       -2.471946   -2.829979   -0.644536
     14          8           0       -0.723020   -1.530346   -0.760024
     15          6           0        3.447777    1.107596   -0.442997
     16          6           0        2.057494    1.637981   -0.091165
     17          6           0        1.627782    2.805465   -0.980054
     18          1           0        4.177537    1.924228   -0.356354
     19          1           0        3.456370    0.791056   -1.495197
     20          1           0        2.051133    1.952141    0.960443
     21          1           0        1.330988    0.819946   -0.178470
     22          1           0        1.605931    2.501365   -2.031551
     23          1           0        2.330168    3.639994   -0.886167
     24          1           0        0.631076    3.169040   -0.711258
     25          6           0        3.891407   -0.059728    0.436932
     26          6           0        5.281692   -0.590114    0.085100
     27          6           0        5.711403   -1.757599    0.973989
     28          1           0        3.882813    0.256811    1.489132
     29          1           0        3.161647   -0.876361    0.350290
     30          1           0        6.008197    0.227922    0.172405
     31          1           0        5.288051   -0.904274   -0.966508
     32          1           0        5.009015   -2.592127    0.880102
     33          1           0        5.733252   -1.453498    2.025486
     34          1           0        6.708108   -2.121173    0.705192
 ---------------------------------------------------------------------

 SCF Done:  E(RHF) =  -669.535957825     A.U. after   15 cycles
 E2 =    -0.2091769697D+01 EUMP2 =    -0.67162772752297D+03

 The electronic state is 1-A.
 Alpha  occ. eigenvalues --  -20.60850 -20.60844 -15.85893 -11.31194 -11.27770
 Alpha  occ. eigenvalues --  -11.27731 -11.27509 -11.26776 -11.26760 -11.21627
 Alpha  occ. eigenvalues --  -11.21370 -11.21219 -11.21186 -11.20957 -11.20668
 Alpha  occ. eigenvalues --   -1.59917  -1.39473  -1.19369  -1.08778  -1.08201
 Alpha  occ. eigenvalues --   -1.04765  -1.03391  -0.95841  -0.95619  -0.86853
 Alpha  occ. eigenvalues --   -0.86169  -0.82455  -0.79472  -0.77990  -0.77495
 Alpha  occ. eigenvalues --   -0.72117  -0.71233  -0.70488  -0.65029  -0.64896
 Alpha  occ. eigenvalues --   -0.64697  -0.62160  -0.60746  -0.59249  -0.57451
 Alpha  occ. eigenvalues --   -0.55281  -0.55087  -0.53098  -0.52860  -0.52581
 Alpha  occ. eigenvalues --   -0.52268  -0.49753  -0.48882  -0.48863  -0.47771
 Alpha  occ. eigenvalues --   -0.46450  -0.45527  -0.45394  -0.44885  -0.43616
 Alpha  occ. eigenvalues --   -0.37354  -0.36363
 Alpha virt. eigenvalues --    0.05020   0.11284   0.16518   0.19800   0.23228
 Alpha virt. eigenvalues --    0.23975   0.26287   0.26522   0.27399   0.28190
 Alpha virt. eigenvalues --    0.29255   0.30013   0.31540   0.31748   0.32756

 Mulliken charges:
               1
     1  C   -0.170172
     2  C   -0.223698
     3  C   -0.176944
     4  C    0.155407
     5  C   -0.169620
     6  C   -0.219276
     7  H    0.225711
     8  H    0.224297
     9  H    0.291739
    10  H    0.275519
    11  H    0.223452
    12  N    0.488358
    13  O   -0.459556
    14  O   -0.465052
    15  C   -0.296085
    16  C   -0.315280
    17  C   -0.475728
    18  H    0.147568
    19  H    0.153293
    20  H    0.149307
    21  H    0.167042
    22  H    0.160591
    23  H    0.157389
    24  H    0.146761
    25  C   -0.301818
    26  C   -0.299698
    27  C   -0.476180
    28  H    0.146624
    29  H    0.161566
    30  H    0.149396
    31  H    0.153504
    32  H    0.158923
    33  H    0.153548
    34  H    0.159112
 Sum of Mulliken charges =  -0.00000

 Dipole moment (field-independent basis, Debye):
    X=             -2.8597    Y=              3.8910    Z=              1.5561  Tot=              5.0734
 Quadrupole moment (field-independent basis, Debye-Ang):
   XX=            -75.9160   YY=            -98.8118   ZZ=            -95.7364
   XY=             -6.2333   XZ=             -4.7513   YZ=             -0.5054

 Normal termination of Gaussian 16 at Thu May  6 04:27:55 2021.
