 Gaussian 16, Revision A.03,
 Gaussian 16:  EM64L-G16RevA.03 25-Dec-2016

 -------------
 #p 6-31g* mp2
 -------------

 ------------------------------------------------------
 Input file generated by CHIRIPA (05-May-2021 14:53:14)
 ------------------------------------------------------
 Symbolic Z-matrix:
 Charge =  0 Multiplicity = 1

                         Standard orientation:
 ---------------------------------------------------------------------
 Center     Atomic      Atomic             Coordinates (Angstroms)
 Number     Number       Type             X           Y           Z
 ---------------------------------------------------------------------
      1          6           0        2.971163   -0.546678    0.297055
      2          6           0        2.114072   -0.429442    1.557863
      3          6           0        0.881039   -1.332788    1.520572
      4          1           0        2.358253   -0.296901   -0.579813
      5          1           0        3.285094   -1.592172    0.171425
      6          1           0        1.802998    0.615776    1.681833
      7          1           0        2.729145   -0.679341    2.431849
      8          1           0        1.175436   -2.382563    1.421058
      9          1           0        0.244027   -1.080088    0.666780
     10          1           0        0.282659   -1.233140    2.431544
     11          6           0        4.207499    0.350374    0.319398
     12          6           0        5.064590    0.233138   -0.941410
     13          6           0        6.297622    1.136484   -0.904118
     14          1           0        3.893567    1.395868    0.445028
     15          1           0        4.820409    0.100597    1.196266
     16          1           0        4.449517    0.483037   -1.815396
     17          1           0        5.375664   -0.812080   -1.065380
     18          1           0        6.934634    0.883783   -0.050327
     19          1           0        6.003225    2.186259   -0.804604
     20          1           0        6.896003    1.036835   -1.815091
     21          6           0       -3.342762    2.436108    0.472600
     22          6           0       -3.130080    1.444752    1.436188
     23          6           0       -2.831024    0.134092    1.052412
     24          6           0       -2.752095   -0.151420   -0.309771
     25          6           0       -2.958786    0.814284   -1.293634
     26          6           0       -3.256588    2.118270   -0.886839
     27          1           0       -3.574588    3.451668    0.779668
     28          1           0       -3.196363    1.688707    2.492662
     29          1           0       -2.661777   -0.652802    1.777375
     30          1           0       -2.885960    0.540732   -2.339236
     31          1           0       -3.421278    2.886135   -1.637376
     32          7           0       -2.436162   -1.535423   -0.728243
     33          8           0       -2.372325   -1.761323   -1.934697
     34          8           0       -2.258353   -2.368101    0.158138
 ---------------------------------------------------------------------

 SCF Done:  E(RHF) =  -669.535285005     A.U. after   15 cycles
 E2 =    -0.2092202591D+01 EUMP2 =    -0.67162748759645D+03

 The electronic state is 1-A.
 Alpha  occ. eigenvalues --  -20.60836 -20.60811 -15.85848 -11.31212 -11.27794
 Alpha  occ. eigenvalues --  -11.27776 -11.27536 -11.26801 -11.26787 -11.21414
 Alpha  occ. eigenvalues --  -11.21290 -11.21186 -11.21065 -11.20945 -11.20570
 Alpha  occ. eigenvalues --   -1.59891  -1.39443  -1.19393  -1.08791  -1.08179
 Alpha  occ. eigenvalues --   -1.04792  -1.03263  -0.95711  -0.95612  -0.86713
 Alpha  occ. eigenvalues --   -0.86186  -0.82455  -0.79327  -0.77989  -0.77494
 Alpha  occ. eigenvalues --   -0.72078  -0.71230  -0.70499  -0.65046  -0.64823
 Alpha  occ. eigenvalues --   -0.64785  -0.62142  -0.60663  -0.59086  -0.57315
 Alpha  occ. eigenvalues --   -0.55302  -0.54990  -0.53121  -0.52894  -0.52387
 Alpha  occ. eigenvalues --   -0.52112  -0.49648  -0.48840  -0.48832  -0.47649
 Alpha  occ. eigenvalues --   -0.46390  -0.45564  -0.45464  -0.44701  -0.43516
 Alpha  occ. eigenvalues --   -0.37371  -0.36385
 Alpha virt. eigenvalues --    0.05008   0.11225   0.16489   0.21261   0.23077
 Alpha virt. eigenvalues --    0.24398   0.26790   0.26869   0.27695   0.27768
 Alpha virt. eigenvalues --    0.28650   0.30694   0.31351   0.31689   0.32071

 Mulliken charges:
               1
     1  C   -0.298049
     2  C   -0.301403
     3  C   -0.468575
     4  H    0.150273
     5  H    0.152079
     6  H    0.146844
     7  H    0.150081
     8  H    0.162215
     9  H    0.154008
    10  H    0.151573
    11  C   -0.297804
    12  C   -0.299524
    13  C   -0.475495
    14  H    0.147089
    15  H    0.149010
    16  H    0.151995
    17  H    0.153129
    18  H    0.154893
    19  H    0.153759
    20  H    0.160084
    21  C   -0.170597
    22  C   -0.219072
    23  C   -0.169147
    24  C    0.155119
    25  C   -0.171331
    26  C   -0.218826
    27  H    0.225710
    28  H    0.223598
    29  H    0.277025
    30  H    0.275634
    31  H    0.223466
    32  N    0.488257
    33  O   -0.459775
    34  O   -0.456245
 Sum of Mulliken charges =  -0.00000

 Dipole moment (field-independent basis, Debye):
    X=             -1.2035    Y=              4.7663    Z=              1.4377  Tot=              5.1219
 Quadrupole moment (field-independent basis, Debye-Ang):
   XX=            -90.2576   YY=            -96.0014   ZZ=            -91.1092
   XY=            -14.7193   XZ=             -3.2614   YZ=             -3.5851

 Normal termination of Gaussian 16 at Thu May  6 13:47:20 2021.
