 Gaussian 16, Revision A.03,
 Gaussian 16:  EM64L-G16RevA.03 25-Dec-2016

 -------------
 #p 6-31g* mp2
 -------------

 ------------------------------------------------------
 Input file generated by CHIRIPA (05-May-2021 14:57:26)
 ------------------------------------------------------
 Symbolic Z-matrix:
 Charge =  0 Multiplicity = 1

                         Standard orientation:
 ---------------------------------------------------------------------
 Center     Atomic      Atomic             Coordinates (Angstroms)
 Number     Number       Type             X           Y           Z
 ---------------------------------------------------------------------
      1          6           0       -2.561872    2.439806    0.076044
      2          6           0       -2.651289    1.698029    1.258537
      3          6           0       -3.074374    0.365822    1.230715
      4          6           0       -3.401678   -0.195498   -0.002607
      5          6           0       -3.322888    0.517500   -1.197896
      6          6           0       -2.897365    1.848217   -1.146244
      7          1           0       -2.232262    3.474118    0.106913
      8          1           0       -2.391384    2.154866    2.209218
      9          1           0       -3.152686   -0.231427    2.131036
     10          1           0       -3.588755    0.034721   -2.130451
     11          1           0       -2.828875    2.421882   -2.066170
     12          7           0       -3.850870   -1.605057   -0.044675
     13          8           0       -4.133501   -2.076465   -1.144007
     14          8           0       -3.911809   -2.211771    1.022481
     15          6           0        0.961931    0.836816    0.073661
     16          6           0        1.201047   -0.540796    0.112785
     17          6           0        2.507720   -1.036111    0.070175
     18          6           0        3.556355   -0.121274   -0.011867
     19          6           0        3.350438    1.256853   -0.052550
     20          6           0        2.035496    1.729670   -0.008737
     21          1           0       -0.056337    1.212849    0.107229
     22          1           0        0.369242   -1.236534    0.176770
     23          1           0        2.721357   -2.097690    0.098959
     24          1           0        4.200075    1.925777   -0.116386
     25          1           0        1.852785    2.800056   -0.039278
     26          7           0        4.944048   -0.633732   -0.057613
     27          8           0        5.850629    0.193027   -0.129847
     28          8           0        5.098866   -1.852453   -0.020368
 ---------------------------------------------------------------------

 SCF Done:  E(RHF) =  -868.337098558     A.U. after   16 cycles
 E2 =    -0.2602144971D+01 EUMP2 =    -0.87093924352978D+03

 The electronic state is 1-A.
 Alpha  occ. eigenvalues --  -20.61846 -20.61837 -20.60787 -20.60777 -15.86904
 Alpha  occ. eigenvalues --  -15.85841 -11.32528 -11.31208 -11.29073 -11.29044
 Alpha  occ. eigenvalues --  -11.28831 -11.28126 -11.28107 -11.27835 -11.27762
 Alpha  occ. eigenvalues --  -11.27366 -11.26849 -11.26725  -1.60921  -1.59862
 Alpha  occ. eigenvalues --   -1.40463  -1.39415  -1.20728  -1.19387  -1.10080
 Alpha  occ. eigenvalues --   -1.08767  -1.06106  -1.04800  -0.96850  -0.95603
 Alpha  occ. eigenvalues --   -0.87481  -0.86194  -0.83639  -0.82445  -0.78648
 Alpha  occ. eigenvalues --   -0.77500  -0.73102  -0.72266  -0.72056  -0.71762
 Alpha  occ. eigenvalues --   -0.71187  -0.70510  -0.66323  -0.66047  -0.65032
 Alpha  occ. eigenvalues --   -0.64825  -0.63395  -0.62154  -0.56585  -0.55852
 Alpha  occ. eigenvalues --   -0.54141  -0.53877  -0.53131  -0.52886  -0.49886
 Alpha  occ. eigenvalues --   -0.49850  -0.48818  -0.48811  -0.45808  -0.44820
 Alpha  occ. eigenvalues --   -0.38726  -0.37849  -0.37244  -0.36422
 Alpha virt. eigenvalues --    0.03815   0.05041   0.09883   0.11231   0.15210
 Alpha virt. eigenvalues --    0.16549   0.20162   0.21602   0.26237   0.26693
 Alpha virt. eigenvalues --    0.27413   0.28757   0.29936   0.31382   0.31672

 Mulliken charges:
               1
     1  C   -0.187839
     2  C   -0.223151
     3  C   -0.172955
     4  C    0.156571
     5  C   -0.171088
     6  C   -0.215903
     7  H    0.229332
     8  H    0.229680
     9  H    0.280485
    10  H    0.280745
    11  H    0.229395
    12  N    0.486979
    13  O   -0.455930
    14  O   -0.457189
    15  C   -0.179016
    16  C   -0.224786
    17  C   -0.170062
    18  C    0.157487
    19  C   -0.170352
    20  C   -0.224463
    21  H    0.240198
    22  H    0.225812
    23  H    0.277361
    24  H    0.274568
    25  H    0.216900
    26  N    0.487982
    27  O   -0.461401
    28  O   -0.459360
 Sum of Mulliken charges =  -0.00000

 Dipole moment (field-independent basis, Debye):
    X=             -3.7200    Y=              6.6570    Z=              0.2772  Tot=              7.6309
 Quadrupole moment (field-independent basis, Debye-Ang):
   XX=           -150.3045   YY=           -103.3346   ZZ=           -100.4092
   XY=             -8.6743   XZ=              0.7226   YZ=             -0.7346

 Normal termination of Gaussian 16 at Thu May  6 16:26:34 2021.
