 Gaussian 16, Revision A.03,
 Gaussian 16:  EM64L-G16RevA.03 25-Dec-2016

 -------------
 #p 6-31g* mp2
 -------------

 ------------------------------------------------------
 Input file generated by CHIRIPA (05-May-2021 14:57:25)
 ------------------------------------------------------
 Symbolic Z-matrix:
 Charge =  0 Multiplicity = 1

                         Standard orientation:
 ---------------------------------------------------------------------
 Center     Atomic      Atomic             Coordinates (Angstroms)
 Number     Number       Type             X           Y           Z
 ---------------------------------------------------------------------
      1          6           0        1.466691   -0.056996    0.856368
      2          6           0        1.994720   -1.213764    0.273621
      3          6           0        3.320548   -1.244189   -0.168873
      4          6           0        4.093522   -0.094714   -0.012324
      5          6           0        3.596276    1.073000    0.564287
      6          6           0        2.267743    1.080689    0.999588
      7          1           0        0.435705   -0.042192    1.197314
      8          1           0        1.374937   -2.098782    0.161113
      9          1           0        3.754779   -2.126312   -0.623540
     10          1           0        4.238600    1.939664    0.662938
     11          1           0        1.860336    1.980456    1.451787
     12          7           0        5.498550   -0.114889   -0.476965
     13          8           0        6.158862    0.910941   -0.327644
     14          8           0        5.912893   -1.156150   -0.981674
     15          6           0       -3.225309    2.526570   -0.238893
     16          6           0       -2.393959    1.632957    0.444359
     17          6           0       -2.736729    0.281499    0.547414
     18          6           0       -3.923506   -0.144034   -0.047372
     19          6           0       -4.772666    0.721818   -0.734769
     20          6           0       -4.409921    2.068956   -0.825243
     21          1           0       -2.951279    3.574736   -0.314062
     22          1           0       -1.473372    1.985534    0.900705
     23          1           0       -2.111537   -0.431903    1.070493
     24          1           0       -5.683999    0.340726   -1.179356
     25          1           0       -5.057488    2.760684   -1.356481
     26          7           0       -4.296954   -1.572476    0.055069
     27          8           0       -5.347871   -1.922360   -0.477652
     28          8           0       -3.531675   -2.315155    0.666142
 ---------------------------------------------------------------------

 SCF Done:  E(RHF) =  -868.336471199     A.U. after   16 cycles
 E2 =    -0.2600256357D+01 EUMP2 =    -0.87093672755622D+03

 The electronic state is 1-A.
 Alpha  occ. eigenvalues --  -20.61571 -20.61545 -20.61040 -20.61029 -15.86619
 Alpha  occ. eigenvalues --  -15.86093 -11.32072 -11.31558 -11.28773 -11.28575
 Alpha  occ. eigenvalues --  -11.28360 -11.28164 -11.28082 -11.28020 -11.27774
 Alpha  occ. eigenvalues --  -11.27586 -11.27291 -11.27121  -1.60632  -1.60110
 Alpha  occ. eigenvalues --   -1.40185  -1.39660  -1.20244  -1.19749  -1.09608
 Alpha  occ. eigenvalues --   -1.09153  -1.05685  -1.05157  -0.96439  -0.95968
 Alpha  occ. eigenvalues --   -0.87066  -0.86566  -0.83297  -0.82782  -0.78340
 Alpha  occ. eigenvalues --   -0.77791  -0.72836  -0.72311  -0.71954  -0.71433
 Alpha  occ. eigenvalues --   -0.71408  -0.70892  -0.65904  -0.65709  -0.65407
 Alpha  occ. eigenvalues --   -0.65176  -0.63053  -0.62492  -0.56174  -0.55713
 Alpha  occ. eigenvalues --   -0.53964  -0.53794  -0.53481  -0.53257  -0.49601
 Alpha  occ. eigenvalues --   -0.49582  -0.49079  -0.49058  -0.45573  -0.45043
 Alpha  occ. eigenvalues --   -0.38187  -0.37787  -0.37253  -0.36744
 Alpha virt. eigenvalues --    0.04216   0.04740   0.10373   0.10886   0.15638
 Alpha virt. eigenvalues --    0.16206   0.17511   0.22202   0.24594   0.25078
 Alpha virt. eigenvalues --    0.27708   0.29306   0.30535   0.30680   0.33379

 Mulliken charges:
               1
     1  C   -0.171578
     2  C   -0.219765
     3  C   -0.170099
     4  C    0.159117
     5  C   -0.170241
     6  C   -0.220208
     7  H    0.219544
     8  H    0.230933
     9  H    0.278405
    10  H    0.276094
    11  H    0.217988
    12  N    0.487888
    13  O   -0.460130
    14  O   -0.458326
    15  C   -0.169925
    16  C   -0.215800
    17  C   -0.175665
    18  C    0.161148
    19  C   -0.169467
    20  C   -0.217771
    21  H    0.228382
    22  H    0.215689
    23  H    0.268846
    24  H    0.278549
    25  H    0.227159
    26  N    0.488584
    27  O   -0.456382
    28  O   -0.462967
 Sum of Mulliken charges =  -0.00000

 Dipole moment (field-independent basis, Debye):
    X=             -3.7539    Y=              5.0557    Z=              1.0812  Tot=              6.3891
 Quadrupole moment (field-independent basis, Debye-Ang):
   XX=           -151.1316   YY=           -101.8924   ZZ=           -104.5123
   XY=            -20.1226   XZ=             11.1798   YZ=              0.6290

 Normal termination of Gaussian 16 at Thu May  6 11:23:26 2021.
