 Gaussian 16, Revision A.03,
 Gaussian 16:  EM64L-G16RevA.03 25-Dec-2016

 -------------
 #p 6-31g* mp2
 -------------

 ------------------------------------------------------
 Input file generated by CHIRIPA (05-May-2021 14:51:13)
 ------------------------------------------------------
 Symbolic Z-matrix:
 Charge =  0 Multiplicity = 1

                         Standard orientation:
 ---------------------------------------------------------------------
 Center     Atomic      Atomic             Coordinates (Angstroms)
 Number     Number       Type             X           Y           Z
 ---------------------------------------------------------------------
      1          6           0       -4.418328   -0.193162   -0.253708
      2          6           0       -5.404070    0.720989    0.474733
      3          6           0       -6.844047    0.540612   -0.006645
      4          1           0       -4.473207    0.004927   -1.332918
      5          1           0       -4.725101   -1.238703   -0.111829
      6          1           0       -5.094742    1.764422    0.332676
      7          1           0       -5.346699    0.520835    1.552352
      8          1           0       -7.176367   -0.490670    0.150266
      9          1           0       -6.922980    0.759983   -1.076340
     10          1           0       -7.531882    1.203661    0.527311
     11          6           0       -2.974670   -0.024460    0.216527
     12          6           0       -1.988928   -0.938610   -0.511914
     13          6           0       -0.548951   -0.758234   -0.030536
     14          1           0       -2.667897    1.021081    0.074649
     15          1           0       -2.919790   -0.222548    1.295737
     16          1           0       -2.046299   -0.738456   -1.589533
     17          1           0       -2.298255   -1.982043   -0.369857
     18          1           0       -0.470018   -0.977604    1.039159
     19          1           0       -0.216630    0.273048   -0.187447
     20          1           0        0.138884   -1.421282   -0.564492
     21          6           0        3.427911   -0.548195   -0.263610
     22          6           0        3.879510   -1.777050    0.526300
     23          6           0        3.334080   -3.083810   -0.050481
     24          1           0        2.329961   -0.513574   -0.279540
     25          1           0        3.752527   -0.652741   -1.308162
     26          1           0        3.555340   -1.669574    1.569363
     27          1           0        4.976513   -1.808644    0.540514
     28          1           0        3.668536   -3.217851   -1.084295
     29          1           0        2.239288   -3.077991   -0.049602
     30          1           0        3.669209   -3.949395    0.529443
     31          6           0        3.965087    0.765816    0.300790
     32          6           0        3.513488    1.994671   -0.489120
     33          6           0        4.058918    3.301432    0.087661
     34          1           0        3.640471    0.870363    1.345342
     35          1           0        5.063037    0.731195    0.316721
     36          1           0        2.416485    2.026265   -0.503334
     37          1           0        3.837657    1.887196   -1.532183
     38          1           0        5.153709    3.295613    0.086782
     39          1           0        3.724461    3.435472    1.121476
     40          1           0        3.723789    4.167017   -0.492263
 ---------------------------------------------------------------------

 SCF Done:  E(RHF) =  -470.732725779     A.U. after   11 cycles
 E2 =    -0.1583369557D+01 EUMP2 =    -0.47231609533520D+03

 The electronic state is 1-A.
 Alpha  occ. eigenvalues --  -11.21675 -11.21634 -11.21554 -11.21507 -11.21457
 Alpha  occ. eigenvalues --  -11.21395 -11.21291 -11.21192 -11.21166 -11.21096
 Alpha  occ. eigenvalues --  -11.21035 -11.21018  -1.08488  -1.08333  -1.03600
 Alpha  occ. eigenvalues --   -1.03459  -0.96061  -0.95903  -0.87093  -0.86918
 Alpha  occ. eigenvalues --   -0.79701  -0.79506  -0.78311  -0.78121  -0.65120
 Alpha  occ. eigenvalues --   -0.64975  -0.60997  -0.60884  -0.59475  -0.59218
 Alpha  occ. eigenvalues --   -0.57660  -0.57518  -0.55382  -0.55162  -0.52827
 Alpha  occ. eigenvalues --   -0.52603  -0.52483  -0.52317  -0.50016  -0.49833
 Alpha  occ. eigenvalues --   -0.47998  -0.47820  -0.46708  -0.46552  -0.45897
 Alpha  occ. eigenvalues --   -0.45776  -0.45667  -0.45551  -0.43732  -0.43680
 Alpha virt. eigenvalues --    0.21357   0.22982   0.23429   0.24398   0.25702
 Alpha virt. eigenvalues --    0.26630   0.27025   0.27237   0.27843   0.29453
 Alpha virt. eigenvalues --    0.29717   0.31224   0.31831   0.31994   0.32280

 Mulliken charges:
               1
     1  C   -0.298366
     2  C   -0.299656
     3  C   -0.475738
     4  H    0.149820
     5  H    0.149677
     6  H    0.151988
     7  H    0.151971
     8  H    0.155247
     9  H    0.155258
    10  H    0.160367
    11  C   -0.298836
    12  C   -0.299705
    13  C   -0.482538
    14  H    0.149612
    15  H    0.149668
    16  H    0.152619
    17  H    0.152345
    18  H    0.155638
    19  H    0.156200
    20  H    0.165119
    21  C   -0.310487
    22  C   -0.298506
    23  C   -0.478974
    24  H    0.165612
    25  H    0.147933
    26  H    0.151472
    27  H    0.151357
    28  H    0.154824
    29  H    0.157371
    30  H    0.160035
    31  C   -0.297272
    32  C   -0.300557
    33  C   -0.475632
    34  H    0.149152
    35  H    0.149044
    36  H    0.151966
    37  H    0.151780
    38  H    0.155214
    39  H    0.155135
    40  H    0.159847
 Sum of Mulliken charges =  -0.00000

 Dipole moment (field-independent basis, Debye):
    X=             -0.0753    Y=             -0.0058    Z=             -0.0036  Tot=              0.0756
 Quadrupole moment (field-independent basis, Debye-Ang):
   XX=            -85.6123   YY=            -85.4061   ZZ=            -84.0750
   XY=             -0.2645   XZ=             -0.9397   YZ=             -0.7829

 Normal termination of Gaussian 16 at Thu May  6 03:57:47 2021.
