 Gaussian 16, Revision A.03,
 Gaussian 16:  EM64L-G16RevA.03 25-Dec-2016

 -------------
 #p 6-31g* mp2
 -------------

 ------------------------------------------------------
 Input file generated by CHIRIPA (05-May-2021 14:55:21)
 ------------------------------------------------------
 Symbolic Z-matrix:
 Charge =  0 Multiplicity = 1

                         Standard orientation:
 ---------------------------------------------------------------------
 Center     Atomic      Atomic             Coordinates (Angstroms)
 Number     Number       Type             X           Y           Z
 ---------------------------------------------------------------------
      1          6           0        4.300314    0.632828   -0.157200
      2          6           0        3.672604    0.146239   -1.308605
      3          6           0        2.474058   -0.567537   -1.216090
      4          6           0        1.928628   -0.777371    0.049519
      5          6           0        2.530042   -0.305296    1.215167
      6          6           0        3.728039    0.405907    1.098797
      7          1           0        5.231161    1.186307   -0.238334
      8          1           0        4.114753    0.320966   -2.285345
      9          1           0        1.966938   -0.955464   -2.091167
     10          1           0        2.065173   -0.495310    2.174964
     11          1           0        4.213308    0.782621    1.994702
     12          7           0        0.660072   -1.531652    0.160088
     13          8           0        0.199906   -1.703145    1.286798
     14          8           0        0.149964   -1.937082   -0.882051
     15          6           0       -2.791290    0.074183   -0.053152
     16          6           0       -4.235004   -0.429379   -0.063099
     17          6           0       -4.328692   -1.955266   -0.089310
     18          1           0       -2.269033   -0.311496   -0.939405
     19          1           0       -2.271484   -0.341091    0.821344
     20          1           0       -4.752323   -0.012170   -0.936559
     21          1           0       -4.753938   -0.042300    0.823182
     22          1           0       -3.837390   -2.386535    0.788887
     23          1           0       -3.835766   -2.356234   -0.980853
     24          1           0       -5.369556   -2.293522   -0.096057
     25          6           0       -2.681227    1.597642   -0.026966
     26          6           0       -1.237512    2.101204   -0.017019
     27          6           0       -1.143825    3.627091    0.009193
     28          1           0       -3.201033    2.012916   -0.901462
     29          1           0       -3.203483    1.983321    0.859287
     30          1           0       -0.718579    1.714125   -0.903300
     31          1           0       -0.720194    1.683995    0.856441
     32          1           0       -1.636751    4.028059    0.900735
     33          1           0       -1.635126    4.058361   -0.869005
     34          1           0       -0.102960    3.965347    0.015939
 ---------------------------------------------------------------------

 SCF Done:  E(RHF) =  -669.536496559     A.U. after   15 cycles
 E2 =    -0.2093592349D+01 EUMP2 =    -0.67163008890792D+03

 The electronic state is 1-A.
 Alpha  occ. eigenvalues --  -20.60998 -20.60992 -15.85984 -11.31303 -11.27856
 Alpha  occ. eigenvalues --  -11.27853 -11.27586 -11.26862 -11.26853 -11.21112
 Alpha  occ. eigenvalues --  -11.20765 -11.20518 -11.20390 -11.19852 -11.19682
 Alpha  occ. eigenvalues --   -1.60022  -1.39588  -1.19459  -1.08867  -1.07442
 Alpha  occ. eigenvalues --   -1.04856  -1.02619  -0.95716  -0.95042  -0.86258
 Alpha  occ. eigenvalues --   -0.86064  -0.82557  -0.78766  -0.77611  -0.77163
 Alpha  occ. eigenvalues --   -0.72230  -0.71290  -0.70572  -0.65122  -0.64861
 Alpha  occ. eigenvalues --   -0.64082  -0.62206  -0.60028  -0.58488  -0.56640
 Alpha  occ. eigenvalues --   -0.55362  -0.54325  -0.53183  -0.52950  -0.51830
 Alpha  occ. eigenvalues --   -0.51442  -0.49072  -0.49003  -0.48910  -0.47049
 Alpha  occ. eigenvalues --   -0.45827  -0.45367  -0.44609  -0.44128  -0.42821
 Alpha  occ. eigenvalues --   -0.37419  -0.36450
 Alpha virt. eigenvalues --    0.04871   0.11153   0.16342   0.21310   0.23729
 Alpha virt. eigenvalues --    0.25274   0.27185   0.27680   0.27740   0.28587
 Alpha virt. eigenvalues --    0.28891   0.31065   0.32142   0.32376   0.32457

 Mulliken charges:
               1
     1  C   -0.170558
     2  C   -0.218380
     3  C   -0.171382
     4  C    0.162091
     5  C   -0.171279
     6  C   -0.218386
     7  H    0.226023
     8  H    0.223829
     9  H    0.275481
    10  H    0.275518
    11  H    0.223856
    12  N    0.489904
    13  O   -0.459742
    14  O   -0.458236
    15  C   -0.312794
    16  C   -0.298974
    17  C   -0.474819
    18  H    0.161044
    19  H    0.167371
    20  H    0.145742
    21  H    0.146567
    22  H    0.161990
    23  H    0.160051
    24  H    0.152339
    25  C   -0.296393
    26  C   -0.301583
    27  C   -0.474493
    28  H    0.145574
    29  H    0.146448
    30  H    0.148559
    31  H    0.150151
    32  H    0.154805
    33  H    0.154557
    34  H    0.155117
 Sum of Mulliken charges =  -0.00000

 Dipole moment (field-independent basis, Debye):
    X=              4.7028    Y=              2.4014    Z=             -0.3679  Tot=              5.2932
 Quadrupole moment (field-independent basis, Debye-Ang):
   XX=            -79.1248   YY=           -101.2560   ZZ=            -88.7498
   XY=              1.8931   XZ=             -0.5177   YZ=              1.0362

 Normal termination of Gaussian 16 at Thu May  6 09:20:10 2021.
