 Gaussian 16, Revision A.03,
 Gaussian 16:  EM64L-G16RevA.03 25-Dec-2016

 -------------
 #p 6-31g* mp2
 -------------

 ------------------------------------------------------
 Input file generated by CHIRIPA (05-May-2021 14:57:26)
 ------------------------------------------------------
 Symbolic Z-matrix:
 Charge =  0 Multiplicity = 1

                         Standard orientation:
 ---------------------------------------------------------------------
 Center     Atomic      Atomic             Coordinates (Angstroms)
 Number     Number       Type             X           Y           Z
 ---------------------------------------------------------------------
      1          6           0       -1.429804   -0.711420    0.227126
      2          6           0       -2.383424   -1.599740    0.735082
      3          6           0       -3.747615   -1.311163    0.633816
      4          6           0       -4.124555   -0.119896    0.015683
      5          6           0       -3.198431    0.785336   -0.500205
      6          6           0       -1.839629    0.476189   -0.387812
      7          1           0       -0.372161   -0.943584    0.310114
      8          1           0       -2.068050   -2.522795    1.213156
      9          1           0       -4.507044   -1.981067    1.018412
     10          1           0       -3.543392    1.697664   -0.971457
     11          1           0       -1.101255    1.167935   -0.783204
     12          7           0       -5.565910    0.196496   -0.097413
     13          8           0       -5.872177    1.252605   -0.646477
     14          8           0       -6.362086   -0.617617    0.365148
     15          6           0        4.949611   -2.092356   -0.364905
     16          6           0        5.713115   -1.024666    0.118436
     17          6           0        5.134827    0.234357    0.305488
     18          6           0        3.784273    0.390955   -0.002363
     19          6           0        2.997226   -0.653269   -0.485524
     20          6           0        3.596489   -1.903584   -0.664814
     21          1           0        5.406987   -3.067014   -0.507197
     22          1           0        6.764191   -1.168358    0.352186
     23          1           0        5.702656    1.078172    0.678267
     24          1           0        1.951805   -0.479347   -0.709722
     25          1           0        3.001105   -2.730958   -1.040331
     26          7           0        3.160962    1.719218    0.191552
     27          8           0        1.969144    1.831276   -0.087107
     28          8           0        3.876030    2.623100    0.618529
 ---------------------------------------------------------------------

 SCF Done:  E(RHF) =  -868.338388884     A.U. after   16 cycles
 E2 =    -0.2599767205D+01 EUMP2 =    -0.87093815608917D+03

 The electronic state is 1-A.
 Alpha  occ. eigenvalues --  -20.61855 -20.61798 -20.60493 -20.60482 -15.86878
 Alpha  occ. eigenvalues --  -15.85538 -11.32174 -11.30873 -11.28823 -11.28650
 Alpha  occ. eigenvalues --  -11.28382 -11.27742 -11.27647 -11.27450 -11.27337
 Alpha  occ. eigenvalues --  -11.27210 -11.26529 -11.26274  -1.60885  -1.59565
 Alpha  occ. eigenvalues --   -1.40449  -1.39119  -1.20317  -1.19026  -1.09709
 Alpha  occ. eigenvalues --   -1.08444  -1.05719  -1.04402  -0.96569  -0.95291
 Alpha  occ. eigenvalues --   -0.87114  -0.85804  -0.83413  -0.82107  -0.78491
 Alpha  occ. eigenvalues --   -0.77141  -0.73105  -0.72196  -0.71758  -0.71439
 Alpha  occ. eigenvalues --   -0.70886  -0.70191  -0.65974  -0.65711  -0.64677
 Alpha  occ. eigenvalues --   -0.64372  -0.63081  -0.61725  -0.56192  -0.54998
 Alpha  occ. eigenvalues --   -0.54027  -0.53778  -0.52758  -0.52470  -0.49870
 Alpha  occ. eigenvalues --   -0.49819  -0.48516  -0.48511  -0.45866  -0.44531
 Alpha  occ. eigenvalues --   -0.38258  -0.37314  -0.37038  -0.35993
 Alpha virt. eigenvalues --    0.04038   0.05350   0.10293   0.11647   0.15592
 Alpha virt. eigenvalues --    0.16834   0.18879   0.21984   0.25229   0.26824
 Alpha virt. eigenvalues --    0.27864   0.29175   0.30649   0.31033   0.32181

 Mulliken charges:
               1
     1  C   -0.174319
     2  C   -0.218652
     3  C   -0.172166
     4  C    0.159031
     5  C   -0.172037
     6  C   -0.222320
     7  H    0.219103
     8  H    0.219882
     9  H    0.273960
    10  H    0.276890
    11  H    0.242144
    12  N    0.487946
    13  O   -0.459782
    14  O   -0.461894
    15  C   -0.170077
    16  C   -0.217640
    17  C   -0.169732
    18  C    0.160316
    19  C   -0.177359
    20  C   -0.219032
    21  H    0.228950
    22  H    0.227134
    23  H    0.278359
    24  H    0.271021
    25  H    0.224273
    26  N    0.491552
    27  O   -0.472059
    28  O   -0.453492
 Sum of Mulliken charges =  -0.00000

 Dipole moment (field-independent basis, Debye):
    X=              7.7018    Y=             -5.6464    Z=             -0.2930  Tot=              9.5543
 Quadrupole moment (field-independent basis, Debye-Ang):
   XX=           -125.1355   YY=           -104.3724   ZZ=           -104.6880
   XY=            -10.5427   XZ=             -2.9267   YZ=             -1.8533

 Normal termination of Gaussian 16 at Thu May  6 14:48:12 2021.
