 Gaussian 16, Revision A.03,
 Gaussian 16:  EM64L-G16RevA.03 25-Dec-2016

 -------------
 #p 6-31g* mp2
 -------------

 ------------------------------------------------------
 Input file generated by CHIRIPA (05-May-2021 14:51:11)
 ------------------------------------------------------
 Symbolic Z-matrix:
 Charge =  0 Multiplicity = 1

                         Standard orientation:
 ---------------------------------------------------------------------
 Center     Atomic      Atomic             Coordinates (Angstroms)
 Number     Number       Type             X           Y           Z
 ---------------------------------------------------------------------
      1          6           0       -3.743376    0.403277   -0.283547
      2          6           0       -5.108866    0.936730    0.151020
      3          6           0       -5.752362    1.840830   -0.900793
      4          1           0       -3.077320    1.250192   -0.498141
      5          1           0       -3.856971   -0.151453   -1.225230
      6          1           0       -4.992958    1.489114    1.092324
      7          1           0       -5.771690    0.088447    0.364788
      8          1           0       -5.896908    1.296933   -1.839879
      9          1           0       -5.113750    2.705558   -1.108210
     10          1           0       -6.727616    2.210992   -0.569553
     11          6           0       -3.087417   -0.502134    0.757450
     12          6           0       -1.721927   -1.035587    0.322883
     13          6           0       -1.078431   -1.939687    1.374696
     14          1           0       -2.973822    0.052596    1.699133
     15          1           0       -3.753473   -1.349049    0.972044
     16          1           0       -1.059103   -0.187304    0.109115
     17          1           0       -1.837835   -1.587971   -0.618421
     18          1           0       -1.717043   -2.804415    1.582113
     19          1           0       -0.933885   -1.395790    2.313782
     20          1           0       -0.103177   -2.309849    1.043456
     21          6           0        3.418253    0.813251   -0.237134
     22          6           0        4.675577    1.415068    0.391305
     23          6           0        4.666534    2.944006    0.383549
     24          1           0        3.322831    1.175547   -1.269887
     25          1           0        2.535019    1.178379    0.305062
     26          1           0        5.556261    1.047823   -0.151044
     27          1           0        4.768119    1.051146    1.422621
     28          1           0        3.805967    3.326996    0.941532
     29          1           0        4.598588    3.323654   -0.641074
     30          1           0        5.574523    3.353156    0.837435
     31          6           0        3.412541   -0.714394   -0.236769
     32          6           0        2.155216   -1.316212   -0.865208
     33          6           0        2.164259   -2.845150   -0.857452
     34          1           0        4.295774   -1.079522   -0.778965
     35          1           0        3.507961   -1.076690    0.795985
     36          1           0        2.062675   -0.952289   -1.896524
     37          1           0        1.274532   -0.948967   -0.322858
     38          1           0        2.232205   -3.224797    0.167172
     39          1           0        3.024826   -3.228139   -1.415435
     40          1           0        1.256271   -3.254299   -1.311338
 ---------------------------------------------------------------------

 SCF Done:  E(RHF) =  -470.732382326     A.U. after   11 cycles
 E2 =    -0.1583888935D+01 EUMP2 =    -0.47231627126095D+03

 The electronic state is 1-A.
 Alpha  occ. eigenvalues --  -11.21616 -11.21606 -11.21603 -11.21527 -11.21413
 Alpha  occ. eigenvalues --  -11.21399 -11.21353 -11.21336 -11.21089 -11.21077
 Alpha  occ. eigenvalues --  -11.21073 -11.21024  -1.08465  -1.08401  -1.03618
 Alpha  occ. eigenvalues --   -1.03459  -0.96065  -0.95912  -0.87036  -0.86967
 Alpha  occ. eigenvalues --   -0.79674  -0.79529  -0.78318  -0.78170  -0.65154
 Alpha  occ. eigenvalues --   -0.65018  -0.61175  -0.60893  -0.59518  -0.59132
 Alpha  occ. eigenvalues --   -0.57767  -0.57369  -0.55285  -0.55256  -0.52712
 Alpha  occ. eigenvalues --   -0.52608  -0.52413  -0.52365  -0.49937  -0.49924
 Alpha  occ. eigenvalues --   -0.47963  -0.47863  -0.46757  -0.46526  -0.45906
 Alpha  occ. eigenvalues --   -0.45748  -0.45743  -0.45505  -0.43788  -0.43774
 Alpha virt. eigenvalues --    0.21149   0.23136   0.23527   0.24925   0.25947
 Alpha virt. eigenvalues --    0.26724   0.26859   0.27451   0.27937   0.29158
 Alpha virt. eigenvalues --    0.30504   0.31107   0.31466   0.31690   0.32566

 Mulliken charges:
               1
     1  C   -0.298346
     2  C   -0.299660
     3  C   -0.475711
     4  H    0.149760
     5  H    0.149572
     6  H    0.151887
     7  H    0.151958
     8  H    0.155199
     9  H    0.155217
    10  H    0.160263
    11  C   -0.297895
    12  C   -0.301464
    13  C   -0.484766
    14  H    0.149413
    15  H    0.149771
    16  H    0.152629
    17  H    0.152371
    18  H    0.155627
    19  H    0.154270
    20  H    0.170168
    21  C   -0.298232
    22  C   -0.299637
    23  C   -0.475696
    24  H    0.149686
    25  H    0.148858
    26  H    0.152032
    27  H    0.151998
    28  H    0.155003
    29  H    0.155176
    30  H    0.160287
    31  C   -0.297476
    32  C   -0.310330
    33  C   -0.478556
    34  H    0.149391
    35  H    0.149381
    36  H    0.151949
    37  H    0.163672
    38  H    0.154824
    39  H    0.156420
    40  H    0.160987
 Sum of Mulliken charges =  -0.00000

 Dipole moment (field-independent basis, Debye):
    X=             -0.0047    Y=             -0.0081    Z=             -0.0108  Tot=              0.0143
 Quadrupole moment (field-independent basis, Debye-Ang):
   XX=            -84.8222   YY=            -85.7869   ZZ=            -84.2427
   XY=              0.6181   XZ=             -0.5921   YZ=              0.7355

 Normal termination of Gaussian 16 at Thu May  6 05:25:16 2021.
