 Gaussian 16, Revision A.03,
 Gaussian 16:  EM64L-G16RevA.03 25-Dec-2016

 -------------
 #p 6-31g* mp2
 -------------

 ------------------------------------------------------
 Input file generated by CHIRIPA (05-May-2021 14:51:10)
 ------------------------------------------------------
 Symbolic Z-matrix:
 Charge =  0 Multiplicity = 1

                         Standard orientation:
 ---------------------------------------------------------------------
 Center     Atomic      Atomic             Coordinates (Angstroms)
 Number     Number       Type             X           Y           Z
 ---------------------------------------------------------------------
      1          6           0        3.386256    0.082751    0.555235
      2          6           0        2.450330   -0.797523    1.384177
      3          6           0        1.245229   -0.030156    1.928855
      4          1           0        3.733105    0.922053    1.173469
      5          1           0        2.822058    0.521536   -0.279357
      6          1           0        3.016454   -1.235617    2.216159
      7          1           0        2.105820   -1.634933    0.763956
      8          1           0        0.655899    0.393649    1.109295
      9          1           0        1.571706    0.795234    2.569749
     10          1           0        0.589463   -0.678491    2.518341
     11          6           0        4.595735   -0.670139    0.003830
     12          6           0        5.531660    0.210135   -0.825112
     13          6           0        6.736761   -0.557231   -1.369791
     14          1           0        5.159932   -1.108924    0.838422
     15          1           0        4.248886   -1.509440   -0.614404
     16          1           0        5.876170    1.047545   -0.204891
     17          1           0        4.965537    0.648229   -1.657094
     18          1           0        6.410284   -1.382622   -2.010684
     19          1           0        7.326092   -0.981037   -0.550230
     20          1           0        7.392527    0.091103   -1.959276
     21          6           0       -3.289306    0.559027   -0.423277
     22          6           0       -3.089270    2.011205    0.011639
     23          6           0       -1.680554    2.527704   -0.282540
     24          1           0       -2.550922   -0.074798    0.086623
     25          1           0       -3.083984    0.474272   -1.499407
     26          1           0       -3.296253    2.093462    1.086352
     27          1           0       -3.828341    2.641621   -0.499210
     28          1           0       -1.466897    2.474555   -1.354979
     29          1           0       -0.931785    1.923282    0.239591
     30          1           0       -1.559510    3.567657    0.036371
     31          6           0       -4.692684    0.028360   -0.135788
     32          6           0       -4.892721   -1.423817   -0.570703
     33          6           0       -6.301437   -1.940316   -0.276524
     34          1           0       -4.898007    0.113115    0.940341
     35          1           0       -5.431069    0.662185   -0.645687
     36          1           0       -4.153649   -2.054233   -0.059855
     37          1           0       -4.685737   -1.506075   -1.645416
     38          1           0       -7.050206   -1.335894   -0.798656
     39          1           0       -6.515094   -1.887166    0.795915
     40          1           0       -6.422481   -2.980270   -0.595436
 ---------------------------------------------------------------------

 SCF Done:  E(RHF) =  -470.733350101     A.U. after   11 cycles
 E2 =    -0.1582399151D+01 EUMP2 =    -0.47231574925172D+03

 The electronic state is 1-A.
 Alpha  occ. eigenvalues --  -11.21624 -11.21596 -11.21593 -11.21576 -11.21405
 Alpha  occ. eigenvalues --  -11.21389 -11.21346 -11.21330 -11.21113 -11.21067
 Alpha  occ. eigenvalues --  -11.21064 -11.21032  -1.08436  -1.08413  -1.03549
 Alpha  occ. eigenvalues --   -1.03507  -0.96009  -0.95950  -0.87038  -0.86958
 Alpha  occ. eigenvalues --   -0.79640  -0.79544  -0.78255  -0.78217  -0.65091
 Alpha  occ. eigenvalues --   -0.65021  -0.61032  -0.60835  -0.59363  -0.59330
 Alpha  occ. eigenvalues --   -0.57667  -0.57525  -0.55414  -0.55138  -0.52692
 Alpha  occ. eigenvalues --   -0.52655  -0.52528  -0.52293  -0.50084  -0.49772
 Alpha  occ. eigenvalues --   -0.48024  -0.47795  -0.46742  -0.46488  -0.45833
 Alpha  occ. eigenvalues --   -0.45751  -0.45718  -0.45599  -0.43796  -0.43767
 Alpha virt. eigenvalues --    0.21588   0.23044   0.23525   0.24759   0.25852
 Alpha virt. eigenvalues --    0.26792   0.27109   0.27540   0.27929   0.28904
 Alpha virt. eigenvalues --    0.30343   0.31693   0.31769   0.31889   0.32046

 Mulliken charges:
               1
     1  C   -0.298520
     2  C   -0.299150
     3  C   -0.483481
     4  H    0.149745
     5  H    0.150079
     6  H    0.152043
     7  H    0.152035
     8  H    0.161805
     9  H    0.155780
    10  H    0.160033
    11  C   -0.298344
    12  C   -0.299691
    13  C   -0.475716
    14  H    0.149478
    15  H    0.149677
    16  H    0.151975
    17  H    0.152110
    18  H    0.155174
    19  H    0.155144
    20  H    0.160274
    21  C   -0.299096
    22  C   -0.298946
    23  C   -0.483622
    24  H    0.150287
    25  H    0.149146
    26  H    0.152215
    27  H    0.151787
    28  H    0.154559
    29  H    0.162704
    30  H    0.160537
    31  C   -0.298282
    32  C   -0.299657
    33  C   -0.475698
    34  H    0.149656
    35  H    0.149638
    36  H    0.151968
    37  H    0.151794
    38  H    0.155161
    39  H    0.155213
    40  H    0.160186
 Sum of Mulliken charges =  -0.00000

 Dipole moment (field-independent basis, Debye):
    X=              0.0169    Y=              0.0009    Z=              0.0089  Tot=              0.0191
 Quadrupole moment (field-independent basis, Debye-Ang):
   XX=            -86.2321   YY=            -85.1080   ZZ=            -83.4502
   XY=             -0.0777   XZ=              1.2946   YZ=             -0.1888

 Normal termination of Gaussian 16 at Wed May  5 23:03:41 2021.
