 Gaussian 16, Revision A.03,
 Gaussian 16:  EM64L-G16RevA.03 25-Dec-2016

 -------------
 #p 6-31g* mp2
 -------------

 ------------------------------------------------------
 Input file generated by CHIRIPA (05-May-2021 14:53:16)
 ------------------------------------------------------
 Symbolic Z-matrix:
 Charge =  0 Multiplicity = 1

                         Standard orientation:
 ---------------------------------------------------------------------
 Center     Atomic      Atomic             Coordinates (Angstroms)
 Number     Number       Type             X           Y           Z
 ---------------------------------------------------------------------
      1          6           0        3.019981    0.545440    0.230218
      2          6           0        3.591442   -0.869454    0.132784
      3          6           0        4.673842   -1.143069    1.177455
      4          1           0        3.835605    1.272249    0.114236
      5          1           0        2.606320    0.697801    1.236729
      6          1           0        4.002661   -1.019570   -0.873685
      7          1           0        2.774333   -1.592977    0.248819
      8          1           0        4.272861   -1.020672    2.188808
      9          1           0        5.508167   -0.444006    1.059926
     10          1           0        5.068486   -2.160136    1.089758
     11          6           0        1.936797    0.834112   -0.807621
     12          6           0        1.365336    2.249006   -0.710187
     13          6           0        0.282936    2.522621   -1.754859
     14          1           0        2.350458    0.681751   -1.814133
     15          1           0        1.121173    0.107303   -0.691640
     16          1           0        2.182445    2.972529   -0.826222
     17          1           0        0.954117    2.399122    0.296282
     18          1           0       -0.551389    1.823558   -1.637329
     19          1           0        0.683917    2.400224   -2.766211
     20          1           0       -0.111709    3.539688   -1.667162
     21          6           0       -1.390909   -1.979183   -1.772973
     22          6           0       -2.431076   -1.046779   -1.845036
     23          6           0       -2.742046   -0.243453   -0.743894
     24          6           0       -1.988962   -0.399645    0.418758
     25          6           0       -0.946686   -1.319632    0.521585
     26          6           0       -0.653333   -2.112399   -0.591974
     27          1           0       -1.156183   -2.599124   -2.633189
     28          1           0       -3.005573   -0.941151   -2.760919
     29          1           0       -3.542076    0.486316   -0.772305
     30          1           0       -0.391756   -1.402058    1.448233
     31          1           0        0.155023   -2.835685   -0.533139
     32          7           0       -2.308847    0.445211    1.591060
     33          8           0       -1.630388    0.288298    2.603833
     34          8           0       -3.231972    1.248324    1.474940
 ---------------------------------------------------------------------

 SCF Done:  E(RHF) =  -669.534390280     A.U. after   15 cycles
 E2 =    -0.2095606124D+01 EUMP2 =    -0.67162999640335D+03

 The electronic state is 1-A.
 Alpha  occ. eigenvalues --  -20.60895 -20.60888 -15.85951 -11.31352 -11.27926
 Alpha  occ. eigenvalues --  -11.27905 -11.27644 -11.26943 -11.26909 -11.21977
 Alpha  occ. eigenvalues --  -11.21460 -11.21451 -11.21322 -11.21222 -11.20945
 Alpha  occ. eigenvalues --   -1.59970  -1.39521  -1.19548  -1.08912  -1.08494
 Alpha  occ. eigenvalues --   -1.04956  -1.03611  -0.96040  -0.95744  -0.87065
 Alpha  occ. eigenvalues --   -0.86326  -0.82576  -0.79699  -0.78301  -0.77613
 Alpha  occ. eigenvalues --   -0.72164  -0.71301  -0.70619  -0.65232  -0.65121
 Alpha  occ. eigenvalues --   -0.64923  -0.62282  -0.61039  -0.59422  -0.57656
 Alpha  occ. eigenvalues --   -0.55417  -0.55352  -0.53374  -0.53017  -0.52748
 Alpha  occ. eigenvalues --   -0.52473  -0.50025  -0.48928  -0.48918  -0.47991
 Alpha  occ. eigenvalues --   -0.46742  -0.45793  -0.45677  -0.44913  -0.43835
 Alpha  occ. eigenvalues --   -0.37504  -0.36403
 Alpha virt. eigenvalues --    0.04887   0.11035   0.16294   0.20168   0.22936
 Alpha virt. eigenvalues --    0.23862   0.25620   0.26821   0.27682   0.28165
 Alpha virt. eigenvalues --    0.29123   0.30252   0.31518   0.31751   0.32347

 Mulliken charges:
               1
     1  C   -0.299850
     2  C   -0.297999
     3  C   -0.475936
     4  H    0.150995
     5  H    0.153859
     6  H    0.151466
     7  H    0.139746
     8  H    0.157592
     9  H    0.157596
    10  H    0.158652
    11  C   -0.308318
    12  C   -0.300951
    13  C   -0.479671
    14  H    0.144961
    15  H    0.159746
    16  H    0.151724
    17  H    0.157136
    18  H    0.155592
    19  H    0.151351
    20  H    0.162251
    21  C   -0.169223
    22  C   -0.216901
    23  C   -0.173285
    24  C    0.164298
    25  C   -0.176627
    26  C   -0.217982
    27  H    0.226976
    28  H    0.224932
    29  H    0.276918
    30  H    0.276624
    31  H    0.226472
    32  N    0.488008
    33  O   -0.460664
    34  O   -0.459489
 Sum of Mulliken charges =  -0.00000

 Dipole moment (field-independent basis, Debye):
    X=              0.9910    Y=             -3.0024    Z=             -4.0807  Tot=              5.1622
 Quadrupole moment (field-independent basis, Debye-Ang):
   XX=            -96.9144   YY=            -92.0079   ZZ=            -97.4813
   XY=              4.3650   XZ=             10.2364   YZ=             -0.5295

 Normal termination of Gaussian 16 at Thu May  6 07:30:16 2021.
