 Gaussian 16, Revision A.03,
 Gaussian 16:  EM64L-G16RevA.03 25-Dec-2016

 -------------
 #p 6-31g* mp2
 -------------

 ------------------------------------------------------
 Input file generated by CHIRIPA (05-May-2021 14:53:15)
 ------------------------------------------------------
 Symbolic Z-matrix:
 Charge =  0 Multiplicity = 1

                         Standard orientation:
 ---------------------------------------------------------------------
 Center     Atomic      Atomic             Coordinates (Angstroms)
 Number     Number       Type             X           Y           Z
 ---------------------------------------------------------------------
      1          6           0       -3.541544    0.052465   -0.060935
      2          6           0       -4.128468   -1.336730    0.191342
      3          6           0       -5.170353   -1.736980   -0.853679
      4          1           0       -4.354954    0.790842   -0.071325
      5          1           0       -3.086536    0.074577   -1.060872
      6          1           0       -4.581015   -1.356629    1.191052
      7          1           0       -3.313544   -2.071859    0.201323
      8          1           0       -4.728075   -1.745161   -1.855141
      9          1           0       -6.002747   -1.025866   -0.859788
     10          1           0       -5.576836   -2.733388   -0.654174
     11          6           0       -2.498473    0.466781    0.975440
     12          6           0       -1.911549    1.855976    0.723164
     13          6           0       -0.869663    2.256226    1.768185
     14          1           0       -2.953480    0.444669    1.975377
     15          1           0       -1.685062   -0.271595    0.985831
     16          1           0       -2.726472    2.591106    0.713182
     17          1           0       -1.459002    1.875875   -0.276547
     18          1           0       -0.037269    1.545113    1.774293
     19          1           0       -1.311941    2.264407    2.769646
     20          1           0       -0.463180    3.252635    1.568679
     21          6           0        1.085206    1.570144   -1.621731
     22          6           0        2.343068    1.861615   -1.083820
     23          6           0        3.058032    0.886998   -0.381325
     24          6           0        2.482564   -0.374235   -0.234981
     25          6           0        1.231395   -0.695252   -0.759209
     26          6           0        0.534355    0.294888   -1.457997
     27          1           0        0.536768    2.333279   -2.166006
     28          1           0        2.773331    2.851131   -1.209425
     29          1           0        4.033654    1.085629    0.045436
     30          1           0        0.828452   -1.690749   -0.617638
     31          1           0       -0.442325    0.065697   -1.874662
     32          7           0        3.229976   -1.414235    0.506756
     33          8           0        2.701067   -2.517703    0.621872
     34          8           0        4.330553   -1.106227    0.958971
 ---------------------------------------------------------------------

 SCF Done:  E(RHF) =  -669.534138446     A.U. after   15 cycles
 E2 =    -0.2095130899D+01 EUMP2 =    -0.67162926934435D+03

 The electronic state is 1-A.
 Alpha  occ. eigenvalues --  -20.60838 -20.60833 -15.85893 -11.31298 -11.27857
 Alpha  occ. eigenvalues --  -11.27850 -11.27587 -11.26876 -11.26866 -11.22118
 Alpha  occ. eigenvalues --  -11.22045 -11.22032 -11.21848 -11.21530 -11.21364
 Alpha  occ. eigenvalues --   -1.59913  -1.39465  -1.19474  -1.09010  -1.08823
 Alpha  occ. eigenvalues --   -1.04881  -1.03982  -0.96437  -0.95688  -0.87448
 Alpha  occ. eigenvalues --   -0.86279  -0.82516  -0.80066  -0.78795  -0.77560
 Alpha  occ. eigenvalues --   -0.72110  -0.71238  -0.70577  -0.65763  -0.65124
 Alpha  occ. eigenvalues --   -0.64786  -0.62215  -0.61423  -0.59806  -0.58056
 Alpha  occ. eigenvalues --   -0.55775  -0.55357  -0.53176  -0.53076  -0.52943
 Alpha  occ. eigenvalues --   -0.52832  -0.50378  -0.48874  -0.48863  -0.48365
 Alpha  occ. eigenvalues --   -0.47130  -0.46323  -0.46264  -0.44863  -0.44269
 Alpha  occ. eigenvalues --   -0.37363  -0.36427
 Alpha virt. eigenvalues --    0.04927   0.11085   0.16320   0.19364   0.22978
 Alpha virt. eigenvalues --    0.23896   0.25118   0.25950   0.26937   0.28515
 Alpha virt. eigenvalues --    0.29438   0.30935   0.31058   0.31475   0.31834

 Mulliken charges:
               1
     1  C   -0.299130
     2  C   -0.299873
     3  C   -0.475696
     4  H    0.152312
     5  H    0.138903
     6  H    0.155599
     7  H    0.151561
     8  H    0.152644
     9  H    0.156195
    10  H    0.163179
    11  C   -0.301152
    12  C   -0.298394
    13  C   -0.475963
    14  H    0.153745
    15  H    0.150184
    16  H    0.151118
    17  H    0.143955
    18  H    0.160889
    19  H    0.156789
    20  H    0.156307
    21  C   -0.169260
    22  C   -0.218166
    23  C   -0.171066
    24  C    0.158178
    25  C   -0.174434
    26  C   -0.217615
    27  H    0.226682
    28  H    0.224157
    29  H    0.276175
    30  H    0.275864
    31  H    0.228323
    32  N    0.488092
    33  O   -0.460160
    34  O   -0.459940
 Sum of Mulliken charges =  -0.00000

 Dipole moment (field-independent basis, Debye):
    X=             -2.5993    Y=              3.6383    Z=             -2.5447  Tot=              5.1448
 Quadrupole moment (field-independent basis, Debye-Ang):
   XX=           -105.0588   YY=            -95.8909   ZZ=            -94.2182
   XY=             12.6219   XZ=             -6.4833   YZ=              0.5216

 Normal termination of Gaussian 16 at Thu May  6 17:09:19 2021.
