 Gaussian 16, Revision A.03,
 Gaussian 16:  EM64L-G16RevA.03 25-Dec-2016

 -------------
 #p 6-31g* mp2
 -------------

 ------------------------------------------------------
 Input file generated by CHIRIPA (05-May-2021 14:55:19)
 ------------------------------------------------------
 Symbolic Z-matrix:
 Charge =  0 Multiplicity = 1

                         Standard orientation:
 ---------------------------------------------------------------------
 Center     Atomic      Atomic             Coordinates (Angstroms)
 Number     Number       Type             X           Y           Z
 ---------------------------------------------------------------------
      1          6           0        1.975918    2.524381   -0.187540
      2          6           0        1.342422    1.332126   -0.553232
      3          6           0        2.025328    0.114317   -0.481616
      4          6           0        3.346790    0.125506   -0.037880
      5          6           0        4.005359    1.296687    0.333488
      6          6           0        3.303025    2.502894    0.253875
      7          1           0        1.437874    3.465898   -0.246278
      8          1           0        0.311844    1.345798   -0.896405
      9          1           0        1.559074   -0.823417   -0.758529
     10          1           0        5.033437    1.251289    0.671735
     11          1           0        3.797540    3.427272    0.538525
     12          7           0        4.080036   -1.157593    0.042169
     13          8           0        5.243615   -1.120914    0.436347
     14          8           0        3.477291   -2.175669   -0.290782
     15          6           0       -4.892075   -0.469080    0.071535
     16          6           0       -5.567089    0.902905    0.072118
     17          6           0       -7.093249    0.810858    0.084501
     18          1           0       -5.233616   -1.038324   -0.803826
     19          1           0       -5.219249   -1.031327    0.957102
     20          1           0       -5.237667    1.462923   -0.812460
     21          1           0       -5.223755    1.469021    0.947475
     22          1           0       -7.439660    0.274982    0.974130
     23          1           0       -7.453651    0.268850   -0.795805
     24          1           0       -7.555295    1.803014    0.084717
     25          6           0       -3.366337   -0.393580    0.059212
     26          6           0       -2.691324   -1.765565    0.058630
     27          6           0       -1.165163   -1.673518    0.046246
     28          1           0       -3.039164    0.168668   -0.826355
     29          1           0       -3.024797    0.175664    0.934572
     30          1           0       -3.034659   -2.331681   -0.816728
     31          1           0       -3.020746   -2.325584    0.943206
     32          1           0       -0.804762   -1.131510    0.926551
     33          1           0       -0.818753   -1.137643   -0.843382
     34          1           0       -0.703118   -2.665674    0.046031
 ---------------------------------------------------------------------

 SCF Done:  E(RHF) =  -669.535110994     A.U. after   15 cycles
 E2 =    -0.2091904918D+01 EUMP2 =    -0.67162701591210D+03

 The electronic state is 1-A.
 Alpha  occ. eigenvalues --  -20.60679 -20.60674 -15.85730 -11.31059 -11.27654
 Alpha  occ. eigenvalues --  -11.27567 -11.27397 -11.26668 -11.26624 -11.22142
 Alpha  occ. eigenvalues --  -11.22057 -11.22002 -11.21843 -11.21767 -11.21435
 Alpha  occ. eigenvalues --   -1.59754  -1.39308  -1.19244  -1.08962  -1.08648
 Alpha  occ. eigenvalues --   -1.04653  -1.04045  -0.96526  -0.95483  -0.87555
 Alpha  occ. eigenvalues --   -0.86040  -0.82324  -0.80139  -0.78787  -0.77350
 Alpha  occ. eigenvalues --   -0.71951  -0.71077  -0.70362  -0.65589  -0.64900
 Alpha  occ. eigenvalues --   -0.64652  -0.62069  -0.61408  -0.59862  -0.58104
 Alpha  occ. eigenvalues --   -0.55825  -0.55158  -0.53248  -0.53077  -0.52855
 Alpha  occ. eigenvalues --   -0.52633  -0.50466  -0.48714  -0.48706  -0.48416
 Alpha  occ. eigenvalues --   -0.47148  -0.46319  -0.46237  -0.44720  -0.44294
 Alpha  occ. eigenvalues --   -0.37238  -0.36227
 Alpha virt. eigenvalues --    0.05150   0.11392   0.16620   0.20288   0.22496
 Alpha virt. eigenvalues --    0.23749   0.25445   0.26377   0.26761   0.28207
 Alpha virt. eigenvalues --    0.29167   0.29880   0.31305   0.31553   0.31765

 Mulliken charges:
               1
     1  C   -0.171030
     2  C   -0.221537
     3  C   -0.175311
     4  C    0.158580
     5  C   -0.170895
     6  C   -0.219013
     7  H    0.225114
     8  H    0.224564
     9  H    0.284067
    10  H    0.275088
    11  H    0.222883
    12  N    0.488174
    13  O   -0.460994
    14  O   -0.460644
    15  C   -0.298541
    16  C   -0.299862
    17  C   -0.475976
    18  H    0.151335
    19  H    0.151858
    20  H    0.150454
    21  H    0.151581
    22  H    0.156432
    23  H    0.156161
    24  H    0.160809
    25  C   -0.298971
    26  C   -0.300483
    27  C   -0.483269
    28  H    0.143907
    29  H    0.149405
    30  H    0.154860
    31  H    0.156298
    32  H    0.159541
    33  H    0.142640
    34  H    0.172776
 Sum of Mulliken charges =  -0.00000

 Dipole moment (field-independent basis, Debye):
    X=             -2.7632    Y=              4.3870    Z=             -0.2129  Tot=              5.1890
 Quadrupole moment (field-independent basis, Debye-Ang):
   XX=           -109.8851   YY=            -92.6554   ZZ=            -93.9586
   XY=             17.4874   XZ=              0.6037   YZ=              0.6667

 Normal termination of Gaussian 16 at Thu May  6 12:24:52 2021.
