 Gaussian 16, Revision A.03,
 Gaussian 16:  EM64L-G16RevA.03 25-Dec-2016

 -------------
 #p 6-31g* mp2
 -------------

 ------------------------------------------------------
 Input file generated by CHIRIPA (05-May-2021 14:53:16)
 ------------------------------------------------------
 Symbolic Z-matrix:
 Charge =  0 Multiplicity = 1

                         Standard orientation:
 ---------------------------------------------------------------------
 Center     Atomic      Atomic             Coordinates (Angstroms)
 Number     Number       Type             X           Y           Z
 ---------------------------------------------------------------------
      1          6           0       -3.147048   -0.124248    0.793272
      2          6           0       -2.601984   -1.521044    1.093023
      3          6           0       -1.442002   -1.501790    2.088946
      4          1           0       -2.334983    0.502779    0.400420
      5          1           0       -3.476212    0.342530    1.731976
      6          1           0       -2.275224   -1.985586    0.153850
      7          1           0       -3.415485   -2.144875    1.485027
      8          1           0       -1.758489   -1.062507    3.040507
      9          1           0       -0.611749   -0.902313    1.701767
     10          1           0       -1.067705   -2.510653    2.288842
     11          6           0       -4.307083   -0.127061   -0.200729
     12          6           0       -4.852147    1.269735   -0.500479
     13          6           0       -6.012130    1.250481   -1.496403
     14          1           0       -3.977920   -0.593840   -1.139432
     15          1           0       -5.119148   -0.754089    0.192123
     16          1           0       -4.038646    1.893566   -0.892484
     17          1           0       -5.178907    1.734277    0.438693
     18          1           0       -6.842383    0.651004   -1.109223
     19          1           0       -5.695643    0.811198   -2.447963
     20          1           0       -6.386427    2.259343   -1.696298
     21          6           0        2.157711   -2.161619   -1.062533
     22          6           0        3.508267   -1.804594   -1.133584
     23          6           0        3.937391   -0.555155   -0.676089
     24          6           0        2.984670    0.316636   -0.151117
     25          6           0        1.632067   -0.009950   -0.066867
     26          6           0        1.225564   -1.264740   -0.530339
     27          1           0        1.833143   -3.134292   -1.420249
     28          1           0        4.234405   -2.499107   -1.546406
     29          1           0        4.976763   -0.253055   -0.719217
     30          1           0        0.931608    0.703614    0.349786
     31          1           0        0.176055   -1.539317   -0.473915
     32          7           0        3.426990    1.642193    0.336376
     33          8           0        2.567894    2.392309    0.794544
     34          8           0        4.624401    1.905950    0.251076
 ---------------------------------------------------------------------

 SCF Done:  E(RHF) =  -669.534312198     A.U. after   15 cycles
 E2 =    -0.2092957598D+01 EUMP2 =    -0.67162726979639D+03

 The electronic state is 1-A.
 Alpha  occ. eigenvalues --  -20.60755 -20.60750 -15.85808 -11.31183 -11.27739
 Alpha  occ. eigenvalues --  -11.27735 -11.27468 -11.26766 -11.26706 -11.22516
 Alpha  occ. eigenvalues --  -11.22104 -11.21979 -11.21907 -11.21858 -11.21370
 Alpha  occ. eigenvalues --   -1.59830  -1.39383  -1.19350  -1.09081  -1.08738
 Alpha  occ. eigenvalues --   -1.04776  -1.04143  -0.96586  -0.95577  -0.87599
 Alpha  occ. eigenvalues --   -0.86149  -0.82421  -0.80225  -0.78850  -0.77471
 Alpha  occ. eigenvalues --   -0.72026  -0.71152  -0.70463  -0.65832  -0.65001
 Alpha  occ. eigenvalues --   -0.64739  -0.62367  -0.61282  -0.59960  -0.58178
 Alpha  occ. eigenvalues --   -0.55911  -0.55218  -0.53289  -0.53119  -0.52926
 Alpha  occ. eigenvalues --   -0.52808  -0.50525  -0.48786  -0.48783  -0.48512
 Alpha  occ. eigenvalues --   -0.47295  -0.46384  -0.46308  -0.44787  -0.44390
 Alpha  occ. eigenvalues --   -0.37324  -0.36317
 Alpha virt. eigenvalues --    0.05041   0.11280   0.16454   0.18890   0.22913
 Alpha virt. eigenvalues --    0.23893   0.24814   0.25827   0.27534   0.28275
 Alpha virt. eigenvalues --    0.29365   0.29890   0.31116   0.31353   0.32061

 Mulliken charges:
               1
     1  C   -0.298615
     2  C   -0.305652
     3  C   -0.481276
     4  H    0.145670
     5  H    0.155219
     6  H    0.143177
     7  H    0.158035
     8  H    0.162839
     9  H    0.152691
    10  H    0.161882
    11  C   -0.298399
    12  C   -0.300508
    13  C   -0.476116
    14  H    0.147723
    15  H    0.151340
    16  H    0.153758
    17  H    0.154037
    18  H    0.155505
    19  H    0.154928
    20  H    0.162540
    21  C   -0.173635
    22  C   -0.218239
    23  C   -0.171355
    24  C    0.158388
    25  C   -0.175480
    26  C   -0.220877
    27  H    0.225828
    28  H    0.223401
    29  H    0.275545
    30  H    0.276259
    31  H    0.234019
    32  N    0.488276
    33  O   -0.460466
    34  O   -0.460443
 Sum of Mulliken charges =  -0.00000

 Dipole moment (field-independent basis, Debye):
    X=             -1.7155    Y=             -4.6440    Z=             -1.6441  Tot=              5.2166
 Quadrupole moment (field-independent basis, Debye-Ang):
   XX=            -99.1406   YY=            -98.0956   ZZ=            -94.3659
   XY=            -15.7808   XZ=             -7.6740   YZ=              0.4899

 Normal termination of Gaussian 16 at Thu May  6 05:55:00 2021.
