 Gaussian 16, Revision A.03,
 Gaussian 16:  EM64L-G16RevA.03 25-Dec-2016

 -------------
 #p 6-31g* mp2
 -------------

 ------------------------------------------------------
 Input file generated by CHIRIPA (05-May-2021 14:51:08)
 ------------------------------------------------------
 Symbolic Z-matrix:
 Charge =  0 Multiplicity = 1

                         Standard orientation:
 ---------------------------------------------------------------------
 Center     Atomic      Atomic             Coordinates (Angstroms)
 Number     Number       Type             X           Y           Z
 ---------------------------------------------------------------------
      1          6           0        4.667820   -0.101856    0.461367
      2          6           0        6.022033    0.032619   -0.235778
      3          6           0        7.111871    0.575076    0.689310
      4          1           0        4.364521    0.879239    0.851761
      5          1           0        4.775219   -0.764745    1.331102
      6          1           0        5.911806    0.693955   -1.104743
      7          1           0        6.322053   -0.948872   -0.624725
      8          1           0        7.250952   -0.086753    1.550264
      9          1           0        6.838373    1.565408    1.067518
     10          1           0        8.071570    0.663165    0.170583
     11          6           0        3.568084   -0.642929   -0.450525
     12          6           0        2.213872   -0.777404    0.246619
     13          6           0        1.124034   -1.319860   -0.678468
     14          1           0        3.460685    0.019960   -1.320261
     15          1           0        3.871383   -1.624024   -0.840920
     16          1           0        1.913851    0.204087    0.635566
     17          1           0        2.324098   -1.438740    1.115585
     18          1           0        1.397531   -2.310193   -1.056676
     19          1           0        0.984953   -0.658032   -1.539422
     20          1           0        0.164334   -1.407950   -0.159742
     21          6           0       -3.638540    0.967028   -0.003241
     22          6           0       -2.221880    0.605411   -0.450783
     23          6           0       -1.274461    1.805452   -0.441138
     24          1           0       -4.034201    1.753665   -0.660203
     25          1           0       -3.598058    1.395291    1.007870
     26          1           0       -2.265177    0.176679   -1.460204
     27          1           0       -1.829618   -0.180592    0.207202
     28          1           0       -1.201594    2.230669    0.565084
     29          1           0       -1.639627    2.589971   -1.111797
     30          1           0       -0.267308    1.524423   -0.764441
     31          6           0       -4.597365   -0.222243   -0.007601
     32          6           0       -6.014024    0.139374    0.439941
     33          6           0       -6.961444   -1.060666    0.430296
     34          1           0       -4.637846   -0.650507   -1.018712
     35          1           0       -4.201703   -1.008881    0.649362
     36          1           0       -6.406286    0.925377   -0.218045
     37          1           0       -5.970727    0.568105    1.449362
     38          1           0       -6.596276   -1.845186    1.100956
     39          1           0       -7.034311   -1.485884   -0.575925
     40          1           0       -7.968597   -0.779639    0.753599
 ---------------------------------------------------------------------

 SCF Done:  E(RHF) =  -470.732613966     A.U. after   11 cycles
 E2 =    -0.1583339117D+01 EUMP2 =    -0.47231595308302D+03

 The electronic state is 1-A.
 Alpha  occ. eigenvalues --  -11.21594 -11.21592 -11.21584 -11.21561 -11.21396
 Alpha  occ. eigenvalues --  -11.21387 -11.21336 -11.21326 -11.21064 -11.21063
 Alpha  occ. eigenvalues --  -11.21038 -11.21004  -1.08437  -1.08398  -1.03580
 Alpha  occ. eigenvalues --   -1.03454  -0.96047  -0.95884  -0.86998  -0.86968
 Alpha  occ. eigenvalues --   -0.79662  -0.79504  -0.78249  -0.78210  -0.65077
 Alpha  occ. eigenvalues --   -0.65038  -0.61027  -0.60909  -0.59539  -0.59130
 Alpha  occ. eigenvalues --   -0.57708  -0.57429  -0.55270  -0.55206  -0.52701
 Alpha  occ. eigenvalues --   -0.52603  -0.52419  -0.52352  -0.49916  -0.49878
 Alpha  occ. eigenvalues --   -0.48039  -0.47767  -0.46627  -0.46584  -0.45789
 Alpha  occ. eigenvalues --   -0.45760  -0.45699  -0.45682  -0.43832  -0.43650
 Alpha virt. eigenvalues --    0.20936   0.23069   0.23493   0.25395   0.25982
 Alpha virt. eigenvalues --    0.26576   0.26915   0.27456   0.27715   0.29316
 Alpha virt. eigenvalues --    0.29585   0.31156   0.31441   0.31756   0.32557

 Mulliken charges:
               1
     1  C   -0.298283
     2  C   -0.299644
     3  C   -0.475706
     4  H    0.149752
     5  H    0.149457
     6  H    0.151945
     7  H    0.151908
     8  H    0.155141
     9  H    0.155216
    10  H    0.160230
    11  C   -0.298172
    12  C   -0.302431
    13  C   -0.480095
    14  H    0.149191
    15  H    0.149722
    16  H    0.153735
    17  H    0.151767
    18  H    0.154852
    19  H    0.155062
    20  H    0.166006
    21  C   -0.298013
    22  C   -0.300906
    23  C   -0.480428
    24  H    0.149471
    25  H    0.149280
    26  H    0.152342
    27  H    0.154014
    28  H    0.154580
    29  H    0.154873
    30  H    0.165330
    31  C   -0.298241
    32  C   -0.299605
    33  C   -0.475701
    34  H    0.149641
    35  H    0.149323
    36  H    0.151944
    37  H    0.151877
    38  H    0.155142
    39  H    0.155207
    40  H    0.160214
 Sum of Mulliken charges =  -0.00000

 Dipole moment (field-independent basis, Debye):
    X=             -0.0046    Y=             -0.0086    Z=             -0.0039  Tot=              0.0105
 Quadrupole moment (field-independent basis, Debye-Ang):
   XX=            -86.2499   YY=            -84.6042   ZZ=            -84.0605
   XY=             -1.1948   XZ=             -0.0975   YZ=             -0.6682

 Normal termination of Gaussian 16 at Wed May  5 21:18:11 2021.
