 Gaussian 16, Revision A.03,
 Gaussian 16:  EM64L-G16RevA.03 25-Dec-2016

 -------------
 #p 6-31g* mp2
 -------------

 ------------------------------------------------------
 Input file generated by CHIRIPA (05-May-2021 14:57:24)
 ------------------------------------------------------
 Symbolic Z-matrix:
 Charge =  0 Multiplicity = 1

                         Standard orientation:
 ---------------------------------------------------------------------
 Center     Atomic      Atomic             Coordinates (Angstroms)
 Number     Number       Type             X           Y           Z
 ---------------------------------------------------------------------
      1          6           0        3.271726    2.536757    0.090894
      2          6           0        2.205537    1.638194    0.202016
      3          6           0        2.417868    0.263572    0.061027
      4          6           0        3.715094   -0.179828   -0.191740
      5          6           0        4.797926    0.690394   -0.307838
      6          6           0        4.562242    2.060828   -0.163230
      7          1           0        3.097711    3.602970    0.201824
      8          1           0        1.202245    2.004960    0.399334
      9          1           0        1.610604   -0.454158    0.142303
     10          1           0        5.786896    0.294786   -0.504946
     11          1           0        5.392160    2.756348   -0.250027
     12          7           0        3.952240   -1.632862   -0.342915
     13          8           0        5.104521   -1.998172   -0.565255
     14          8           0        2.981345   -2.378926   -0.236202
     15          6           0       -5.791858    0.232377   -1.176242
     16          6           0       -5.421481   -1.037222   -0.720765
     17          6           0       -4.251268   -1.210808    0.024230
     18          6           0       -3.471457   -0.087882    0.296668
     19          6           0       -3.813690    1.189907   -0.143129
     20          6           0       -4.988196    1.339937   -0.886482
     21          1           0       -6.702575    0.358074   -1.754335
     22          1           0       -6.043682   -1.899165   -0.944292
     23          1           0       -3.940903   -2.182345    0.389205
     24          1           0       -3.173084    2.030192    0.095539
     25          1           0       -5.273359    2.327113   -1.238917
     26          7           0       -2.230332   -0.259181    1.084491
     27          8           0       -1.560511    0.746110    1.311132
     28          8           0       -1.950860   -1.395493    1.460428
 ---------------------------------------------------------------------

 SCF Done:  E(RHF) =  -868.339751583     A.U. after   16 cycles
 E2 =    -0.2598675901D+01 EUMP2 =    -0.87093842748464D+03

 The electronic state is 1-A.
 Alpha  occ. eigenvalues --  -20.61541 -20.61447 -20.59911 -20.59885 -15.86521
 Alpha  occ. eigenvalues --  -15.84946 -11.31662 -11.30201 -11.28244 -11.28167
 Alpha  occ. eigenvalues --  -11.27903 -11.27188 -11.27140 -11.26828 -11.26615
 Alpha  occ. eigenvalues --  -11.26523 -11.25861 -11.25594  -1.60555  -1.58980
 Alpha  occ. eigenvalues --   -1.40114  -1.38534  -1.19814  -1.18366  -1.09249
 Alpha  occ. eigenvalues --   -1.07801  -1.05184  -1.03722  -0.96120  -0.94647
 Alpha  occ. eigenvalues --   -0.86592  -0.85143  -0.82962  -0.81456  -0.78037
 Alpha  occ. eigenvalues --   -0.76506  -0.72742  -0.71860  -0.71169  -0.70920
 Alpha  occ. eigenvalues --   -0.70303  -0.69498  -0.65471  -0.65184  -0.64011
 Alpha  occ. eigenvalues --   -0.63708  -0.62535  -0.61041  -0.55690  -0.54291
 Alpha  occ. eigenvalues --   -0.53522  -0.53273  -0.52105  -0.51789  -0.49518
 Alpha  occ. eigenvalues --   -0.49468  -0.47932  -0.47915  -0.45561  -0.43963
 Alpha  occ. eigenvalues --   -0.37778  -0.36775  -0.36392  -0.35328
 Alpha virt. eigenvalues --    0.04456   0.05982   0.10883   0.12308   0.15975
 Alpha virt. eigenvalues --    0.17490   0.20998   0.22480   0.26937   0.27632
 Alpha virt. eigenvalues --    0.28631   0.29245   0.30659   0.31719   0.32416

 Mulliken charges:
               1
     1  C   -0.172221
     2  C   -0.223404
     3  C   -0.172667
     4  C    0.157473
     5  C   -0.172867
     6  C   -0.219017
     7  H    0.221564
     8  H    0.237676
     9  H    0.284476
    10  H    0.272165
    11  H    0.219135
    12  N    0.487754
    13  O   -0.464846
    14  O   -0.458307
    15  C   -0.169868
    16  C   -0.218404
    17  C   -0.169688
    18  C    0.157879
    19  C   -0.170745
    20  C   -0.218325
    21  H    0.227452
    22  H    0.226017
    23  H    0.278626
    24  H    0.271848
    25  H    0.224025
    26  N    0.489766
    27  O   -0.473676
    28  O   -0.451822
 Sum of Mulliken charges =  -0.00000

 Dipole moment (field-independent basis, Debye):
    X=             -5.7572    Y=              5.5432    Z=             -2.1992  Tot=              8.2891
 Quadrupole moment (field-independent basis, Debye-Ang):
   XX=            -76.9208   YY=           -102.5568   ZZ=           -108.1946
   XY=             19.7024   XZ=             10.1977   YZ=             -1.3203

 Normal termination of Gaussian 16 at Fri May  7 06:28:05 2021.
