 Gaussian 16, Revision A.03,
 Gaussian 16:  EM64L-G16RevA.03 25-Dec-2016

 -------------
 #p 6-31g* mp2
 -------------

 ------------------------------------------------------
 Input file generated by CHIRIPA (05-May-2021 14:57:26)
 ------------------------------------------------------
 Symbolic Z-matrix:
 Charge =  0 Multiplicity = 1

                         Standard orientation:
 ---------------------------------------------------------------------
 Center     Atomic      Atomic             Coordinates (Angstroms)
 Number     Number       Type             X           Y           Z
 ---------------------------------------------------------------------
      1          6           0       -4.289612   -2.134804    0.954741
      2          6           0       -2.963541   -1.733523    0.762310
      3          6           0       -2.672209   -0.459671    0.265343
      4          6           0       -3.736254    0.391137   -0.029995
      5          6           0       -5.067878    0.020510    0.150842
      6          6           0       -5.335704   -1.258053    0.648932
      7          1           0       -4.506795   -3.126193    1.341233
      8          1           0       -2.149116   -2.412318    0.998941
      9          1           0       -1.654810   -0.123264    0.106763
     10          1           0       -5.858495    0.719310   -0.094153
     11          1           0       -6.366513   -1.566995    0.797369
     12          7           0       -3.440276    1.742201   -0.556706
     13          8           0       -4.395635    2.473068   -0.809209
     14          8           0       -2.258534    2.044714   -0.707066
     15          6           0        5.626168    1.139002    1.068655
     16          6           0        5.932888    0.240424    0.041522
     17          6           0        4.920844   -0.489335   -0.589166
     18          6           0        3.607041   -0.294867   -0.165619
     19          6           0        3.269599    0.592958    0.854768
     20          6           0        4.297844    1.312097    1.471289
     21          1           0        6.418642    1.701771    1.553085
     22          1           0        6.963590    0.103961   -0.273241
     23          1           0        5.130193   -1.191559   -1.386958
     24          1           0        2.232750    0.707540    1.146717
     25          1           0        4.056696    2.009255    2.268699
     26          7           0        2.527058   -1.061807   -0.825802
     27          8           0        1.377526   -0.872371   -0.434233
     28          8           0        2.850551   -1.837850   -1.722322
 ---------------------------------------------------------------------

 SCF Done:  E(RHF) =  -868.339681506     A.U. after   16 cycles
 E2 =    -0.2598359418D+01 EUMP2 =    -0.87093804092473D+03

 The electronic state is 1-A.
 Alpha  occ. eigenvalues --  -20.61123 -20.61089 -20.60107 -20.60093 -15.86158
 Alpha  occ. eigenvalues --  -15.85150 -11.31315 -11.30373 -11.27868 -11.27855
 Alpha  occ. eigenvalues --  -11.27579 -11.27014 -11.26846 -11.26824 -11.26791
 Alpha  occ. eigenvalues --  -11.26722 -11.26021 -11.25852  -1.60167  -1.59182
 Alpha  occ. eigenvalues --   -1.39731  -1.38737  -1.19471  -1.18554  -1.08905
 Alpha  occ. eigenvalues --   -1.07993  -1.04846  -1.03917  -0.95775  -0.94837
 Alpha  occ. eigenvalues --   -0.86255  -0.85335  -0.82620  -0.81659  -0.77685
 Alpha  occ. eigenvalues --   -0.76706  -0.72400  -0.71469  -0.71375  -0.70585
 Alpha  occ. eigenvalues --   -0.70504  -0.69666  -0.65134  -0.64850  -0.64205
 Alpha  occ. eigenvalues --   -0.63919  -0.62197  -0.61235  -0.55361  -0.54473
 Alpha  occ. eigenvalues --   -0.53184  -0.52938  -0.52290  -0.51995  -0.49146
 Alpha  occ. eigenvalues --   -0.49109  -0.48135  -0.48119  -0.45177  -0.44173
 Alpha  occ. eigenvalues --   -0.37443  -0.36574  -0.36438  -0.35521
 Alpha virt. eigenvalues --    0.04844   0.05792   0.11219   0.12120   0.16371
 Alpha virt. eigenvalues --    0.17294   0.21253   0.22265   0.27130   0.27628
 Alpha virt. eigenvalues --    0.28435   0.29224   0.30881   0.31746   0.32274

 Mulliken charges:
               1
     1  C   -0.171213
     2  C   -0.221065
     3  C   -0.175290
     4  C    0.156726
     5  C   -0.171765
     6  C   -0.219567
     7  H    0.223079
     8  H    0.228741
     9  H    0.292045
    10  H    0.272655
    11  H    0.220168
    12  N    0.487743
    13  O   -0.464191
    14  O   -0.459826
    15  C   -0.170146
    16  C   -0.218615
    17  C   -0.170602
    18  C    0.157892
    19  C   -0.169051
    20  C   -0.218433
    21  H    0.226499
    22  H    0.223939
    23  H    0.275562
    24  H    0.275628
    25  H    0.225183
    26  N    0.494038
    27  O   -0.472209
    28  O   -0.457928
 Sum of Mulliken charges =  -0.00000

 Dipole moment (field-independent basis, Debye):
    X=              3.1598    Y=             -2.0807    Z=              4.1730  Tot=              5.6327
 Quadrupole moment (field-independent basis, Debye-Ang):
   XX=            -63.5477   YY=           -110.3577   ZZ=           -105.2865
   XY=             23.7908   XZ=             -1.0017   YZ=              1.3747

 Normal termination of Gaussian 16 at Wed May  5 18:00:23 2021.
