 Gaussian 16, Revision A.03,
 Gaussian 16:  EM64L-G16RevA.03 25-Dec-2016

 -------------
 #p 6-31g* mp2
 -------------

 ------------------------------------------------------
 Input file generated by CHIRIPA (05-May-2021 14:55:23)
 ------------------------------------------------------
 Symbolic Z-matrix:
 Charge =  0 Multiplicity = 1

                         Standard orientation:
 ---------------------------------------------------------------------
 Center     Atomic      Atomic             Coordinates (Angstroms)
 Number     Number       Type             X           Y           Z
 ---------------------------------------------------------------------
      1          6           0        1.047614   -0.035024    2.121889
      2          6           0        2.334465    0.502477    2.229728
      3          6           0        3.246027    0.378978    1.176945
      4          6           0        2.835460   -0.291272    0.025646
      5          6           0        1.560369   -0.837612   -0.112002
      6          6           0        0.665347   -0.702176    0.953428
      7          1           0        0.345916    0.065550    2.944628
      8          1           0        2.634086    1.021109    3.135980
      9          1           0        4.248467    0.785550    1.233779
     10          1           0        1.290642   -1.349202   -1.027939
     11          1           0       -0.333388   -1.120606    0.866885
     12          7           0        3.791734   -0.428333   -1.095582
     13          8           0        3.405584   -1.023391   -2.099291
     14          8           0        4.909306    0.061891   -0.949462
     15          6           0       -3.418871    1.038338   -0.587372
     16          6           0       -2.264979    1.914514   -0.098667
     17          6           0       -2.260886    3.300668   -0.743922
     18          1           0       -3.356024    0.935838   -1.679383
     19          1           0       -4.370366    1.545350   -0.375264
     20          1           0       -1.315997    1.405372   -0.310385
     21          1           0       -2.330470    2.014781    0.992330
     22          1           0       -3.192192    3.831690   -0.521919
     23          1           0       -2.171955    3.218819   -1.832036
     24          1           0       -1.427797    3.910286   -0.380343
     25          6           0       -3.436436   -0.350509    0.048650
     26          6           0       -4.590329   -1.226685   -0.440055
     27          6           0       -4.594422   -2.612840    0.205200
     28          1           0       -2.484941   -0.857523   -0.163457
     29          1           0       -3.499283   -0.248011    1.140662
     30          1           0       -4.524838   -1.326953   -1.531051
     31          1           0       -5.539311   -0.717544   -0.228337
     32          1           0       -4.683352   -2.530992    1.293314
     33          1           0       -3.663115   -3.143863   -0.016802
     34          1           0       -5.427510   -3.222459   -0.158379
 ---------------------------------------------------------------------

 SCF Done:  E(RHF) =  -669.535408837     A.U. after   15 cycles
 E2 =    -0.2092335069D+01 EUMP2 =    -0.67162774390665D+03

 The electronic state is 1-A.
 Alpha  occ. eigenvalues --  -20.60763 -20.60758 -15.85816 -11.31182 -11.27750
 Alpha  occ. eigenvalues --  -11.27747 -11.27477 -11.26761 -11.26717 -11.22346
 Alpha  occ. eigenvalues --  -11.22279 -11.22135 -11.22009 -11.21754 -11.21466
 Alpha  occ. eigenvalues --   -1.59838  -1.39392  -1.19354  -1.09147  -1.08741
 Alpha  occ. eigenvalues --   -1.04759  -1.04142  -0.96606  -0.95579  -0.87615
 Alpha  occ. eigenvalues --   -0.86152  -0.82417  -0.80221  -0.79006  -0.77454
 Alpha  occ. eigenvalues --   -0.72034  -0.71161  -0.70452  -0.65814  -0.65002
 Alpha  occ. eigenvalues --   -0.64732  -0.62109  -0.61533  -0.59974  -0.58221
 Alpha  occ. eigenvalues --   -0.55903  -0.55245  -0.53286  -0.53117  -0.53033
 Alpha  occ. eigenvalues --   -0.52802  -0.50540  -0.48798  -0.48790  -0.48530
 Alpha  occ. eigenvalues --   -0.47260  -0.46487  -0.46419  -0.44798  -0.44433
 Alpha  occ. eigenvalues --   -0.37309  -0.36329
 Alpha virt. eigenvalues --    0.05059   0.11242   0.16478   0.20120   0.22703
 Alpha virt. eigenvalues --    0.23615   0.24965   0.26046   0.27337   0.28369
 Alpha virt. eigenvalues --    0.29384   0.30469   0.31040   0.31382   0.31658

 Mulliken charges:
               1
     1  C   -0.172086
     2  C   -0.218552
     3  C   -0.170996
     4  C    0.158924
     5  C   -0.174789
     6  C   -0.221220
     7  H    0.226303
     8  H    0.223357
     9  H    0.275569
    10  H    0.275021
    11  H    0.233178
    12  N    0.488134
    13  O   -0.460591
    14  O   -0.460454
    15  C   -0.298235
    16  C   -0.304150
    17  C   -0.475896
    18  H    0.152950
    19  H    0.151927
    20  H    0.156245
    21  H    0.146754
    22  H    0.155448
    23  H    0.157996
    24  H    0.161882
    25  C   -0.302238
    26  C   -0.299468
    27  C   -0.476364
    28  H    0.142692
    29  H    0.146918
    30  H    0.155216
    31  H    0.155006
    32  H    0.154478
    33  H    0.152839
    34  H    0.164202
 Sum of Mulliken charges =  -0.00000

 Dipole moment (field-independent basis, Debye):
    X=             -3.4898    Y=              0.5293    Z=              3.9061  Tot=              5.2646
 Quadrupole moment (field-independent basis, Debye-Ang):
   XX=           -110.9683   YY=            -95.2335   ZZ=            -93.1298
   XY=              4.0683   XZ=             13.1779   YZ=              0.9979

 Normal termination of Gaussian 16 at Thu May  6 15:55:58 2021.
