 Gaussian 16, Revision A.03,
 Gaussian 16:  EM64L-G16RevA.03 25-Dec-2016

 -------------
 #p 6-31g* mp2
 -------------

 ------------------------------------------------------
 Input file generated by CHIRIPA (05-May-2021 14:57:24)
 ------------------------------------------------------
 Symbolic Z-matrix:
 Charge =  0 Multiplicity = 1

                         Standard orientation:
 ---------------------------------------------------------------------
 Center     Atomic      Atomic             Coordinates (Angstroms)
 Number     Number       Type             X           Y           Z
 ---------------------------------------------------------------------
      1          6           0        2.047892    1.975707    1.137574
      2          6           0        2.711839    2.148659   -0.081353
      3          6           0        3.405405    1.086518   -0.669035
      4          6           0        3.414395   -0.140435   -0.007372
      5          6           0        2.762604   -0.344114    1.207936
      6          6           0        2.075346    0.732065    1.777200
      7          1           0        1.511564    2.806257    1.586946
      8          1           0        2.692217    3.113367   -0.580351
      9          1           0        3.927983    1.192738   -1.611928
     10          1           0        2.800060   -1.317593    1.681595
     11          1           0        1.560614    0.594848    2.723915
     12          7           0        4.145304   -1.272307   -0.619776
     13          8           0        4.138116   -2.343282   -0.016786
     14          8           0        4.711538   -1.067061   -1.691172
     15          6           0       -2.473804    2.315425   -0.434818
     16          6           0       -3.755512    1.951170   -0.860334
     17          6           0       -4.220379    0.645561   -0.676402
     18          6           0       -3.373220   -0.274416   -0.060567
     19          6           0       -2.091142    0.057941    0.374296
     20          6           0       -1.647167    1.369316    0.180054
     21          1           0       -2.120799    3.331894   -0.581705
     22          1           0       -4.399668    2.683837   -1.338150
     23          1           0       -5.208152    0.336603   -0.996194
     24          1           0       -1.471976   -0.694496    0.847467
     25          1           0       -0.651305    1.649374    0.511525
     26          7           0       -3.854294   -1.659658    0.139610
     27          8           0       -3.088560   -2.451519    0.684812
     28          8           0       -4.987987   -1.927321   -0.252483
 ---------------------------------------------------------------------

 SCF Done:  E(RHF) =  -868.336558812     A.U. after   16 cycles
 E2 =    -0.2601521520D+01 EUMP2 =    -0.87093808033135D+03

 The electronic state is 1-A.
 Alpha  occ. eigenvalues --  -20.61296 -20.61284 -20.60968 -20.60963 -15.86354
 Alpha  occ. eigenvalues --  -15.86022 -11.32001 -11.31465 -11.28578 -11.28569
 Alpha  occ. eigenvalues --  -11.28458 -11.28035 -11.28023 -11.27826 -11.27713
 Alpha  occ. eigenvalues --  -11.27703 -11.27076 -11.27004  -1.60361  -1.60041
 Alpha  occ. eigenvalues --   -1.39906  -1.39593  -1.20220  -1.19640  -1.09598
 Alpha  occ. eigenvalues --   -1.09032  -1.05638  -1.05049  -0.96368  -0.95856
 Alpha  occ. eigenvalues --   -0.87034  -0.86460  -0.83173  -0.82679  -0.78143
 Alpha  occ. eigenvalues --   -0.77715  -0.72568  -0.72240  -0.71686  -0.71367
 Alpha  occ. eigenvalues --   -0.71364  -0.70782  -0.65868  -0.65636  -0.65294
 Alpha  occ. eigenvalues --   -0.65078  -0.62949  -0.62422  -0.56208  -0.55605
 Alpha  occ. eigenvalues --   -0.54080  -0.53717  -0.53381  -0.53008  -0.49349
 Alpha  occ. eigenvalues --   -0.49304  -0.49004  -0.48991  -0.45248  -0.44981
 Alpha  occ. eigenvalues --   -0.38241  -0.37646  -0.37241  -0.36649
 Alpha virt. eigenvalues --    0.04310   0.04820   0.10327   0.10999   0.15615
 Alpha virt. eigenvalues --    0.16288   0.19905   0.21760   0.26213   0.26495
 Alpha virt. eigenvalues --    0.27932   0.28476   0.29998   0.31246   0.31963

 Mulliken charges:
               1
     1  C   -0.185716
     2  C   -0.217222
     3  C   -0.169182
     4  C    0.160879
     5  C   -0.170067
     6  C   -0.222483
     7  H    0.225137
     8  H    0.224771
     9  H    0.278944
    10  H    0.281171
    11  H    0.227772
    12  N    0.487898
    13  O   -0.456008
    14  O   -0.458063
    15  C   -0.174092
    16  C   -0.217882
    17  C   -0.171050
    18  C    0.159780
    19  C   -0.174723
    20  C   -0.222931
    21  H    0.221872
    22  H    0.223765
    23  H    0.276580
    24  H    0.274286
    25  H    0.227620
    26  N    0.488089
    27  O   -0.459714
    28  O   -0.459431
 Sum of Mulliken charges =  -0.00000

 Dipole moment (field-independent basis, Debye):
    X=             -0.6006    Y=              8.6657    Z=              1.3821  Tot=              8.7957
 Quadrupole moment (field-independent basis, Debye-Ang):
   XX=           -129.4028   YY=           -107.7813   ZZ=           -101.7788
   XY=             -3.4030   XZ=             10.7227   YZ=             -3.8015

 Normal termination of Gaussian 16 at Fri May  7 12:38:59 2021.
