 Gaussian 16, Revision A.03,
 Gaussian 16:  EM64L-G16RevA.03 25-Dec-2016

 -------------
 #p 6-31g* mp2
 -------------

 ------------------------------------------------------
 Input file generated by CHIRIPA (05-May-2021 14:53:17)
 ------------------------------------------------------
 Symbolic Z-matrix:
 Charge =  0 Multiplicity = 1

                         Standard orientation:
 ---------------------------------------------------------------------
 Center     Atomic      Atomic             Coordinates (Angstroms)
 Number     Number       Type             X           Y           Z
 ---------------------------------------------------------------------
      1          6           0        4.571790   -0.091117    0.152231
      2          6           0        4.779878    1.345686   -0.327644
      3          6           0        6.225437    1.818161   -0.169774
      4          1           0        4.870275   -0.165565    1.206892
      5          1           0        5.240035   -0.758354   -0.409586
      6          1           0        4.110446    2.009835    0.233945
      7          1           0        4.480683    1.416766   -1.381231
      8          1           0        6.904372    1.179460   -0.743977
      9          1           0        6.532031    1.775899    0.880376
     10          1           0        6.351682    2.847745   -0.518884
     11          6           0        3.131677   -0.577821    0.000833
     12          6           0        2.923589   -2.014624    0.480708
     13          6           0        1.478030   -2.487099    0.322838
     14          1           0        2.463432    0.089416    0.562650
     15          1           0        2.833192   -0.503373   -1.053827
     16          1           0        3.222784   -2.085704    1.534295
     17          1           0        3.593021   -2.678773   -0.080881
     18          1           0        1.171436   -2.444837   -0.727312
     19          1           0        0.799095   -1.848398    0.897041
     20          1           0        1.351785   -3.516683    0.671948
     21          6           0       -3.149316    2.763993    0.228010
     22          6           0       -4.307674    1.984126    0.308854
     23          6           0       -4.241883    0.596576    0.150980
     24          6           0       -2.995618    0.019353   -0.087614
     25          6           0       -1.823674    0.769318   -0.173587
     26          6           0       -1.913193    2.155174   -0.012529
     27          1           0       -3.209639    3.841217    0.351887
     28          1           0       -5.269022    2.454228    0.495560
     29          1           0       -5.122900   -0.031027    0.208779
     30          1           0       -0.879667    0.272085   -0.360738
     31          1           0       -1.011946    2.758328   -0.075814
     32          7           0       -2.913408   -1.448687   -0.256434
     33          8           0       -1.803365   -1.933064   -0.465763
     34          8           0       -3.960573   -2.087162   -0.176228
 ---------------------------------------------------------------------

 SCF Done:  E(RHF) =  -669.535530770     A.U. after   15 cycles
 E2 =    -0.2091553314D+01 EUMP2 =    -0.67162708408447D+03

 The electronic state is 1-A.
 Alpha  occ. eigenvalues --  -20.60785 -20.60780 -15.85824 -11.31192 -11.27765
 Alpha  occ. eigenvalues --  -11.27745 -11.27510 -11.26782 -11.26769 -11.21723
 Alpha  occ. eigenvalues --  -11.21377 -11.21308 -11.21173 -11.21112 -11.20107
 Alpha  occ. eigenvalues --   -1.59857  -1.39411  -1.19367  -1.08764  -1.08318
 Alpha  occ. eigenvalues --   -1.04768  -1.03289  -0.95726  -0.95573  -0.86707
 Alpha  occ. eigenvalues --   -0.86167  -0.82430  -0.79372  -0.78145  -0.77449
 Alpha  occ. eigenvalues --   -0.72045  -0.71177  -0.70474  -0.65021  -0.64958
 Alpha  occ. eigenvalues --   -0.64770  -0.62116  -0.60686  -0.59140  -0.57315
 Alpha  occ. eigenvalues --   -0.55273  -0.54984  -0.53101  -0.52862  -0.52353
 Alpha  occ. eigenvalues --   -0.52115  -0.49657  -0.48825  -0.48807  -0.47619
 Alpha  occ. eigenvalues --   -0.46433  -0.45653  -0.45584  -0.44763  -0.43559
 Alpha  occ. eigenvalues --   -0.37351  -0.36373
 Alpha virt. eigenvalues --    0.05031   0.11262   0.16520   0.20774   0.22919
 Alpha virt. eigenvalues --    0.23939   0.26251   0.26939   0.27649   0.27987
 Alpha virt. eigenvalues --    0.29264   0.31005   0.31565   0.31819   0.32491

 Mulliken charges:
               1
     1  C   -0.297495
     2  C   -0.299107
     3  C   -0.475500
     4  H    0.149991
     5  H    0.151125
     6  H    0.147675
     7  H    0.151124
     8  H    0.156368
     9  H    0.155493
    10  H    0.159077
    11  C   -0.297597
    12  C   -0.302342
    13  C   -0.470445
    14  H    0.141151
    15  H    0.148480
    16  H    0.149315
    17  H    0.150926
    18  H    0.162815
    19  H    0.154817
    20  H    0.162253
    21  C   -0.170686
    22  C   -0.218670
    23  C   -0.170831
    24  C    0.157597
    25  C   -0.173834
    26  C   -0.219271
    27  H    0.225600
    28  H    0.223431
    29  H    0.275557
    30  H    0.279773
    31  H    0.223990
    32  N    0.491564
    33  O   -0.462002
    34  O   -0.460342
 Sum of Mulliken charges =  -0.00000

 Dipole moment (field-independent basis, Debye):
    X=             -0.4019    Y=              5.0347    Z=              0.5573  Tot=              5.0814
 Quadrupole moment (field-independent basis, Debye-Ang):
   XX=            -89.4021   YY=            -94.9629   ZZ=            -94.8424
   XY=            -15.9709   XZ=             -2.8949   YZ=             -0.0977

 Normal termination of Gaussian 16 at Thu May  6 09:08:14 2021.
