 Gaussian 16, Revision A.03,
 Gaussian 16:  EM64L-G16RevA.03 25-Dec-2016

 -------------
 #p 6-31g* mp2
 -------------

 ------------------------------------------------------
 Input file generated by CHIRIPA (05-May-2021 14:53:15)
 ------------------------------------------------------
 Symbolic Z-matrix:
 Charge =  0 Multiplicity = 1

                         Standard orientation:
 ---------------------------------------------------------------------
 Center     Atomic      Atomic             Coordinates (Angstroms)
 Number     Number       Type             X           Y           Z
 ---------------------------------------------------------------------
      1          6           0        2.651176   -0.776689    0.135109
      2          6           0        2.353581   -2.229968   -0.235567
      3          6           0        0.954886   -2.674803    0.192880
      4          1           0        2.541887   -0.652204    1.221159
      5          1           0        1.899259   -0.125247   -0.331409
      6          1           0        3.106647   -2.878352    0.230380
      7          1           0        2.463778   -2.351052   -1.320837
      8          1           0        0.190103   -2.052257   -0.282667
      9          1           0        0.836624   -2.582553    1.277364
     10          1           0        0.763234   -3.716743   -0.081877
     11          6           0        4.045729   -0.317282   -0.286668
     12          6           0        4.343324    1.135998    0.084008
     13          6           0        5.742019    1.580832   -0.344440
     14          1           0        4.797646   -0.968724    0.179850
     15          1           0        4.155018   -0.441767   -1.372718
     16          1           0        4.233126    1.257081    1.169278
     17          1           0        3.590258    1.784381   -0.381939
     18          1           0        5.860281    1.488582   -1.428924
     19          1           0        6.506802    0.958286    0.131108
     20          1           0        5.933671    2.622772   -0.069683
     21          6           0       -3.206222   -2.019526   -0.115204
     22          6           0       -2.417710   -1.563595    0.946350
     23          6           0       -2.084474   -0.210037    1.053025
     24          6           0       -2.558916    0.663885    0.076064
     25          6           0       -3.346367    0.240228   -0.993386
     26          6           0       -3.667222   -1.117749   -1.079983
     27          1           0       -3.460280   -3.072719   -0.190273
     28          1           0       -2.058292   -2.261658    1.697065
     29          1           0       -1.475654    0.169927    1.864435
     30          1           0       -3.689901    0.960007   -1.726408
     31          1           0       -4.279761   -1.469001   -1.905490
     32          7           0       -2.212687    2.099176    0.178368
     33          8           0       -2.643126    2.848911   -0.695277
     34          8           0       -1.517430    2.447244    1.130262
 ---------------------------------------------------------------------

 SCF Done:  E(RHF) =  -669.534902517     A.U. after   15 cycles
 E2 =    -0.2092330612D+01 EUMP2 =    -0.67162723312945D+03

 The electronic state is 1-A.
 Alpha  occ. eigenvalues --  -20.60780 -20.60775 -15.85832 -11.31202 -11.27747
 Alpha  occ. eigenvalues --  -11.27727 -11.27476 -11.26783 -11.26739 -11.21787
 Alpha  occ. eigenvalues --  -11.21424 -11.21417 -11.21386 -11.21297 -11.20871
 Alpha  occ. eigenvalues --   -1.59856  -1.39408  -1.19370  -1.08762  -1.08432
 Alpha  occ. eigenvalues --   -1.04770  -1.03555  -0.96032  -0.95594  -0.87069
 Alpha  occ. eigenvalues --   -0.86151  -0.82424  -0.79635  -0.78218  -0.77467
 Alpha  occ. eigenvalues --   -0.72048  -0.71180  -0.70459  -0.65064  -0.65012
 Alpha  occ. eigenvalues --   -0.64761  -0.62110  -0.60959  -0.59415  -0.57643
 Alpha  occ. eigenvalues --   -0.55357  -0.55253  -0.53297  -0.52876  -0.52702
 Alpha  occ. eigenvalues --   -0.52288  -0.49961  -0.48809  -0.48804  -0.47934
 Alpha  occ. eigenvalues --   -0.46646  -0.45771  -0.45667  -0.44811  -0.43809
 Alpha  occ. eigenvalues --   -0.37337  -0.36288
 Alpha virt. eigenvalues --    0.05052   0.11236   0.16537   0.21017   0.22863
 Alpha virt. eigenvalues --    0.24232   0.26009   0.26918   0.27547   0.28372
 Alpha virt. eigenvalues --    0.28591   0.30295   0.31619   0.31834   0.32238

 Mulliken charges:
               1
     1  C   -0.298720
     2  C   -0.299136
     3  C   -0.480663
     4  H    0.148550
     5  H    0.152457
     6  H    0.151528
     7  H    0.152592
     8  H    0.164253
     9  H    0.146622
    10  H    0.156136
    11  C   -0.298465
    12  C   -0.300407
    13  C   -0.475922
    14  H    0.148472
    15  H    0.149438
    16  H    0.152809
    17  H    0.156563
    18  H    0.154691
    19  H    0.153795
    20  H    0.161859
    21  C   -0.171974
    22  C   -0.214236
    23  C   -0.171577
    24  C    0.158142
    25  C   -0.171943
    26  C   -0.218438
    27  H    0.225963
    28  H    0.225547
    29  H    0.275877
    30  H    0.275427
    31  H    0.223466
    32  N    0.487964
    33  O   -0.460565
    34  O   -0.460102
 Sum of Mulliken charges =  -0.00000

 Dipole moment (field-independent basis, Debye):
    X=             -1.2379    Y=             -4.9838    Z=             -0.3791  Tot=              5.1492
 Quadrupole moment (field-independent basis, Debye-Ang):
   XX=            -88.6003   YY=           -102.3445   ZZ=            -90.8323
   XY=             11.5477   XZ=              3.8652   YZ=             -1.6157

 Normal termination of Gaussian 16 at Thu May  6 18:50:49 2021.
