 Gaussian 16, Revision A.03,
 Gaussian 16:  EM64L-G16RevA.03 25-Dec-2016

 -------------
 #p 6-31g* mp2
 -------------

 ------------------------------------------------------
 Input file generated by CHIRIPA (05-May-2021 14:57:20)
 ------------------------------------------------------
 Symbolic Z-matrix:
 Charge =  0 Multiplicity = 1

                         Standard orientation:
 ---------------------------------------------------------------------
 Center     Atomic      Atomic             Coordinates (Angstroms)
 Number     Number       Type             X           Y           Z
 ---------------------------------------------------------------------
      1          6           0       -6.329053    0.052306   -0.371237
      2          6           0       -5.735291   -1.211931   -0.295935
      3          6           0       -4.366816   -1.339522   -0.039916
      4          6           0       -3.618688   -0.176568    0.136532
      5          6           0       -4.181174    1.097059    0.067445
      6          6           0       -5.551471    1.200742   -0.189627
      7          1           0       -7.392824    0.142136   -0.570528
      8          1           0       -6.336711   -2.105555   -0.436560
      9          1           0       -3.881473   -2.305867    0.023621
     10          1           0       -3.555728    1.969605    0.212008
     11          1           0       -6.009903    2.183864   -0.247559
     12          7           0       -2.168981   -0.298987    0.408126
     13          8           0       -1.531764    0.740994    0.559878
     14          8           0       -1.697369   -1.432603    0.464105
     15          6           0        5.370320   -1.862607   -0.055768
     16          6           0        5.914272   -0.578387    0.051090
     17          6           0        5.085654    0.547485    0.032299
     18          6           0        3.711375    0.351581   -0.095251
     19          6           0        3.139290   -0.915007   -0.203708
     20          6           0        3.987005   -2.026529   -0.182602
     21          1           0        6.021428   -2.731638   -0.040271
     22          1           0        6.988208   -0.448069    0.149700
     23          1           0        5.480173    1.553078    0.113266
     24          1           0        2.064885   -1.013159   -0.300857
     25          1           0        3.561779   -3.022676   -0.265774
     26          7           0        2.824046    1.535896   -0.116370
     27          8           0        1.616557    1.336495   -0.229714
     28          8           0        3.352848    2.641137   -0.019179
 ---------------------------------------------------------------------

 SCF Done:  E(RHF) =  -868.336739472     A.U. after   16 cycles
 E2 =    -0.2599907397D+01 EUMP2 =    -0.87093664686932D+03

 The electronic state is 1-A.
 Alpha  occ. eigenvalues --  -20.60296 -20.60161 -20.59528 -20.59401 -15.85263
 Alpha  occ. eigenvalues --  -15.84506 -11.30787 -11.30096 -11.27410 -11.27334
 Alpha  occ. eigenvalues --  -11.27160 -11.26771 -11.26591 -11.26554 -11.26451
 Alpha  occ. eigenvalues --  -11.26405 -11.25839 -11.25745  -1.59296  -1.58554
 Alpha  occ. eigenvalues --   -1.38842  -1.38089  -1.18978  -1.18312  -1.08347
 Alpha  occ. eigenvalues --   -1.07683  -1.04403  -1.03739  -0.95153  -0.94465
 Alpha  occ. eigenvalues --   -0.85794  -0.85132  -0.81982  -0.81278  -0.77004
 Alpha  occ. eigenvalues --   -0.76280  -0.71501  -0.70724  -0.70573  -0.70088
 Alpha  occ. eigenvalues --   -0.69893  -0.69422  -0.64626  -0.64410  -0.63954
 Alpha  occ. eigenvalues --   -0.63753  -0.61746  -0.61062  -0.54907  -0.54273
 Alpha  occ. eigenvalues --   -0.52727  -0.52497  -0.52078  -0.51830  -0.48289
 Alpha  occ. eigenvalues --   -0.48215  -0.47521  -0.47450  -0.44207  -0.43439
 Alpha  occ. eigenvalues --   -0.36973  -0.36339  -0.36014  -0.35357
 Alpha virt. eigenvalues --    0.05532   0.06238   0.11637   0.12289   0.16989
 Alpha virt. eigenvalues --    0.17668   0.21748   0.22385   0.27650   0.28288
 Alpha virt. eigenvalues --    0.28663   0.29352   0.31280   0.31896   0.32934

 Mulliken charges:
               1
     1  C   -0.171351
     2  C   -0.218648
     3  C   -0.171627
     4  C    0.158502
     5  C   -0.170867
     6  C   -0.218733
     7  H    0.224227
     8  H    0.221456
     9  H    0.272993
    10  H    0.279752
    11  H    0.223336
    12  N    0.487268
    13  O   -0.442645
    14  O   -0.472444
    15  C   -0.171861
    16  C   -0.219334
    17  C   -0.172068
    18  C    0.156969
    19  C   -0.173042
    20  C   -0.219914
    21  H    0.221640
    22  H    0.219360
    23  H    0.272753
    24  H    0.289779
    25  H    0.222580
    26  N    0.486817
    27  O   -0.445137
    28  O   -0.469759
 Sum of Mulliken charges =  -0.00000

 Dipole moment (field-independent basis, Debye):
    X=             -2.2688    Y=             -3.5729    Z=             -0.8635  Tot=              4.3196
 Quadrupole moment (field-independent basis, Debye-Ang):
   XX=            -45.1803   YY=           -102.0218   ZZ=           -106.8838
   XY=            -12.6698   XZ=              3.3122   YZ=              1.3241

 Normal termination of Gaussian 16 at Thu May  6 12:46:50 2021.
