 Gaussian 16, Revision A.03,
 Gaussian 16:  EM64L-G16RevA.03 25-Dec-2016

 -------------
 #p 6-31g* mp2
 -------------

 ------------------------------------------------------
 Input file generated by CHIRIPA (05-May-2021 14:53:12)
 ------------------------------------------------------
 Symbolic Z-matrix:
 Charge =  0 Multiplicity = 1

                         Standard orientation:
 ---------------------------------------------------------------------
 Center     Atomic      Atomic             Coordinates (Angstroms)
 Number     Number       Type             X           Y           Z
 ---------------------------------------------------------------------
      1          6           0       -3.386100    0.894397   -0.183559
      2          6           0       -3.973787    2.123691    0.510302
      3          6           0       -3.331944    3.430083    0.042142
      4          1           0       -2.303661    0.859523    0.000982
      5          1           0       -3.514788    0.998569   -1.269829
      6          1           0       -3.845267    2.016589    1.595027
      7          1           0       -5.054984    2.155537    0.324248
      8          1           0       -3.472258    3.563755   -1.035376
      9          1           0       -2.255668    3.424017    0.242623
     10          1           0       -3.766936    4.295991    0.550911
     11          6           0       -4.017572   -0.419252    0.273935
     12          6           0       -3.429884   -1.648546   -0.419926
     13          6           0       -4.071727   -2.954937    0.048234
     14          1           0       -3.888883   -0.523424    1.360204
     15          1           0       -5.100010   -0.384378    0.089394
     16          1           0       -2.348688   -1.680392   -0.233872
     17          1           0       -3.558404   -1.541444   -1.504651
     18          1           0       -5.148004   -2.948872   -0.152248
     19          1           0       -3.931414   -3.088610    1.125751
     20          1           0       -3.636736   -3.820846   -0.460535
     21          6           0        1.669061   -2.392380   -0.016917
     22          6           0        3.010308   -2.332098    0.375439
     23          6           0        3.697882   -1.114827    0.369191
     24          6           0        3.010294    0.027739   -0.037081
     25          6           0        1.674145    0.000042   -0.433602
     26          6           0        1.006429   -1.228170   -0.419477
     27          1           0        1.142651   -3.342235   -0.009004
     28          1           0        3.527452   -3.234633    0.688552
     29          1           0        4.736379   -1.039603    0.667993
     30          1           0        1.185326    0.916657   -0.740667
     31          1           0       -0.035185   -1.271991   -0.724704
     32          7           0        3.727686    1.322202   -0.047865
     33          8           0        3.099384    2.314515   -0.410062
     34          8           0        4.904696    1.319976    0.306084
 ---------------------------------------------------------------------

 SCF Done:  E(RHF) =  -669.535633455     A.U. after   15 cycles
 E2 =    -0.2091326692D+01 EUMP2 =    -0.67162696014656D+03

 The electronic state is 1-A.
 Alpha  occ. eigenvalues --  -20.60749 -20.60744 -15.85802 -11.31166 -11.27738
 Alpha  occ. eigenvalues --  -11.27729 -11.27474 -11.26752 -11.26711 -11.22591
 Alpha  occ. eigenvalues --  -11.22105 -11.22042 -11.21982 -11.21898 -11.21300
 Alpha  occ. eigenvalues --   -1.59825  -1.39378  -1.19338  -1.09110  -1.08733
 Alpha  occ. eigenvalues --   -1.04740  -1.04156  -0.96574  -0.95568  -0.87592
 Alpha  occ. eigenvalues --   -0.86141  -0.82401  -0.80258  -0.78920  -0.77445
 Alpha  occ. eigenvalues --   -0.72020  -0.71148  -0.70446  -0.65771  -0.64989
 Alpha  occ. eigenvalues --   -0.64735  -0.62111  -0.61526  -0.59975  -0.58192
 Alpha  occ. eigenvalues --   -0.55844  -0.55243  -0.53281  -0.53070  -0.53012
 Alpha  occ. eigenvalues --   -0.52827  -0.50514  -0.48796  -0.48776  -0.48531
 Alpha  occ. eigenvalues --   -0.47285  -0.46444  -0.46345  -0.44784  -0.44415
 Alpha  occ. eigenvalues --   -0.37319  -0.36342
 Alpha virt. eigenvalues --    0.05080   0.11270   0.16534   0.19372   0.22765
 Alpha virt. eigenvalues --    0.23520   0.24645   0.26377   0.27355   0.27671
 Alpha virt. eigenvalues --    0.29673   0.30191   0.31133   0.31300   0.31866

 Mulliken charges:
               1
     1  C   -0.298973
     2  C   -0.300287
     3  C   -0.476775
     4  H    0.143584
     5  H    0.150572
     6  H    0.153627
     7  H    0.153301
     8  H    0.155732
     9  H    0.157728
    10  H    0.162918
    11  C   -0.297993
    12  C   -0.305601
    13  C   -0.475626
    14  H    0.151877
    15  H    0.153267
    16  H    0.144269
    17  H    0.154081
    18  H    0.159518
    19  H    0.156947
    20  H    0.158632
    21  C   -0.172891
    22  C   -0.218548
    23  C   -0.171138
    24  C    0.159004
    25  C   -0.173416
    26  C   -0.227090
    27  H    0.225621
    28  H    0.223335
    29  H    0.275528
    30  H    0.276214
    31  H    0.235568
    32  N    0.487999
    33  O   -0.460443
    34  O   -0.460544
 Sum of Mulliken charges =  -0.00000

 Dipole moment (field-independent basis, Debye):
    X=             -2.7235    Y=             -4.5001    Z=              0.0729  Tot=              5.2606
 Quadrupole moment (field-independent basis, Debye-Ang):
   XX=           -105.4958   YY=            -95.1971   ZZ=            -94.5250
   XY=            -16.6268   XZ=              2.3054   YZ=             -0.5281

 Normal termination of Gaussian 16 at Thu May  6 05:44:31 2021.
