 Gaussian 16, Revision A.03,
 Gaussian 16:  EM64L-G16RevA.03 25-Dec-2016

 -------------
 #p 6-31g* mp2
 -------------

 ------------------------------------------------------
 Input file generated by CHIRIPA (05-May-2021 14:51:09)
 ------------------------------------------------------
 Symbolic Z-matrix:
 Charge =  0 Multiplicity = 1

                         Standard orientation:
 ---------------------------------------------------------------------
 Center     Atomic      Atomic             Coordinates (Angstroms)
 Number     Number       Type             X           Y           Z
 ---------------------------------------------------------------------
      1          6           0        2.598918   -0.554769    0.277268
      2          6           0        2.385935   -1.318382    1.584754
      3          6           0        1.094694   -2.137212    1.587521
      4          1           0        1.741314    0.109705    0.104253
      5          1           0        2.614615   -1.268739   -0.557835
      6          1           0        2.372028   -0.603321    2.417287
      7          1           0        3.244236   -1.980974    1.754774
      8          1           0        1.103048   -2.872470    0.776394
      9          1           0        0.225884   -1.486989    1.442672
     10          1           0        0.962351   -2.674974    2.531532
     11          6           0        3.885613    0.268529    0.259225
     12          6           0        4.098596    1.032141   -1.048261
     13          6           0        5.389837    1.850971   -1.051028
     14          1           0        3.869916    0.982498    1.094328
     15          1           0        4.743217   -0.395946    0.432240
     16          1           0        3.240295    1.694733   -1.218280
     17          1           0        4.112503    0.317080   -1.880794
     18          1           0        6.258647    1.200748   -0.906179
     19          1           0        5.381483    2.586229   -0.239901
     20          1           0        5.522180    2.388733   -1.995039
     21          6           0       -3.040445    0.813017    0.038248
     22          6           0       -4.216288    1.771871    0.227926
     23          6           0       -3.796607    3.107730    0.842044
     24          1           0       -2.559144    0.636426    1.009901
     25          1           0       -2.286105    1.291067   -0.601935
     26          1           0       -4.968806    1.291616    0.866430
     27          1           0       -4.694964    1.946048   -0.744261
     28          1           0       -3.062869    3.611301    0.204357
     29          1           0       -3.338266    2.953149    1.824200
     30          1           0       -4.652581    3.777879    0.968801
     31          6           0       -3.444086   -0.526776   -0.574742
     32          6           0       -2.268243   -1.485629   -0.764419
     33          6           0       -2.687924   -2.821489   -1.378538
     34          1           0       -4.198426   -1.004826    0.065442
     35          1           0       -3.925388   -0.350185   -1.546396
     36          1           0       -1.789567   -1.659808    0.207768
     37          1           0       -1.515726   -1.005375   -1.402924
     38          1           0       -3.146265   -2.666909   -2.360694
     39          1           0       -3.421662   -3.325060   -0.740851
     40          1           0       -1.831950   -3.491639   -1.505295
 ---------------------------------------------------------------------

 SCF Done:  E(RHF) =  -470.733190477     A.U. after   11 cycles
 E2 =    -0.1582747825D+01 EUMP2 =    -0.47231593830196D+03

 The electronic state is 1-A.
 Alpha  occ. eigenvalues --  -11.21615 -11.21598 -11.21590 -11.21519 -11.21411
 Alpha  occ. eigenvalues --  -11.21390 -11.21336 -11.21330 -11.21089 -11.21068
 Alpha  occ. eigenvalues --  -11.21041 -11.21027  -1.08431  -1.08409  -1.03541
 Alpha  occ. eigenvalues --   -1.03492  -0.95985  -0.95953  -0.87011  -0.86963
 Alpha  occ. eigenvalues --   -0.79673  -0.79500  -0.78291  -0.78171  -0.65084
 Alpha  occ. eigenvalues --   -0.65022  -0.60987  -0.60853  -0.59384  -0.59296
 Alpha  occ. eigenvalues --   -0.57659  -0.57497  -0.55286  -0.55234  -0.52673
 Alpha  occ. eigenvalues --   -0.52661  -0.52436  -0.52360  -0.49995  -0.49852
 Alpha  occ. eigenvalues --   -0.48107  -0.47731  -0.46723  -0.46504  -0.45925
 Alpha  occ. eigenvalues --   -0.45716  -0.45703  -0.45469  -0.43776  -0.43768
 Alpha virt. eigenvalues --    0.21755   0.23125   0.23700   0.24650   0.25472
 Alpha virt. eigenvalues --    0.26275   0.26908   0.27677   0.28128   0.29091
 Alpha virt. eigenvalues --    0.30821   0.31285   0.31577   0.31955   0.32324

 Mulliken charges:
               1
     1  C   -0.298472
     2  C   -0.299535
     3  C   -0.480058
     4  H    0.150398
     5  H    0.149374
     6  H    0.151728
     7  H    0.151782
     8  H    0.155299
     9  H    0.160020
    10  H    0.159702
    11  C   -0.298291
    12  C   -0.299622
    13  C   -0.475694
    14  H    0.149533
    15  H    0.149590
    16  H    0.151853
    17  H    0.151845
    18  H    0.155178
    19  H    0.155217
    20  H    0.160183
    21  C   -0.298621
    22  C   -0.299551
    23  C   -0.475735
    24  H    0.148775
    25  H    0.149236
    26  H    0.152086
    27  H    0.152167
    28  H    0.155040
    29  H    0.155053
    30  H    0.160372
    31  C   -0.297858
    32  C   -0.306167
    33  C   -0.475258
    34  H    0.149388
    35  H    0.149505
    36  H    0.159781
    37  H    0.151788
    38  H    0.154786
    39  H    0.154978
    40  H    0.160207
 Sum of Mulliken charges =  -0.00000

 Dipole moment (field-independent basis, Debye):
    X=             -0.0023    Y=             -0.0068    Z=              0.0046  Tot=              0.0085
 Quadrupole moment (field-independent basis, Debye-Ang):
   XX=            -85.3958   YY=            -85.4556   ZZ=            -84.0057
   XY=             -1.0701   XZ=             -0.3110   YZ=             -0.3970

 Normal termination of Gaussian 16 at Thu May  6 06:55:49 2021.
