 Gaussian 16, Revision A.03,
 Gaussian 16:  EM64L-G16RevA.03 25-Dec-2016

 -------------
 #p 6-31g* mp2
 -------------

 ------------------------------------------------------
 Input file generated by CHIRIPA (05-May-2021 14:53:13)
 ------------------------------------------------------
 Symbolic Z-matrix:
 Charge =  0 Multiplicity = 1

                         Standard orientation:
 ---------------------------------------------------------------------
 Center     Atomic      Atomic             Coordinates (Angstroms)
 Number     Number       Type             X           Y           Z
 ---------------------------------------------------------------------
      1          6           0        2.876431    0.471193    0.371986
      2          6           0        3.458162    1.868423    0.154452
      3          6           0        3.072869    2.848362    1.263084
      4          1           0        1.782023    0.542526    0.436239
      5          1           0        3.221876    0.084539    1.340779
      6          1           0        3.112839    2.251763   -0.814267
      7          1           0        4.551300    1.793731    0.090518
      8          1           0        3.431372    2.491814    2.234140
      9          1           0        1.984738    2.952449    1.324214
     10          1           0        3.499300    3.840947    1.087608
     11          6           0        3.252820   -0.519746   -0.728059
     12          6           0        2.671089   -1.916977   -0.510526
     13          6           0        3.056382   -2.896916   -1.619157
     14          1           0        2.907375   -0.133092   -1.696853
     15          1           0        4.347228   -0.591079   -0.792313
     16          1           0        1.577952   -1.842285   -0.446591
     17          1           0        3.016413   -2.300317    0.458194
     18          1           0        4.144514   -3.001003   -1.680288
     19          1           0        2.697879   -2.540368   -2.590213
     20          1           0        2.629951   -3.889501   -1.443681
     21          6           0       -3.042648    1.703285   -1.624020
     22          6           0       -1.848348    1.859016   -0.912742
     23          6           0       -1.479022    0.931934    0.066372
     24          6           0       -2.331553   -0.143867    0.309543
     25          6           0       -3.527939   -0.326467   -0.382274
     26          6           0       -3.877160    0.612963   -1.356986
     27          1           0       -3.321740    2.428260   -2.382910
     28          1           0       -1.198304    2.704803   -1.118008
     29          1           0       -0.560148    1.028283    0.631885
     30          1           0       -4.155385   -1.179834   -0.155355
     31          1           0       -4.805268    0.489482   -1.907815
     32          7           0       -1.951206   -1.131863    1.343757
     33          8           0       -2.719636   -2.070995    1.539162
     34          8           0       -0.891862   -0.948415    1.939385
 ---------------------------------------------------------------------

 SCF Done:  E(RHF) =  -669.535549402     A.U. after   15 cycles
 E2 =    -0.2092101988D+01 EUMP2 =    -0.67162765139058D+03

 The electronic state is 1-A.
 Alpha  occ. eigenvalues --  -20.60838 -20.60829 -15.85876 -11.31247 -11.27811
 Alpha  occ. eigenvalues --  -11.27803 -11.27555 -11.26834 -11.26824 -11.21743
 Alpha  occ. eigenvalues --  -11.21344 -11.21310 -11.21246 -11.21174 -11.20765
 Alpha  occ. eigenvalues --   -1.59902  -1.39456  -1.19419  -1.08813  -1.08345
 Alpha  occ. eigenvalues --   -1.04824  -1.03445  -0.95914  -0.95647  -0.86931
 Alpha  occ. eigenvalues --   -0.86222  -0.82477  -0.79503  -0.78128  -0.77508
 Alpha  occ. eigenvalues --   -0.72093  -0.71221  -0.70535  -0.65077  -0.65069
 Alpha  occ. eigenvalues --   -0.64765  -0.62177  -0.60848  -0.59285  -0.57494
 Alpha  occ. eigenvalues --   -0.55348  -0.55205  -0.53150  -0.52932  -0.52604
 Alpha  occ. eigenvalues --   -0.52317  -0.49879  -0.48858  -0.48854  -0.47810
 Alpha  occ. eigenvalues --   -0.46551  -0.45674  -0.45579  -0.44803  -0.43694
 Alpha  occ. eigenvalues --   -0.37398  -0.36421
 Alpha virt. eigenvalues --    0.04976   0.11163   0.16490   0.19686   0.23039
 Alpha virt. eigenvalues --    0.24030   0.25493   0.27228   0.27654   0.28067
 Alpha virt. eigenvalues --    0.29362   0.31002   0.31460   0.31857   0.32155

 Mulliken charges:
               1
     1  C   -0.301979
     2  C   -0.300397
     3  C   -0.473988
     4  H    0.148801
     5  H    0.156672
     6  H    0.146605
     7  H    0.154086
     8  H    0.160563
     9  H    0.146707
    10  H    0.159950
    11  C   -0.298507
    12  C   -0.299092
    13  C   -0.476208
    14  H    0.145210
    15  H    0.149335
    16  H    0.155869
    17  H    0.156862
    18  H    0.153723
    19  H    0.152003
    20  H    0.162514
    21  C   -0.170651
    22  C   -0.220915
    23  C   -0.177889
    24  C    0.157283
    25  C   -0.170391
    26  C   -0.218559
    27  H    0.225894
    28  H    0.223873
    29  H    0.286166
    30  H    0.275804
    31  H    0.223740
    32  N    0.487225
    33  O   -0.459760
    34  O   -0.460547
 Sum of Mulliken charges =  -0.00000

 Dipole moment (field-independent basis, Debye):
    X=             -1.3328    Y=              3.3704    Z=             -3.5380  Tot=              5.0649
 Quadrupole moment (field-independent basis, Debye-Ang):
   XX=            -84.1933   YY=            -95.6791   ZZ=            -97.8638
   XY=             -5.7470   XZ=             10.1925   YZ=              1.2134

 Normal termination of Gaussian 16 at Wed May  5 15:31:24 2021.
