 Gaussian 16, Revision A.03,
 Gaussian 16:  EM64L-G16RevA.03 25-Dec-2016

 -------------
 #p 6-31g* mp2
 -------------

 ------------------------------------------------------
 Input file generated by CHIRIPA (05-May-2021 14:55:21)
 ------------------------------------------------------
 Symbolic Z-matrix:
 Charge =  0 Multiplicity = 1

                         Standard orientation:
 ---------------------------------------------------------------------
 Center     Atomic      Atomic             Coordinates (Angstroms)
 Number     Number       Type             X           Y           Z
 ---------------------------------------------------------------------
      1          6           0       -3.662817   -1.930138    1.222499
      2          6           0       -4.361957   -1.502615    0.088944
      3          6           0       -3.857258   -0.472186   -0.709831
      4          6           0       -2.645126    0.111089   -0.344021
      5          6           0       -1.925104   -0.292685    0.779289
      6          6           0       -2.448762   -1.324876    1.563453
      7          1           0       -4.062243   -2.731285    1.837332
      8          1           0       -5.305043   -1.970842   -0.178260
      9          1           0       -4.377818   -0.121642   -1.592755
     10          1           0       -0.987465    0.193328    1.020206
     11          1           0       -1.903631   -1.654845    2.443224
     12          7           0       -2.100788    1.202891   -1.181914
     13          8           0       -1.030809    1.700495   -0.838153
     14          8           0       -2.754423    1.540368   -2.166550
     15          6           0        3.726867   -0.628691    0.127950
     16          6           0        4.733420   -0.740321   -1.017640
     17          6           0        5.176609   -2.180512   -1.276927
     18          1           0        4.172329   -1.046780    1.041027
     19          1           0        2.848794   -1.247553   -0.103119
     20          1           0        5.608732   -0.120341   -0.785113
     21          1           0        4.285581   -0.321743   -1.928051
     22          1           0        4.316915   -2.807779   -1.533949
     23          1           0        5.647583   -2.605233   -0.384516
     24          1           0        5.896022   -2.237200   -2.099783
     25          6           0        3.274321    0.804956    0.399222
     26          6           0        2.267769    0.916586    1.544811
     27          6           0        1.824579    2.356776    1.804098
     28          1           0        4.152395    1.423818    0.630290
     29          1           0        2.828860    1.223045   -0.513856
     30          1           0        2.715608    0.498007    2.455222
     31          1           0        1.392457    0.296606    1.312284
     32          1           0        1.353605    2.781497    0.911688
     33          1           0        2.684274    2.984044    2.061120
     34          1           0        1.105167    2.413465    2.626954
 ---------------------------------------------------------------------

 SCF Done:  E(RHF) =  -669.535874700     A.U. after   15 cycles
 E2 =    -0.2091793524D+01 EUMP2 =    -0.67162766822412D+03

 The electronic state is 1-A.
 Alpha  occ. eigenvalues --  -20.60871 -20.60863 -15.85917 -11.31231 -11.27800
 Alpha  occ. eigenvalues --  -11.27772 -11.27537 -11.26809 -11.26793 -11.21474
 Alpha  occ. eigenvalues --  -11.21358 -11.21163 -11.21007 -11.20905 -11.20570
 Alpha  occ. eigenvalues --   -1.59938  -1.39493  -1.19402  -1.08808  -1.08164
 Alpha  occ. eigenvalues --   -1.04799  -1.03270  -0.95703  -0.95633  -0.86699
 Alpha  occ. eigenvalues --   -0.86201  -0.82484  -0.79355  -0.77997  -0.77535
 Alpha  occ. eigenvalues --   -0.72143  -0.71256  -0.70519  -0.65062  -0.64905
 Alpha  occ. eigenvalues --   -0.64690  -0.62180  -0.60620  -0.59078  -0.57324
 Alpha  occ. eigenvalues --   -0.55310  -0.54929  -0.53132  -0.52893  -0.52402
 Alpha  occ. eigenvalues --   -0.52111  -0.49595  -0.48892  -0.48881  -0.47662
 Alpha  occ. eigenvalues --   -0.46373  -0.45538  -0.45422  -0.44903  -0.43524
 Alpha  occ. eigenvalues --   -0.37384  -0.36399
 Alpha virt. eigenvalues --    0.04982   0.11233   0.16490   0.20254   0.23083
 Alpha virt. eigenvalues --    0.24030   0.26152   0.27354   0.27836   0.28119
 Alpha virt. eigenvalues --    0.29204   0.30937   0.31528   0.31975   0.32181

 Mulliken charges:
               1
     1  C   -0.170429
     2  C   -0.218974
     3  C   -0.170005
     4  C    0.156972
     5  C   -0.180541
     6  C   -0.222120
     7  H    0.225848
     8  H    0.223609
     9  H    0.275633
    10  H    0.291475
    11  H    0.224238
    12  N    0.489357
    13  O   -0.464481
    14  O   -0.459537
    15  C   -0.298002
    16  C   -0.300024
    17  C   -0.475537
    18  H    0.146731
    19  H    0.147501
    20  H    0.151790
    21  H    0.155238
    22  H    0.154325
    23  H    0.153654
    24  H    0.160310
    25  C   -0.299929
    26  C   -0.300048
    27  C   -0.481662
    28  H    0.149087
    29  H    0.161479
    30  H    0.148012
    31  H    0.141877
    32  H    0.177809
    33  H    0.153475
    34  H    0.152870
 Sum of Mulliken charges =  -0.00000

 Dipole moment (field-independent basis, Debye):
    X=             -1.9652    Y=             -3.7187    Z=              2.8075  Tot=              5.0570
 Quadrupole moment (field-independent basis, Debye-Ang):
   XX=            -81.3767   YY=            -97.0721   ZZ=            -95.3938
   XY=             11.3880   XZ=             -4.1641   YZ=              1.4385

 Normal termination of Gaussian 16 at Thu May  6 20:44:48 2021.
