 Gaussian 16, Revision A.03,
 Gaussian 16:  EM64L-G16RevA.03 25-Dec-2016

 -------------
 #p 6-31g* mp2
 -------------

 ------------------------------------------------------
 Input file generated by CHIRIPA (05-May-2021 14:57:27)
 ------------------------------------------------------
 Symbolic Z-matrix:
 Charge =  0 Multiplicity = 1

                         Standard orientation:
 ---------------------------------------------------------------------
 Center     Atomic      Atomic             Coordinates (Angstroms)
 Number     Number       Type             X           Y           Z
 ---------------------------------------------------------------------
      1          6           0        4.448431    0.757910    0.269289
      2          6           0        4.014924    0.449773   -1.024405
      3          6           0        2.862841   -0.316804   -1.223435
      4          6           0        2.165338   -0.760833   -0.101109
      5          6           0        2.571838   -0.470464    1.200327
      6          6           0        3.726777    0.297620    1.375576
      7          1           0        5.344506    1.353991    0.414664
      8          1           0        4.573382    0.805892   -1.885421
      9          1           0        2.504811   -0.570033   -2.213944
     10          1           0        1.994188   -0.839661    2.039035
     11          1           0        4.061093    0.535385    2.381431
     12          7           0        0.944168   -1.573171   -0.299225
     13          8           0        0.347355   -1.952373    0.706089
     14          8           0        0.606950   -1.815297   -1.456073
     15          6           0       -0.266908    2.024214   -0.001261
     16          6           0       -0.661142    1.412223    1.193129
     17          6           0       -1.822685    0.635796    1.243402
     18          6           0       -2.569592    0.491867    0.075196
     19          6           0       -2.203022    1.088914   -1.129980
     20          6           0       -1.037747    1.860895   -1.156966
     21          1           0        0.636856    2.625634   -0.031269
     22          1           0       -0.064450    1.537322    2.092214
     23          1           0       -2.151019    0.150811    2.154667
     24          1           0       -2.818397    0.945897   -2.009911
     25          1           0       -0.734005    2.335001   -2.085949
     26          7           0       -3.801241   -0.327748    0.116092
     27          8           0       -4.441907   -0.439089   -0.926879
     28          8           0       -4.102620   -0.843301    1.190342
 ---------------------------------------------------------------------

 SCF Done:  E(RHF) =  -868.336615333     A.U. after   16 cycles
 E2 =    -0.2605103198D+01 EUMP2 =    -0.87094171853077D+03

 The electronic state is 1-A.
 Alpha  occ. eigenvalues --  -20.61174 -20.61153 -20.59931 -20.59920 -15.86199
 Alpha  occ. eigenvalues --  -15.84992 -11.31779 -11.30448 -11.28388 -11.28359
 Alpha  occ. eigenvalues --  -11.28153 -11.27466 -11.27439 -11.27121 -11.27110
 Alpha  occ. eigenvalues --  -11.26996 -11.26195 -11.26183  -1.60213  -1.58990
 Alpha  occ. eigenvalues --   -1.39771  -1.38546  -1.19990  -1.18711  -1.09332
 Alpha  occ. eigenvalues --   -1.08105  -1.05432  -1.04147  -0.96133  -0.94902
 Alpha  occ. eigenvalues --   -0.86805  -0.85549  -0.82973  -0.81744  -0.77990
 Alpha  occ. eigenvalues --   -0.76740  -0.72442  -0.71566  -0.71230  -0.71080
 Alpha  occ. eigenvalues --   -0.70277  -0.69869  -0.65633  -0.65422  -0.64383
 Alpha  occ. eigenvalues --   -0.64207  -0.62768  -0.61502  -0.55899  -0.54731
 Alpha  occ. eigenvalues --   -0.53790  -0.53510  -0.52397  -0.52270  -0.49207
 Alpha  occ. eigenvalues --   -0.49180  -0.47993  -0.47960  -0.45201  -0.43931
 Alpha  occ. eigenvalues --   -0.38237  -0.37114  -0.36439  -0.35583
 Alpha virt. eigenvalues --    0.04458   0.05926   0.10263   0.12227   0.15990
 Alpha virt. eigenvalues --    0.17235   0.20594   0.21898   0.26265   0.27337
 Alpha virt. eigenvalues --    0.28280   0.28749   0.30312   0.31195   0.32223

 Mulliken charges:
               1
     1  C   -0.173193
     2  C   -0.220505
     3  C   -0.173794
     4  C    0.166067
     5  C   -0.175202
     6  C   -0.221740
     7  H    0.226875
     8  H    0.224635
     9  H    0.276663
    10  H    0.274182
    11  H    0.223972
    12  N    0.490675
    13  O   -0.458583
    14  O   -0.458347
    15  C   -0.176503
    16  C   -0.224931
    17  C   -0.153335
    18  C    0.160859
    19  C   -0.163476
    20  C   -0.220299
    21  H    0.221453
    22  H    0.214958
    23  H    0.276214
    24  H    0.275802
    25  H    0.219227
    26  N    0.489824
    27  O   -0.461686
    28  O   -0.459814
 Sum of Mulliken charges =  -0.00000

 Dipole moment (field-independent basis, Debye):
    X=              8.4948    Y=              5.4603    Z=              0.5019  Tot=             10.1108
 Quadrupole moment (field-independent basis, Debye-Ang):
   XX=           -109.5185   YY=           -108.0535   ZZ=            -95.4157
   XY=             -2.2778   XZ=              1.8238   YZ=             -2.1312

 Normal termination of Gaussian 16 at Wed May  5 16:34:29 2021.
