 Gaussian 16, Revision A.03,
 Gaussian 16:  EM64L-G16RevA.03 25-Dec-2016

 -------------
 #p 6-31g* mp2
 -------------

 ------------------------------------------------------
 Input file generated by CHIRIPA (05-May-2021 14:53:14)
 ------------------------------------------------------
 Symbolic Z-matrix:
 Charge =  0 Multiplicity = 1

                         Standard orientation:
 ---------------------------------------------------------------------
 Center     Atomic      Atomic             Coordinates (Angstroms)
 Number     Number       Type             X           Y           Z
 ---------------------------------------------------------------------
      1          6           0       -3.440905    0.503154   -0.095729
      2          6           0       -3.432193   -0.934270    0.425538
      3          6           0       -4.826414   -1.561278    0.453869
      4          1           0       -4.105049    1.110807    0.534045
      5          1           0       -3.870570    0.516487   -1.106968
      6          1           0       -3.001398   -0.945075    1.434951
      7          1           0       -2.767843   -1.538529   -0.205435
      8          1           0       -5.260968   -1.579810   -0.550830
      9          1           0       -5.495850   -0.982985    1.098876
     10          1           0       -4.796975   -2.588745    0.829774
     11          6           0       -2.054384    1.143556   -0.130002
     12          6           0       -2.063095    2.580981   -0.651269
     13          6           0       -0.668874    3.207989   -0.679600
     14          1           0       -1.624719    1.130224    0.881237
     15          1           0       -1.390240    0.535903   -0.759776
     16          1           0       -2.727445    3.185239   -0.020296
     17          1           0       -2.493891    2.591786   -1.660682
     18          1           0        0.000561    2.629695   -1.324607
     19          1           0       -0.234320    3.226520    0.325099
     20          1           0       -0.698314    4.235456   -1.055505
     21          6           0        0.428385   -2.406737   -0.462978
     22          6           0        0.238488   -1.564041    0.637169
     23          6           0        1.183919   -0.583415    0.951942
     24          6           0        2.312708   -0.472758    0.141460
     25          6           0        2.530321   -1.297289   -0.961302
     26          6           0        1.571679   -2.270910   -1.257302
     27          1           0       -0.311179   -3.165790   -0.700211
     28          1           0       -0.648455   -1.667244    1.255816
     29          1           0        1.061980    0.082266    1.797765
     30          1           0        3.424513   -1.170369   -1.559408
     31          1           0        1.721784   -2.923965   -2.112307
     32          7           0        3.320585    0.561678    0.464759
     33          8           0        4.306571    0.638869   -0.264974
     34          8           0        3.105489    1.275693    1.441772
 ---------------------------------------------------------------------

 SCF Done:  E(RHF) =  -669.533754951     A.U. after   15 cycles
 E2 =    -0.2094977437D+01 EUMP2 =    -0.67162873238729D+03

 The electronic state is 1-A.
 Alpha  occ. eigenvalues --  -20.60734 -20.60729 -15.85784 -11.31150 -11.27686
 Alpha  occ. eigenvalues --  -11.27652 -11.27417 -11.26741 -11.26609 -11.22605
 Alpha  occ. eigenvalues --  -11.21999 -11.21869 -11.21789 -11.21720 -11.21019
 Alpha  occ. eigenvalues --   -1.59806  -1.39361  -1.19308  -1.09003  -1.08693
 Alpha  occ. eigenvalues --   -1.04701  -1.04030  -0.96425  -0.95543  -0.87452
 Alpha  occ. eigenvalues --   -0.86109  -0.82382  -0.80190  -0.78806  -0.77377
 Alpha  occ. eigenvalues --   -0.72003  -0.71126  -0.70416  -0.65629  -0.64946
 Alpha  occ. eigenvalues --   -0.64717  -0.62064  -0.61422  -0.59847  -0.58055
 Alpha  occ. eigenvalues --   -0.55693  -0.55209  -0.53277  -0.53139  -0.52803
 Alpha  occ. eigenvalues --   -0.52665  -0.50378  -0.48788  -0.48758  -0.48401
 Alpha  occ. eigenvalues --   -0.47228  -0.46257  -0.46166  -0.44762  -0.44264
 Alpha  occ. eigenvalues --   -0.37275  -0.36181
 Alpha virt. eigenvalues --    0.05074   0.11220   0.16501   0.20207   0.22828
 Alpha virt. eigenvalues --    0.23541   0.24460   0.26110   0.27579   0.28443
 Alpha virt. eigenvalues --    0.28932   0.29977   0.31262   0.31509   0.31795

 Mulliken charges:
               1
     1  C   -0.297123
     2  C   -0.305080
     3  C   -0.475064
     4  H    0.152158
     5  H    0.151652
     6  H    0.146212
     7  H    0.146957
     8  H    0.157864
     9  H    0.159098
    10  H    0.158717
    11  C   -0.301028
    12  C   -0.300218
    13  C   -0.476785
    14  H    0.142537
    15  H    0.156684
    16  H    0.152028
    17  H    0.151553
    18  H    0.155357
    19  H    0.160239
    20  H    0.162314
    21  C   -0.176493
    22  C   -0.215407
    23  C   -0.170194
    24  C    0.158332
    25  C   -0.172547
    26  C   -0.218362
    27  H    0.225431
    28  H    0.231333
    29  H    0.274406
    30  H    0.275192
    31  H    0.223059
    32  N    0.488293
    33  O   -0.460545
    34  O   -0.460569
 Sum of Mulliken charges =  -0.00000

 Dipole moment (field-independent basis, Debye):
    X=             -3.6190    Y=             -3.5316    Z=             -1.1741  Tot=              5.1911
 Quadrupole moment (field-independent basis, Debye-Ang):
   XX=           -110.8785   YY=            -91.6405   ZZ=            -91.4963
   XY=             -8.3342   XZ=             -5.5988   YZ=              1.7340

 Normal termination of Gaussian 16 at Thu May  6 12:08:37 2021.
