 Gaussian 16, Revision A.03,
 Gaussian 16:  EM64L-G16RevA.03 25-Dec-2016

 -------------
 #p 6-31g* mp2
 -------------

 ------------------------------------------------------
 Input file generated by CHIRIPA (05-May-2021 14:55:22)
 ------------------------------------------------------
 Symbolic Z-matrix:
 Charge =  0 Multiplicity = 1

                         Standard orientation:
 ---------------------------------------------------------------------
 Center     Atomic      Atomic             Coordinates (Angstroms)
 Number     Number       Type             X           Y           Z
 ---------------------------------------------------------------------
      1          6           0        2.612379   -1.575884    2.060204
      2          6           0        3.385141   -2.000503    0.974359
      3          6           0        3.447738   -1.236187   -0.194594
      4          6           0        2.721662   -0.047195   -0.243588
      5          6           0        1.942741    0.402590    0.821431
      6          6           0        1.894910   -0.377805    1.980415
      7          1           0        2.569488   -2.175868    2.964403
      8          1           0        3.943377   -2.930513    1.033503
      9          1           0        4.038044   -1.541330   -1.050074
     10          1           0        1.397222    1.334235    0.732748
     11          1           0        1.293941   -0.045568    2.822140
     12          7           0        2.780114    0.770463   -1.475829
     13          8           0        2.131187    1.814113   -1.493896
     14          8           0        3.473748    0.352211   -2.400261
     15          6           0       -4.039725   -0.276178    0.087494
     16          6           0       -4.036257   -1.271159   -1.073533
     17          6           0       -5.179183   -2.283199   -0.988180
     18          1           0       -3.972776   -0.827971    1.035116
     19          1           0       -5.001191    0.255562    0.102677
     20          1           0       -3.074551   -1.799881   -1.087362
     21          1           0       -4.103027   -0.716923   -2.018510
     22          1           0       -6.147502   -1.772438   -0.997389
     23          1           0       -5.113181   -2.861549   -0.060950
     24          1           0       -5.157702   -2.984811   -1.827906
     25          6           0       -2.903067    0.741983    0.016184
     26          6           0       -2.906535    1.736963    1.177213
     27          6           0       -1.763608    2.749004    1.091860
     28          1           0       -1.941600    0.210244    0.001001
     29          1           0       -2.970015    1.293776   -0.931437
     30          1           0       -2.839764    1.182728    2.122189
     31          1           0       -3.868241    2.265686    1.191041
     32          1           0       -1.829611    3.327354    0.164629
     33          1           0       -0.795289    2.238243    1.101068
     34          1           0       -1.785089    3.450616    1.931586
 ---------------------------------------------------------------------

 SCF Done:  E(RHF) =  -669.535447515     A.U. after   15 cycles
 E2 =    -0.2091350092D+01 EUMP2 =    -0.67162679760691D+03

 The electronic state is 1-A.
 Alpha  occ. eigenvalues --  -20.60762 -20.60756 -15.85815 -11.31205 -11.27777
 Alpha  occ. eigenvalues --  -11.27766 -11.27526 -11.26804 -11.26795 -11.21829
 Alpha  occ. eigenvalues --  -11.21631 -11.21494 -11.21434 -11.21368 -11.21119
 Alpha  occ. eigenvalues --   -1.59837  -1.39389  -1.19382  -1.08772  -1.08545
 Alpha  occ. eigenvalues --   -1.04791  -1.03670  -0.96120  -0.95602  -0.87137
 Alpha  occ. eigenvalues --   -0.86185  -0.82434  -0.79728  -0.78339  -0.77476
 Alpha  occ. eigenvalues --   -0.72034  -0.71160  -0.70498  -0.65194  -0.65032
 Alpha  occ. eigenvalues --   -0.64793  -0.62181  -0.61053  -0.59481  -0.57718
 Alpha  occ. eigenvalues --   -0.55471  -0.55242  -0.53116  -0.52926  -0.52817
 Alpha  occ. eigenvalues --   -0.52492  -0.50063  -0.48796  -0.48786  -0.48035
 Alpha  occ. eigenvalues --   -0.46763  -0.45880  -0.45808  -0.44788  -0.43911
 Alpha  occ. eigenvalues --   -0.37363  -0.36390
 Alpha virt. eigenvalues --    0.05035   0.11230   0.16519   0.20153   0.22869
 Alpha virt. eigenvalues --    0.23897   0.25577   0.26840   0.27541   0.27837
 Alpha virt. eigenvalues --    0.29104   0.30605   0.31444   0.31669   0.31964

 Mulliken charges:
               1
     1  C   -0.170875
     2  C   -0.218691
     3  C   -0.170407
     4  C    0.159734
     5  C   -0.180536
     6  C   -0.221309
     7  H    0.225671
     8  H    0.223601
     9  H    0.275751
    10  H    0.286990
    11  H    0.223664
    12  N    0.487131
    13  O   -0.459606
    14  O   -0.460517
    15  C   -0.298222
    16  C   -0.299862
    17  C   -0.475733
    18  H    0.147050
    19  H    0.150041
    20  H    0.151987
    21  H    0.154491
    22  H    0.155468
    23  H    0.153673
    24  H    0.160968
    25  C   -0.298655
    26  C   -0.300049
    27  C   -0.476925
    28  H    0.148380
    29  H    0.154878
    30  H    0.147278
    31  H    0.154090
    32  H    0.164956
    33  H    0.145488
    34  H    0.160098
 Sum of Mulliken charges =  -0.00000

 Dipole moment (field-independent basis, Debye):
    X=             -0.2619    Y=             -2.8341    Z=              4.2461  Tot=              5.1118
 Quadrupole moment (field-independent basis, Debye-Ang):
   XX=            -94.5675   YY=            -92.6473   ZZ=            -96.3734
   XY=            -11.6259   XZ=             11.0094   YZ=              1.4828

 Normal termination of Gaussian 16 at Wed May  5 17:28:41 2021.
