 Gaussian 16, Revision A.03,
 Gaussian 16:  EM64L-G16RevA.03 25-Dec-2016

 -------------
 #p 6-31g* mp2
 -------------

 ------------------------------------------------------
 Input file generated by CHIRIPA (05-May-2021 14:55:21)
 ------------------------------------------------------
 Symbolic Z-matrix:
 Charge =  0 Multiplicity = 1

                         Standard orientation:
 ---------------------------------------------------------------------
 Center     Atomic      Atomic             Coordinates (Angstroms)
 Number     Number       Type             X           Y           Z
 ---------------------------------------------------------------------
      1          6           0        5.134321    1.928492   -0.451303
      2          6           0        5.334222    0.643361   -0.966082
      3          6           0        4.440454   -0.388828   -0.665562
      4          6           0        3.352564   -0.099331    0.156616
      5          6           0        3.126254    1.170734    0.684830
      6          6           0        4.032917    2.187620    0.371060
      7          1           0        5.833630    2.724378   -0.689901
      8          1           0        6.188712    0.439221   -1.605003
      9          1           0        4.571260   -1.392862   -1.050562
     10          1           0        2.265230    1.343704    1.318974
     11          1           0        3.875160    3.184714    0.772262
     12          7           0        2.399546   -1.183963    0.481777
     13          8           0        1.448903   -0.903143    1.208450
     14          8           0        2.621260   -2.294380    0.003807
     15          6           0       -4.910508    0.463241    0.167183
     16          6           0       -6.266484    0.641349   -0.516624
     17          6           0       -7.091477    1.775269    0.092806
     18          1           0       -5.069085    0.269305    1.236850
     19          1           0       -4.347498    1.404485    0.100275
     20          1           0       -6.826213   -0.300370   -0.449657
     21          1           0       -6.104667    0.834694   -1.584822
     22          1           0       -6.556551    2.727107    0.012440
     23          1           0       -7.282195    1.585594    1.154056
     24          1           0       -8.056848    1.885043   -0.411049
     25          6           0       -4.074153   -0.666582   -0.430928
     26          6           0       -2.718176   -0.844690    0.252879
     27          6           0       -1.893183   -1.978611   -0.356550
     28          1           0       -4.637162   -1.607825   -0.364020
     29          1           0       -3.915575   -0.472645   -1.500595
     30          1           0       -2.879993   -1.038035    1.321078
     31          1           0       -2.158449    0.097030    0.185912
     32          1           0       -1.702467   -1.788934   -1.417800
     33          1           0       -2.428110   -2.930448   -0.276185
     34          1           0       -0.927813   -2.088383    0.147304
 ---------------------------------------------------------------------

 SCF Done:  E(RHF) =  -669.536555400     A.U. after   15 cycles
 E2 =    -0.2091021729D+01 EUMP2 =    -0.67162757712894D+03

 The electronic state is 1-A.
 Alpha  occ. eigenvalues --  -20.61011 -20.60994 -15.86016 -11.31321 -11.27879
 Alpha  occ. eigenvalues --  -11.27875 -11.27614 -11.26881 -11.26871 -11.21121
 Alpha  occ. eigenvalues --  -11.20764 -11.20699 -11.20546 -11.20443 -11.19484
 Alpha  occ. eigenvalues --   -1.60052  -1.39608  -1.19485  -1.08894  -1.07668
 Alpha  occ. eigenvalues --   -1.04877  -1.02667  -0.95740  -0.95101  -0.86279
 Alpha  occ. eigenvalues --   -0.86122  -0.82572  -0.78776  -0.77629  -0.77440
 Alpha  occ. eigenvalues --   -0.72233  -0.71361  -0.70593  -0.65140  -0.64880
 Alpha  occ. eigenvalues --   -0.64317  -0.62224  -0.60087  -0.58518  -0.56673
 Alpha  occ. eigenvalues --   -0.55383  -0.54427  -0.53212  -0.52969  -0.51752
 Alpha  occ. eigenvalues --   -0.51538  -0.49100  -0.48992  -0.48964  -0.47048
 Alpha  occ. eigenvalues --   -0.45852  -0.45024  -0.44971  -0.44904  -0.42878
 Alpha  occ. eigenvalues --   -0.37462  -0.36477
 Alpha virt. eigenvalues --    0.04875   0.11179   0.16372   0.21313   0.23547
 Alpha virt. eigenvalues --    0.25249   0.27223   0.27349   0.28096   0.28291
 Alpha virt. eigenvalues --    0.28978   0.30872   0.32161   0.32362   0.32535

 Mulliken charges:
               1
     1  C   -0.170495
     2  C   -0.218622
     3  C   -0.170690
     4  C    0.158652
     5  C   -0.170748
     6  C   -0.218606
     7  H    0.226098
     8  H    0.223931
     9  H    0.276012
    10  H    0.276024
    11  H    0.223943
    12  N    0.488600
    13  O   -0.459763
    14  O   -0.458634
    15  C   -0.297153
    16  C   -0.298912
    17  C   -0.475158
    18  H    0.149060
    19  H    0.146878
    20  H    0.151609
    21  H    0.150642
    22  H    0.153645
    23  H    0.154765
    24  H    0.158648
    25  C   -0.297340
    26  C   -0.296171
    27  C   -0.487454
    28  H    0.148112
    29  H    0.146688
    30  H    0.151544
    31  H    0.148743
    32  H    0.146783
    33  H    0.149084
    34  H    0.190286
 Sum of Mulliken charges =  -0.00000

 Dipole moment (field-independent basis, Debye):
    X=              3.7339    Y=              3.7777    Z=             -1.0648  Tot=              5.4173
 Quadrupole moment (field-independent basis, Debye-Ang):
   XX=            -72.6064   YY=            -94.0309   ZZ=            -93.9959
   XY=             11.6694   XZ=             -5.4623   YZ=              1.9239

 Normal termination of Gaussian 16 at Wed May  5 18:57:12 2021.
