 Gaussian 16, Revision A.03,
 Gaussian 16:  EM64L-G16RevA.03 25-Dec-2016

 -------------
 #p 6-31g* mp2
 -------------

 ------------------------------------------------------
 Input file generated by CHIRIPA (05-May-2021 14:53:17)
 ------------------------------------------------------
 Symbolic Z-matrix:
 Charge =  0 Multiplicity = 1

                         Standard orientation:
 ---------------------------------------------------------------------
 Center     Atomic      Atomic             Coordinates (Angstroms)
 Number     Number       Type             X           Y           Z
 ---------------------------------------------------------------------
      1          6           0        3.876101   -0.416937   -0.331305
      2          6           0        5.236019   -1.105739   -0.212307
      3          6           0        5.163150   -2.608726   -0.483444
      4          1           0        3.172829   -0.884104    0.371624
      5          1           0        3.472323   -0.589604   -1.338550
      6          1           0        5.637741   -0.930660    0.793965
      7          1           0        5.936188   -0.636751   -0.915464
      8          1           0        4.786249   -2.800167   -1.493343
      9          1           0        4.486106   -3.095747    0.225798
     10          1           0        6.146275   -3.081113   -0.393021
     11          6           0        3.932669    1.085914   -0.063037
     12          6           0        2.572752    1.774716   -0.182035
     13          6           0        2.645621    3.277702    0.089102
     14          1           0        4.336448    1.258580    0.944209
     15          1           0        4.635942    1.553081   -0.765965
     16          1           0        1.872583    1.305728    0.521122
     17          1           0        2.171030    1.599637   -1.188307
     18          1           0        3.322664    3.764723   -0.620140
     19          1           0        3.022521    3.469144    1.099002
     20          1           0        1.662496    3.750089   -0.001321
     21          6           0       -5.332490    0.144980   -0.842184
     22          6           0       -4.497378    1.226054   -0.541534
     23          6           0       -3.230850    1.012760    0.010698
     24          6           0       -2.829668   -0.300599    0.250351
     25          6           0       -3.638739   -1.398493   -0.038299
     26          6           0       -4.901264   -1.161540   -0.590051
     27          1           0       -6.314804    0.319863   -1.270984
     28          1           0       -4.829641    2.241792   -0.736276
     29          1           0       -2.564068    1.831342    0.253064
     30          1           0       -3.279791   -2.399688    0.167089
     31          1           0       -5.547699   -2.003039   -0.822532
     32          7           0       -1.490970   -0.538928    0.834721
     33          8           0       -1.160941   -1.705574    1.036348
     34          8           0       -0.797076    0.445429    1.080057
 ---------------------------------------------------------------------

 SCF Done:  E(RHF) =  -669.536236127     A.U. after   15 cycles
 E2 =    -0.2090947516D+01 EUMP2 =    -0.67162718364281D+03

 The electronic state is 1-A.
 Alpha  occ. eigenvalues --  -20.60970 -20.60954 -15.85994 -11.31302 -11.27863
 Alpha  occ. eigenvalues --  -11.27859 -11.27600 -11.26868 -11.26859 -11.20715
 Alpha  occ. eigenvalues --  -11.20308 -11.20270 -11.20245 -11.20190 -11.20091
 Alpha  occ. eigenvalues --   -1.60022  -1.39579  -1.19469  -1.08876  -1.07343
 Alpha  occ. eigenvalues --   -1.04863  -1.02496  -0.95721  -0.94991  -0.86264
 Alpha  occ. eigenvalues --   -0.86012  -0.82556  -0.78550  -0.77610  -0.77122
 Alpha  occ. eigenvalues --   -0.72220  -0.71332  -0.70578  -0.65126  -0.64867
 Alpha  occ. eigenvalues --   -0.63971  -0.62210  -0.59890  -0.58358  -0.56586
 Alpha  occ. eigenvalues --   -0.55369  -0.54288  -0.53196  -0.52955  -0.51715
 Alpha  occ. eigenvalues --   -0.51413  -0.49055  -0.48972  -0.48888  -0.46874
 Alpha  occ. eigenvalues --   -0.45572  -0.45039  -0.44682  -0.44452  -0.42749
 Alpha  occ. eigenvalues --   -0.37447  -0.36464
 Alpha virt. eigenvalues --    0.04909   0.11192   0.16398   0.21312   0.23930
 Alpha virt. eigenvalues --    0.25253   0.27238   0.27731   0.28102   0.28773
 Alpha virt. eigenvalues --    0.28969   0.30885   0.32230   0.32384   0.32866

 Mulliken charges:
               1
     1  C   -0.299878
     2  C   -0.298830
     3  C   -0.475390
     4  H    0.160996
     5  H    0.146123
     6  H    0.150795
     7  H    0.148406
     8  H    0.153206
     9  H    0.158018
    10  H    0.156724
    11  C   -0.297313
    12  C   -0.310193
    13  C   -0.473697
    14  H    0.147659
    15  H    0.143667
    16  H    0.182359
    17  H    0.144763
    18  H    0.149335
    19  H    0.153663
    20  H    0.155689
    21  C   -0.170562
    22  C   -0.218569
    23  C   -0.170657
    24  C    0.157869
    25  C   -0.170554
    26  C   -0.218609
    27  H    0.226026
    28  H    0.223892
    29  H    0.275850
    30  H    0.275873
    31  H    0.223837
    32  N    0.490951
    33  O   -0.459380
    34  O   -0.462069
 Sum of Mulliken charges =  -0.00000

 Dipole moment (field-independent basis, Debye):
    X=             -5.0466    Y=              0.7173    Z=             -1.9274  Tot=              5.4496
 Quadrupole moment (field-independent basis, Debye-Ang):
   XX=            -69.7259   YY=            -92.2116   ZZ=            -95.8061
   XY=             -0.1983   XZ=              5.1734   YZ=              0.6540

 Normal termination of Gaussian 16 at Wed May  5 17:15:18 2021.
