 Gaussian 16, Revision A.03,
 Gaussian 16:  EM64L-G16RevA.03 25-Dec-2016

 -------------
 #p 6-31g* mp2
 -------------

 ------------------------------------------------------
 Input file generated by CHIRIPA (05-May-2021 14:57:24)
 ------------------------------------------------------
 Symbolic Z-matrix:
 Charge =  0 Multiplicity = 1

                         Standard orientation:
 ---------------------------------------------------------------------
 Center     Atomic      Atomic             Coordinates (Angstroms)
 Number     Number       Type             X           Y           Z
 ---------------------------------------------------------------------
      1          6           0        2.213823    2.257413    0.358875
      2          6           0        2.162110    1.307093    1.383930
      3          6           0        2.674623    0.021411    1.186697
      4          6           0        3.234293   -0.281238   -0.053651
      5          6           0        3.300509    0.643694   -1.094519
      6          6           0        2.781856    1.923270   -0.874902
      7          1           0        1.813305    3.253790    0.520785
      8          1           0        1.721548    1.563794    2.343125
      9          1           0        2.647554   -0.733616    1.962983
     10          1           0        3.745798    0.358305   -2.039870
     11          1           0        2.823375    2.659276   -1.672784
     12          7           0        3.780118   -1.639100   -0.274301
     13          8           0        4.268026   -1.880831   -1.376185
     14          8           0        3.709692   -2.435950    0.658816
     15          6           0       -1.525593    1.979785    0.241369
     16          6           0       -1.477581    0.915013    1.147171
     17          6           0       -2.369575   -0.155392    1.032602
     18          6           0       -3.300829   -0.128399   -0.004379
     19          6           0       -3.373657    0.918020   -0.922526
     20          6           0       -2.471809    1.977892   -0.788773
     21          1           0       -0.828844    2.807210    0.337821
     22          1           0       -0.743799    0.913811    1.948175
     23          1           0       -2.354458   -0.992443    1.720013
     24          1           0       -4.116319    0.891074   -1.710652
     25          1           0       -2.511408    2.803472   -1.493681
     26          7           0       -4.250359   -1.256014   -0.135824
     27          8           0       -5.061344   -1.208472   -1.058146
     28          8           0       -4.165635   -2.166029    0.685963
 ---------------------------------------------------------------------

 SCF Done:  E(RHF) =  -868.334929845     A.U. after   16 cycles
 E2 =    -0.2602530067D+01 EUMP2 =    -0.87093745991270D+03

 The electronic state is 1-A.
 Alpha  occ. eigenvalues --  -20.61339 -20.61333 -20.60966 -20.60958 -15.86402
 Alpha  occ. eigenvalues --  -15.86023 -11.32010 -11.31505 -11.28642 -11.28577
 Alpha  occ. eigenvalues --  -11.28513 -11.28091 -11.28086 -11.27951 -11.27799
 Alpha  occ. eigenvalues --  -11.27677 -11.27180 -11.27167  -1.60408  -1.60037
 Alpha  occ. eigenvalues --   -1.39955  -1.39588  -1.20230  -1.19705  -1.09618
 Alpha  occ. eigenvalues --   -1.09092  -1.05679  -1.05127  -0.96401  -0.95902
 Alpha  occ. eigenvalues --   -0.87103  -0.86523  -0.83239  -0.82728  -0.78210
 Alpha  occ. eigenvalues --   -0.77743  -0.72619  -0.72242  -0.71731  -0.71511
 Alpha  occ. eigenvalues --   -0.71361  -0.70786  -0.65902  -0.65832  -0.65367
 Alpha  occ. eigenvalues --   -0.65097  -0.63037  -0.62447  -0.56389  -0.55594
 Alpha  occ. eigenvalues --   -0.54084  -0.53818  -0.53364  -0.53159  -0.49397
 Alpha  occ. eigenvalues --   -0.49355  -0.49010  -0.48987  -0.45306  -0.44967
 Alpha  occ. eigenvalues --   -0.38461  -0.37563  -0.37276  -0.36591
 Alpha virt. eigenvalues --    0.04207   0.04887   0.10119   0.11088   0.15436
 Alpha virt. eigenvalues --    0.16433   0.18309   0.22354   0.24287   0.25627
 Alpha virt. eigenvalues --    0.27978   0.29047   0.30291   0.31531   0.32661

 Mulliken charges:
               1
     1  C   -0.173898
     2  C   -0.221324
     3  C   -0.169342
     4  C    0.160897
     5  C   -0.168299
     6  C   -0.217336
     7  H    0.220535
     8  H    0.218964
     9  H    0.277735
    10  H    0.279134
    11  H    0.225181
    12  N    0.487999
    13  O   -0.457352
    14  O   -0.457898
    15  C   -0.166249
    16  C   -0.212363
    17  C   -0.171208
    18  C    0.159304
    19  C   -0.170157
    20  C   -0.219340
    21  H    0.214150
    22  H    0.214870
    23  H    0.277173
    24  H    0.276755
    25  H    0.222228
    26  N    0.488037
    27  O   -0.459571
    28  O   -0.458625
 Sum of Mulliken charges =  -0.00000

 Dipole moment (field-independent basis, Debye):
    X=              1.5790    Y=              8.4971    Z=              1.0648  Tot=              8.7079
 Quadrupole moment (field-independent basis, Debye-Ang):
   XX=           -138.5734   YY=           -108.7859   ZZ=            -97.7687
   XY=              1.7428   XZ=              1.3709   YZ=             -4.2639

 Normal termination of Gaussian 16 at Thu May  6 11:19:59 2021.
