 Gaussian 16, Revision A.03,
 Gaussian 16:  EM64L-G16RevA.03 25-Dec-2016

 -------------
 #p 6-31g* mp2
 -------------

 ------------------------------------------------------
 Input file generated by CHIRIPA (05-May-2021 14:55:23)
 ------------------------------------------------------
 Symbolic Z-matrix:
 Charge =  0 Multiplicity = 1

                         Standard orientation:
 ---------------------------------------------------------------------
 Center     Atomic      Atomic             Coordinates (Angstroms)
 Number     Number       Type             X           Y           Z
 ---------------------------------------------------------------------
      1          6           0       -6.319092   -0.717888    0.302004
      2          6           0       -6.081859    0.660040    0.341458
      3          6           0       -4.790172    1.163563    0.161025
      4          6           0       -3.754441    0.256524   -0.057678
      5          6           0       -3.958863   -1.121698   -0.102453
      6          6           0       -5.258707   -1.602799    0.080565
      7          1           0       -7.325674   -1.100328    0.443173
      8          1           0       -6.903449    1.349620    0.513253
      9          1           0       -4.578332    2.225580    0.186744
     10          1           0       -3.119632   -1.784371   -0.275581
     11          1           0       -5.439991   -2.673411    0.049419
     12          7           0       -2.382672    0.777714   -0.250063
     13          8           0       -1.487271   -0.042272   -0.441157
     14          8           0       -2.228856    1.996338   -0.206117
     15          6           0        5.763847   -0.069000   -0.304176
     16          6           0        6.899570    0.186299    0.687258
     17          6           0        8.231095    0.483736   -0.002936
     18          1           0        6.036697   -0.910357   -0.955803
     19          1           0        5.651873    0.808081   -0.956545
     20          1           0        7.008456   -0.690451    1.338463
     21          1           0        6.623903    1.027023    1.336724
     22          1           0        8.145709    1.370887   -0.638761
     23          1           0        8.532446   -0.356345   -0.637011
     24          1           0        9.029024    0.663134    0.724379
     25          6           0        4.426297   -0.367803    0.370660
     26          6           0        3.290573   -0.623102   -0.620774
     27          6           0        1.959049   -0.920539    0.069420
     28          1           0        4.538270   -1.244885    1.023027
     29          1           0        4.153447    0.473554    1.022287
     30          1           0        3.566240   -1.463825   -1.270240
     31          1           0        3.181688    0.253649   -1.271980
     32          1           0        1.657697   -0.080458    0.703495
     33          1           0        2.044434   -1.807690    0.705245
     34          1           0        1.161120   -1.099937   -0.657896
 ---------------------------------------------------------------------

 SCF Done:  E(RHF) =  -669.535702786     A.U. after   15 cycles
 E2 =    -0.2090669082D+01 EUMP2 =    -0.67162637186880D+03

 The electronic state is 1-A.
 Alpha  occ. eigenvalues --  -20.60866 -20.60860 -15.85910 -11.31253 -11.27821
 Alpha  occ. eigenvalues --  -11.27818 -11.27563 -11.26835 -11.26825 -11.20988
 Alpha  occ. eigenvalues --  -11.20629 -11.20559 -11.20448 -11.20375 -11.19411
 Alpha  occ. eigenvalues --   -1.59934  -1.39489  -1.19425  -1.08825  -1.07554
 Alpha  occ. eigenvalues --   -1.04826  -1.02567  -0.95667  -0.94987  -0.86226
 Alpha  occ. eigenvalues --   -0.86002  -0.82498  -0.78665  -0.77547  -0.77339
 Alpha  occ. eigenvalues --   -0.72137  -0.71252  -0.70535  -0.65082  -0.64829
 Alpha  occ. eigenvalues --   -0.64194  -0.62173  -0.59971  -0.58407  -0.56587
 Alpha  occ. eigenvalues --   -0.55330  -0.54290  -0.53156  -0.52919  -0.51638
 Alpha  occ. eigenvalues --   -0.51425  -0.49051  -0.48884  -0.48768  -0.46962
 Alpha  occ. eigenvalues --   -0.45724  -0.44932  -0.44851  -0.44784  -0.42787
 Alpha  occ. eigenvalues --   -0.37406  -0.36429
 Alpha virt. eigenvalues --    0.04984   0.11226   0.16477   0.21348   0.23685
 Alpha virt. eigenvalues --    0.25323   0.27271   0.27479   0.28139   0.28326
 Alpha virt. eigenvalues --    0.29093   0.30899   0.32306   0.32357   0.32588

 Mulliken charges:
               1
     1  C   -0.170700
     2  C   -0.218585
     3  C   -0.170650
     4  C    0.157587
     5  C   -0.170738
     6  C   -0.218539
     7  H    0.225827
     8  H    0.223647
     9  H    0.275738
    10  H    0.275729
    11  H    0.223701
    12  N    0.493207
    13  O   -0.463854
    14  O   -0.459947
    15  C   -0.297519
    16  C   -0.298974
    17  C   -0.475227
    18  H    0.147636
    19  H    0.149424
    20  H    0.150422
    21  H    0.151652
    22  H    0.154887
    23  H    0.154074
    24  H    0.158347
    25  C   -0.297520
    26  C   -0.300552
    27  C   -0.474825
    28  H    0.146267
    29  H    0.149823
    30  H    0.146023
    31  H    0.153396
    32  H    0.160360
    33  H    0.143367
    34  H    0.176516
 Sum of Mulliken charges =  -0.00000

 Dipole moment (field-independent basis, Debye):
    X=             -5.1682    Y=             -1.7746    Z=              0.6434  Tot=              5.5022
 Quadrupole moment (field-independent basis, Debye-Ang):
   XX=            -60.8744   YY=            -90.5907   ZZ=            -95.9171
   XY=              3.7558   XZ=             -2.2781   YZ=              1.0020

 Normal termination of Gaussian 16 at Thu May  6 20:51:22 2021.
