 Gaussian 16, Revision A.03,
 Gaussian 16:  EM64L-G16RevA.03 25-Dec-2016

 -------------
 #p 6-31g* mp2
 -------------

 ------------------------------------------------------
 Input file generated by CHIRIPA (05-May-2021 14:57:27)
 ------------------------------------------------------
 Symbolic Z-matrix:
 Charge =  0 Multiplicity = 1

                         Standard orientation:
 ---------------------------------------------------------------------
 Center     Atomic      Atomic             Coordinates (Angstroms)
 Number     Number       Type             X           Y           Z
 ---------------------------------------------------------------------
      1          6           0       -2.733622    2.310857    0.318032
      2          6           0       -3.909039    2.080792   -0.404453
      3          6           0       -4.411891    0.784237   -0.548095
      4          6           0       -3.710689   -0.263619    0.046551
      5          6           0       -2.537020   -0.066571    0.772474
      6          6           0       -2.052564    1.238333    0.903158
      7          1           0       -2.350140    3.321295    0.424584
      8          1           0       -4.440052    2.911812   -0.859949
      9          1           0       -5.319591    0.577740   -1.102043
     10          1           0       -2.029751   -0.915172    1.215161
     11          1           0       -1.139482    1.414029    1.464813
     12          7           0       -4.233297   -1.640643   -0.098657
     13          8           0       -3.596903   -2.546751    0.434830
     14          8           0       -5.269417   -1.787772   -0.743208
     15          6           0        1.628852    1.580372   -0.062143
     16          6           0        2.919778    2.105820   -0.180187
     17          6           0        4.032874    1.259928   -0.185955
     18          6           0        3.817494   -0.112570   -0.071290
     19          6           0        2.543782   -0.666437    0.047798
     20          6           0        1.445298    0.198356    0.051273
     21          1           0        0.769847    2.244822   -0.058553
     22          1           0        3.065335    3.178701   -0.268422
     23          1           0        5.043269    1.639934   -0.276036
     24          1           0        2.430359   -1.740261    0.134130
     25          1           0        0.443901   -0.212521    0.143084
     26          7           0        4.988144   -1.018084   -0.076182
     27          8           0        4.771653   -2.223606    0.026209
     28          8           0        6.100024   -0.505156   -0.182315
 ---------------------------------------------------------------------

 SCF Done:  E(RHF) =  -868.335995111     A.U. after   16 cycles
 E2 =    -0.2602160451D+01 EUMP2 =    -0.87093815556179D+03

 The electronic state is 1-A.
 Alpha  occ. eigenvalues --  -20.61574 -20.61564 -20.61063 -20.61055 -15.86635
 Alpha  occ. eigenvalues --  -15.86119 -11.32244 -11.31625 -11.28898 -11.28777
 Alpha  occ. eigenvalues --  -11.28637 -11.28205 -11.28184 -11.28052 -11.27962
 Alpha  occ. eigenvalues --  -11.27830 -11.27286 -11.27248  -1.60642  -1.60134
 Alpha  occ. eigenvalues --   -1.40190  -1.39683  -1.20445  -1.19819  -1.09796
 Alpha  occ. eigenvalues --   -1.09213  -1.05900  -1.05230  -0.96587  -0.96020
 Alpha  occ. eigenvalues --   -0.87283  -0.86645  -0.83420  -0.82838  -0.78448
 Alpha  occ. eigenvalues --   -0.77828  -0.72847  -0.72336  -0.71970  -0.71559
 Alpha  occ. eigenvalues --   -0.71459  -0.70998  -0.66116  -0.65967  -0.65451
 Alpha  occ. eigenvalues --   -0.65243  -0.63236  -0.62495  -0.56373  -0.55824
 Alpha  occ. eigenvalues --   -0.54213  -0.53975  -0.53537  -0.53287  -0.49623
 Alpha  occ. eigenvalues --   -0.49588  -0.49108  -0.49080  -0.45542  -0.45057
 Alpha  occ. eigenvalues --   -0.38424  -0.37846  -0.37473  -0.36831
 Alpha virt. eigenvalues --    0.04061   0.04666   0.09998   0.10712   0.15383
 Alpha virt. eigenvalues --    0.16084   0.19085   0.22156   0.24811   0.25770
 Alpha virt. eigenvalues --    0.28201   0.29472   0.29796   0.30250   0.32706

 Mulliken charges:
               1
     1  C   -0.173562
     2  C   -0.217022
     3  C   -0.168961
     4  C    0.159850
     5  C   -0.176259
     6  C   -0.225914
     7  H    0.225613
     8  H    0.227578
     9  H    0.279728
    10  H    0.276080
    11  H    0.225011
    12  N    0.488041
    13  O   -0.458581
    14  O   -0.456507
    15  C   -0.175856
    16  C   -0.217826
    17  C   -0.170345
    18  C    0.159419
    19  C   -0.170958
    20  C   -0.224017
    21  H    0.218383
    22  H    0.223204
    23  H    0.277074
    24  H    0.279612
    25  H    0.225684
    26  N    0.487891
    27  O   -0.457832
    28  O   -0.459528
 Sum of Mulliken charges =  -0.00000

 Dipole moment (field-independent basis, Debye):
    X=             -2.4976    Y=              7.9257    Z=              0.4307  Tot=              8.3210
 Quadrupole moment (field-independent basis, Debye-Ang):
   XX=           -143.6497   YY=           -104.9983   ZZ=           -104.7483
   XY=             -4.9199   XZ=              0.7449   YZ=             -1.7651

 Normal termination of Gaussian 16 at Thu May  6 06:49:49 2021.
