 Gaussian 16, Revision A.03,
 Gaussian 16:  EM64L-G16RevA.03 25-Dec-2016

 -------------
 #p 6-31g* mp2
 -------------

 ------------------------------------------------------
 Input file generated by CHIRIPA (05-May-2021 14:55:22)
 ------------------------------------------------------
 Symbolic Z-matrix:
 Charge =  0 Multiplicity = 1

                         Standard orientation:
 ---------------------------------------------------------------------
 Center     Atomic      Atomic             Coordinates (Angstroms)
 Number     Number       Type             X           Y           Z
 ---------------------------------------------------------------------
      1          6           0        0.864310   -0.999616   -0.044924
      2          6           0        1.864932   -1.976541   -0.015034
      3          6           0        3.214144   -1.610658    0.002402
      4          6           0        3.528339   -0.252572   -0.010832
      5          6           0        2.554327    0.744276   -0.040551
      6          6           0        1.211589    0.355286   -0.057565
      7          1           0       -0.181276   -1.292818   -0.058305
      8          1           0        1.598173   -3.029531   -0.005158
      9          1           0        4.009027   -2.346213    0.025596
     10          1           0        2.851244    1.785992   -0.049773
     11          1           0        0.436613    1.116153   -0.080773
     12          7           0        4.953263    0.147003    0.007403
     13          8           0        5.203899    1.350195   -0.004781
     14          8           0        5.792501   -0.750568    0.033535
     15          6           0       -3.735382    0.882371    0.374548
     16          6           0       -3.307990    2.072053   -0.485670
     17          6           0       -2.347170    3.012836    0.242029
     18          1           0       -4.209327    1.253907    1.293396
     19          1           0       -2.841528    0.325021    0.687247
     20          1           0       -4.202482    2.626199   -0.797799
     21          1           0       -2.835179    1.697640   -1.402665
     22          1           0       -1.438030    2.480323    0.539513
     23          1           0       -2.813101    3.414158    1.147817
     24          1           0       -2.054529    3.856214   -0.391165
     25          6           0       -4.695964   -0.067198   -0.339124
     26          6           0       -5.123357   -1.256880    0.521093
     27          6           0       -6.084177   -2.197662   -0.206606
     28          1           0       -5.589819    0.490152   -0.651824
     29          1           0       -4.222019   -0.438734   -1.257973
     30          1           0       -5.596168   -0.882466    1.438089
     31          1           0       -4.228865   -1.811026    0.833223
     32          1           0       -5.618245   -2.598985   -1.112393
     33          1           0       -6.993317   -1.665150   -0.504090
     34          1           0       -6.376818   -3.041041    0.426588
 ---------------------------------------------------------------------

 SCF Done:  E(RHF) =  -669.535458649     A.U. after   15 cycles
 E2 =    -0.2091239598D+01 EUMP2 =    -0.67162669824624D+03

 The electronic state is 1-A.
 Alpha  occ. eigenvalues --  -20.60748 -20.60743 -15.85801 -11.31171 -11.27744
 Alpha  occ. eigenvalues --  -11.27735 -11.27494 -11.26763 -11.26736 -11.22611
 Alpha  occ. eigenvalues --  -11.22423 -11.22409 -11.22249 -11.22174 -11.21749
 Alpha  occ. eigenvalues --   -1.59823  -1.39376  -1.19345  -1.09375  -1.08742
 Alpha  occ. eigenvalues --   -1.04750  -1.04443  -0.96895  -0.95575  -0.87908
 Alpha  occ. eigenvalues --   -0.86151  -0.82407  -0.80501  -0.79171  -0.77453
 Alpha  occ. eigenvalues --   -0.72020  -0.71146  -0.70460  -0.66044  -0.64998
 Alpha  occ. eigenvalues --   -0.64768  -0.62196  -0.61755  -0.60252  -0.58488
 Alpha  occ. eigenvalues --   -0.56232  -0.55240  -0.53563  -0.53333  -0.53078
 Alpha  occ. eigenvalues --   -0.52822  -0.50827  -0.48832  -0.48774  -0.48752
 Alpha  occ. eigenvalues --   -0.47545  -0.46708  -0.46644  -0.44781  -0.44696
 Alpha  occ. eigenvalues --   -0.37330  -0.36351
 Alpha virt. eigenvalues --    0.05082   0.11280   0.16565   0.18089   0.22496
 Alpha virt. eigenvalues --    0.23480   0.24995   0.25649   0.26406   0.28306
 Alpha virt. eigenvalues --    0.29394   0.30353   0.30839   0.31235   0.31706

 Mulliken charges:
               1
     1  C   -0.174516
     2  C   -0.218513
     3  C   -0.171039
     4  C    0.158892
     5  C   -0.173027
     6  C   -0.226589
     7  H    0.226428
     8  H    0.223369
     9  H    0.275554
    10  H    0.276307
    11  H    0.235114
    12  N    0.488037
    13  O   -0.460301
    14  O   -0.460562
    15  C   -0.297994
    16  C   -0.301721
    17  C   -0.480285
    18  H    0.154187
    19  H    0.140550
    20  H    0.157389
    21  H    0.150760
    22  H    0.147563
    23  H    0.161428
    24  H    0.164923
    25  C   -0.299143
    26  C   -0.299259
    27  C   -0.476153
    28  H    0.153240
    29  H    0.148484
    30  H    0.154580
    31  H    0.147664
    32  H    0.154991
    33  H    0.157423
    34  H    0.162220
 Sum of Mulliken charges =  -0.00000

 Dipole moment (field-independent basis, Debye):
    X=             -5.2755    Y=             -1.3324    Z=             -0.0670  Tot=              5.4416
 Quadrupole moment (field-independent basis, Debye-Ang):
   XX=           -129.0459   YY=            -89.3177   ZZ=            -95.6907
   XY=             -6.4939   XZ=             -0.7381   YZ=             -0.1591

 Normal termination of Gaussian 16 at Thu May  6 10:56:51 2021.
