 Gaussian 16, Revision A.03,
 Gaussian 16:  EM64L-G16RevA.03 25-Dec-2016

 -------------
 #p 6-31g* mp2
 -------------

 ------------------------------------------------------
 Input file generated by CHIRIPA (05-May-2021 14:51:08)
 ------------------------------------------------------
 Symbolic Z-matrix:
 Charge =  0 Multiplicity = 1

                         Standard orientation:
 ---------------------------------------------------------------------
 Center     Atomic      Atomic             Coordinates (Angstroms)
 Number     Number       Type             X           Y           Z
 ---------------------------------------------------------------------
      1          6           0        4.505411    0.396933   -0.348039
      2          6           0        5.800635    0.677939    0.414467
      3          6           0        6.733018    1.630290   -0.334854
      4          1           0        4.750926   -0.026382   -1.331641
      5          1           0        3.986107    1.346623   -0.537266
      6          1           0        6.316657   -0.272134    0.603411
      7          1           0        5.552002    1.100456    1.396444
      8          1           0        6.240946    2.592391   -0.510428
      9          1           0        7.009945    1.212003   -1.307967
     10          1           0        7.652740    1.817374    0.228148
     11          6           0        3.562961   -0.553514    0.388281
     12          6           0        2.267738   -0.834520   -0.374226
     13          6           0        1.335354   -1.786871    0.375096
     14          1           0        4.082265   -1.503205    0.577507
     15          1           0        3.317447   -0.130199    1.371882
     16          1           0        2.516370   -1.257037   -1.356202
     17          1           0        1.751716    0.115553   -0.563169
     18          1           0        1.058428   -1.368584    1.348208
     19          1           0        1.827426   -2.748973    0.550670
     20          1           0        0.415632   -1.973956   -0.187906
     21          6           0       -4.427174    0.659048   -0.322963
     22          6           0       -4.398632    1.923749    0.535931
     23          6           0       -5.189251    3.076757   -0.083173
     24          1           0       -4.022926    0.890060   -1.318032
     25          1           0       -5.470816    0.349992   -0.473601
     26          1           0       -3.355287    2.229542    0.686058
     27          1           0       -4.802819    1.689654    1.529133
     28          1           0       -6.238796    2.795733   -0.217645
     29          1           0       -4.783041    3.338689   -1.065510
     30          1           0       -5.155516    3.970777    0.547263
     31          6           0       -3.641198   -0.502466    0.282722
     32          6           0       -3.669740   -1.767168   -0.576173
     33          6           0       -2.879121   -2.920175    0.042931
     34          1           0       -2.597557   -0.193410    0.433360
     35          1           0       -4.045447   -0.733478    1.277790
     36          1           0       -3.265554   -1.533072   -1.569374
     37          1           0       -4.713085   -2.072960   -0.726300
     38          1           0       -3.285332   -3.182107    1.025268
     39          1           0       -1.829577   -2.639151    0.177403
     40          1           0       -2.912858   -3.814196   -0.587505
 ---------------------------------------------------------------------

 SCF Done:  E(RHF) =  -470.733302296     A.U. after   11 cycles
 E2 =    -0.1582298936D+01 EUMP2 =    -0.47231560123254D+03

 The electronic state is 1-A.
 Alpha  occ. eigenvalues --  -11.21650 -11.21621 -11.21596 -11.21573 -11.21435
 Alpha  occ. eigenvalues --  -11.21386 -11.21375 -11.21326 -11.21121 -11.21087
 Alpha  occ. eigenvalues --  -11.21068 -11.20995  -1.08462  -1.08411  -1.03569
 Alpha  occ. eigenvalues --   -1.03504  -0.96030  -0.95943  -0.87061  -0.86946
 Alpha  occ. eigenvalues --   -0.79651  -0.79547  -0.78273  -0.78222  -0.65093
 Alpha  occ. eigenvalues --   -0.65045  -0.60972  -0.60928  -0.59419  -0.59301
 Alpha  occ. eigenvalues --   -0.57673  -0.57525  -0.55302  -0.55254  -0.52796
 Alpha  occ. eigenvalues --   -0.52646  -0.52454  -0.52293  -0.49956  -0.49875
 Alpha  occ. eigenvalues --   -0.47976  -0.47851  -0.46664  -0.46594  -0.45816
 Alpha  occ. eigenvalues --   -0.45765  -0.45738  -0.45689  -0.43783  -0.43760
 Alpha virt. eigenvalues --    0.21577   0.23039   0.23597   0.24907   0.26296
 Alpha virt. eigenvalues --    0.26637   0.27176   0.27480   0.27766   0.28781
 Alpha virt. eigenvalues --    0.30269   0.31368   0.31717   0.31837   0.32011

 Mulliken charges:
               1
     1  C   -0.298253
     2  C   -0.299658
     3  C   -0.475720
     4  H    0.149707
     5  H    0.149476
     6  H    0.152010
     7  H    0.152000
     8  H    0.155184
     9  H    0.155207
    10  H    0.160338
    11  C   -0.298720
    12  C   -0.299194
    13  C   -0.481790
    14  H    0.149739
    15  H    0.149772
    16  H    0.152147
    17  H    0.151554
    18  H    0.155625
    19  H    0.156125
    20  H    0.165327
    21  C   -0.298282
    22  C   -0.299593
    23  C   -0.475693
    24  H    0.149559
    25  H    0.149532
    26  H    0.151730
    27  H    0.151944
    28  H    0.155214
    29  H    0.155144
    30  H    0.160170
    31  C   -0.298625
    32  C   -0.299292
    33  C   -0.483369
    34  H    0.149805
    35  H    0.149672
    36  H    0.151382
    37  H    0.151863
    38  H    0.155236
    39  H    0.162851
    40  H    0.159879
 Sum of Mulliken charges =  -0.00000

 Dipole moment (field-independent basis, Debye):
    X=              0.0330    Y=             -0.0062    Z=              0.0085  Tot=              0.0346
 Quadrupole moment (field-independent basis, Debye-Ang):
   XX=            -84.7957   YY=            -85.3797   ZZ=            -84.6129
   XY=             -0.1837   XZ=             -0.4958   YZ=              0.7827

 Normal termination of Gaussian 16 at Thu May  6 02:04:54 2021.
