 Gaussian 16, Revision A.03,
 Gaussian 16:  EM64L-G16RevA.03 25-Dec-2016

 -------------
 #p 6-31g* mp2
 -------------

 ------------------------------------------------------
 Input file generated by CHIRIPA (05-May-2021 14:55:22)
 ------------------------------------------------------
 Symbolic Z-matrix:
 Charge =  0 Multiplicity = 1

                         Standard orientation:
 ---------------------------------------------------------------------
 Center     Atomic      Atomic             Coordinates (Angstroms)
 Number     Number       Type             X           Y           Z
 ---------------------------------------------------------------------
      1          6           0       -2.369076    2.747115    0.661317
      2          6           0       -1.441773    2.342695   -0.304641
      3          6           0       -1.444875    1.030222   -0.786255
      4          6           0       -2.393525    0.144412   -0.277635
      5          6           0       -3.330352    0.517155    0.685022
      6          6           0       -3.308749    1.834662    1.152200
      7          1           0       -2.359480    3.768631    1.029840
      8          1           0       -0.710861    3.049164   -0.687675
      9          1           0       -0.738399    0.690496   -1.533848
     10          1           0       -4.046848   -0.209784    1.047804
     11          1           0       -4.030101    2.145948    1.902399
     12          7           0       -2.406602   -1.247709   -0.779857
     13          8           0       -3.252590   -2.008947   -0.315683
     14          8           0       -1.570616   -1.551256   -1.628163
     15          6           0        2.467193   -0.930449    0.086176
     16          6           0        2.146847   -1.934578    1.193916
     17          6           0        0.956588   -2.831563    0.852603
     18          1           0        1.581164   -0.309566   -0.104619
     19          1           0        2.673114   -1.475877   -0.845222
     20          1           0        1.942948   -1.387479    2.123283
     21          1           0        3.033803   -2.553015    1.382228
     22          1           0        1.153975   -3.402796   -0.060267
     23          1           0        0.056922   -2.230638    0.684999
     24          1           0        0.745048   -3.541690    1.658103
     25          6           0        3.654713   -0.026609    0.412672
     26          6           0        3.975059    0.977520   -0.695068
     27          6           0        5.165318    1.874505   -0.353755
     28          1           0        3.448793    0.518819    1.344070
     29          1           0        4.540742   -0.647490    0.603467
     30          1           0        3.088103    1.595957   -0.883380
     31          1           0        4.178958    0.430421   -1.624435
     32          1           0        6.064984    1.273581   -0.186151
     33          1           0        4.967931    2.445739    0.559115
     34          1           0        5.376858    2.584633   -1.159255
 ---------------------------------------------------------------------

 SCF Done:  E(RHF) =  -669.535492579     A.U. after   15 cycles
 E2 =    -0.2092611281D+01 EUMP2 =    -0.67162810386020D+03

 The electronic state is 1-A.
 Alpha  occ. eigenvalues --  -20.60849 -20.60839 -15.85875 -11.31270 -11.27834
 Alpha  occ. eigenvalues --  -11.27830 -11.27576 -11.26857 -11.26846 -11.21749
 Alpha  occ. eigenvalues --  -11.21346 -11.21230 -11.21213 -11.21138 -11.20306
 Alpha  occ. eigenvalues --   -1.59917  -1.39467  -1.19442  -1.08834  -1.08297
 Alpha  occ. eigenvalues --   -1.04844  -1.03334  -0.95755  -0.95665  -0.86764
 Alpha  occ. eigenvalues --   -0.86239  -0.82494  -0.79428  -0.78088  -0.77531
 Alpha  occ. eigenvalues --   -0.72102  -0.71262  -0.70542  -0.65092  -0.64955
 Alpha  occ. eigenvalues --   -0.64828  -0.62187  -0.60740  -0.59170  -0.57358
 Alpha  occ. eigenvalues --   -0.55342  -0.55043  -0.53176  -0.52934  -0.52450
 Alpha  occ. eigenvalues --   -0.52150  -0.49704  -0.48864  -0.48861  -0.47727
 Alpha  occ. eigenvalues --   -0.46496  -0.45693  -0.45533  -0.44732  -0.43595
 Alpha  occ. eigenvalues --   -0.37420  -0.36435
 Alpha virt. eigenvalues --    0.04953   0.11122   0.16438   0.20867   0.22958
 Alpha virt. eigenvalues --    0.24390   0.25534   0.27156   0.27710   0.28132
 Alpha virt. eigenvalues --    0.29233   0.30443   0.31703   0.31854   0.32187

 Mulliken charges:
               1
     1  C   -0.170666
     2  C   -0.219328
     3  C   -0.171748
     4  C    0.155631
     5  C   -0.170887
     6  C   -0.218325
     7  H    0.225986
     8  H    0.224032
     9  H    0.277601
    10  H    0.276050
    11  H    0.223854
    12  N    0.487591
    13  O   -0.458823
    14  O   -0.457131
    15  C   -0.297862
    16  C   -0.301321
    17  C   -0.470765
    18  H    0.144573
    19  H    0.153716
    20  H    0.148032
    21  H    0.150628
    22  H    0.162312
    23  H    0.154366
    24  H    0.157920
    25  C   -0.298065
    26  C   -0.297603
    27  C   -0.475507
    28  H    0.147470
    29  H    0.150798
    30  H    0.143345
    31  H    0.154212
    32  H    0.156982
    33  H    0.153783
    34  H    0.159150
 Sum of Mulliken charges =  -0.00000

 Dipole moment (field-independent basis, Debye):
    X=             -0.0510    Y=              4.7901    Z=              1.7081  Tot=              5.0858
 Quadrupole moment (field-independent basis, Debye-Ang):
   XX=            -92.6141   YY=            -93.5062   ZZ=            -94.4018
   XY=            -12.2118   XZ=             -7.5384   YZ=             -1.3514

 Normal termination of Gaussian 16 at Thu May  6 12:35:15 2021.
