 Gaussian 16, Revision A.03,
 Gaussian 16:  EM64L-G16RevA.03 25-Dec-2016

 -------------
 #p 6-31g* mp2
 -------------

 ------------------------------------------------------
 Input file generated by CHIRIPA (05-May-2021 14:57:26)
 ------------------------------------------------------
 Symbolic Z-matrix:
 Charge =  0 Multiplicity = 1

                         Standard orientation:
 ---------------------------------------------------------------------
 Center     Atomic      Atomic             Coordinates (Angstroms)
 Number     Number       Type             X           Y           Z
 ---------------------------------------------------------------------
      1          6           0        1.848579    2.161487   -0.578061
      2          6           0        1.177131    0.975656   -0.893472
      3          6           0        1.784493   -0.264229   -0.673600
      4          6           0        3.069933   -0.281427   -0.134492
      5          6           0        3.764780    0.882661    0.190127
      6          6           0        3.137987    2.111293   -0.038220
      7          1           0        1.369218    3.120289   -0.752154
      8          1           0        0.175688    1.011603   -1.312835
      9          1           0        1.287505   -1.197599   -0.908634
     10          1           0        4.762316    0.814851    0.606949
     11          1           0        3.661834    3.030617    0.207692
     12          7           0        3.723206   -1.588081    0.102763
     13          8           0        4.856314   -1.576236    0.578748
     14          8           0        3.089762   -2.599341   -0.191756
     15          6           0       -1.818359    2.256136    0.684508
     16          6           0       -2.327255    2.014163   -0.595725
     17          6           0       -2.962975    0.804305   -0.890096
     18          6           0       -3.072855   -0.145653    0.124201
     19          6           0       -2.576116    0.065790    1.409437
     20          6           0       -1.944192    1.282894    1.681245
     21          1           0       -1.325992    3.198797    0.904419
     22          1           0       -2.230964    2.768172   -1.371766
     23          1           0       -3.366021    0.590822   -1.872642
     24          1           0       -2.687199   -0.705052    2.162352
     25          1           0       -1.549928    1.468071    2.676389
     26          7           0       -3.743853   -1.430309   -0.175494
     27          8           0       -3.827913   -2.251008    0.735564
     28          8           0       -4.173017   -1.592201   -1.315777
 ---------------------------------------------------------------------

 SCF Done:  E(RHF) =  -868.335726288     A.U. after   16 cycles
 E2 =    -0.2603008016D+01 EUMP2 =    -0.87093873430397D+03

 The electronic state is 1-A.
 Alpha  occ. eigenvalues --  -20.61386 -20.61369 -20.60927 -20.60912 -15.86444
 Alpha  occ. eigenvalues --  -15.85973 -11.32057 -11.31443 -11.28701 -11.28595
 Alpha  occ. eigenvalues --  -11.28447 -11.28002 -11.27919 -11.27833 -11.27751
 Alpha  occ. eigenvalues --  -11.27618 -11.27121 -11.26911  -1.60453  -1.59996
 Alpha  occ. eigenvalues --   -1.39998  -1.39545  -1.20274  -1.19611  -1.09624
 Alpha  occ. eigenvalues --   -1.09011  -1.05698  -1.05005  -0.96403  -0.95832
 Alpha  occ. eigenvalues --   -0.87080  -0.86414  -0.83220  -0.82644  -0.78219
 Alpha  occ. eigenvalues --   -0.77664  -0.72650  -0.72190  -0.71788  -0.71376
 Alpha  occ. eigenvalues --   -0.71322  -0.70765  -0.65901  -0.65678  -0.65261
 Alpha  occ. eigenvalues --   -0.65051  -0.63003  -0.62379  -0.56210  -0.55601
 Alpha  occ. eigenvalues --   -0.54265  -0.53754  -0.53317  -0.52839  -0.49431
 Alpha  occ. eigenvalues --   -0.49393  -0.48956  -0.48940  -0.45348  -0.44927
 Alpha  occ. eigenvalues --   -0.38504  -0.37463  -0.37305  -0.36496
 Alpha virt. eigenvalues --    0.04220   0.04875   0.10252   0.11028   0.15656
 Alpha virt. eigenvalues --    0.16304   0.19605   0.21816   0.25958   0.26461
 Alpha virt. eigenvalues --    0.27550   0.29181   0.29960   0.31166   0.32176

 Mulliken charges:
               1
     1  C   -0.178310
     2  C   -0.215612
     3  C   -0.175008
     4  C    0.159360
     5  C   -0.172534
     6  C   -0.218226
     7  H    0.215844
     8  H    0.230844
     9  H    0.278612
    10  H    0.275881
    11  H    0.222146
    12  N    0.487622
    13  O   -0.460489
    14  O   -0.457529
    15  C   -0.166203
    16  C   -0.234817
    17  C   -0.174405
    18  C    0.158663
    19  C   -0.168958
    20  C   -0.215293
    21  H    0.224265
    22  H    0.223170
    23  H    0.278506
    24  H    0.280784
    25  H    0.228217
    26  N    0.487912
    27  O   -0.455599
    28  O   -0.458845
 Sum of Mulliken charges =  -0.00000

 Dipole moment (field-independent basis, Debye):
    X=             -0.1703    Y=              8.8771    Z=              0.4063  Tot=              8.8880
 Quadrupole moment (field-independent basis, Debye-Ang):
   XX=           -130.7034   YY=           -108.5889   ZZ=            -99.8565
   XY=              2.4430   XZ=             -3.0298   YZ=             -0.4555

 Normal termination of Gaussian 16 at Wed May  5 16:30:09 2021.
