 Gaussian 16, Revision A.03,
 Gaussian 16:  EM64L-G16RevA.03 25-Dec-2016

 -------------
 #p 6-31g* mp2
 -------------

 ------------------------------------------------------
 Input file generated by CHIRIPA (05-May-2021 14:51:07)
 ------------------------------------------------------
 Symbolic Z-matrix:
 Charge =  0 Multiplicity = 1

                         Standard orientation:
 ---------------------------------------------------------------------
 Center     Atomic      Atomic             Coordinates (Angstroms)
 Number     Number       Type             X           Y           Z
 ---------------------------------------------------------------------
      1          6           0       -3.475066    0.262294   -0.458968
      2          6           0       -3.408692   -1.247314   -0.692771
      3          6           0       -4.759798   -1.844339   -1.087570
      4          1           0       -4.214179    0.473191    0.326003
      5          1           0       -3.840603    0.752012   -1.372179
      6          1           0       -3.042074   -1.733910    0.220154
      7          1           0       -2.669512   -1.454657   -1.477143
      8          1           0       -5.128611   -1.385787   -2.010776
      9          1           0       -5.503290   -1.666627   -0.303836
     10          1           0       -4.689439   -2.924423   -1.249830
     11          6           0       -2.132100    0.873719   -0.063586
     12          6           0       -2.198474    2.383327    0.170217
     13          6           0       -0.847368    2.980352    0.565016
     14          1           0       -1.766563    0.384001    0.849625
     15          1           0       -1.392987    0.662822   -0.848557
     16          1           0       -2.937654    2.590670    0.954589
     17          1           0       -2.565092    2.869923   -0.742708
     18          1           0       -0.103876    2.802640   -0.218719
     19          1           0       -0.478555    2.521800    1.488222
     20          1           0       -0.917727    4.060436    0.727276
     21          6           0        2.354651   -1.107190    0.563226
     22          6           0        1.181368   -0.540999    1.363740
     23          6           0        0.292381   -1.631934    1.961534
     24          1           0        1.966682   -1.747499   -0.240782
     25          1           0        2.956189   -1.754919    1.215908
     26          1           0        0.583004    0.106568    0.710110
     27          1           0        1.572169    0.098190    2.165818
     28          1           0        0.869747   -2.273026    2.635514
     29          1           0       -0.125037   -2.264600    1.171535
     30          1           0       -0.540014   -1.205007    2.529611
     31          6           0        3.252515   -0.028823   -0.040672
     32          6           0        4.425797   -0.595013   -0.841186
     33          6           0        5.314785    0.495920   -1.438979
     34          1           0        2.650977    0.618907   -0.693353
     35          1           0        3.640483    0.611487    0.763336
     36          1           0        4.034998   -1.234202   -1.643263
     37          1           0        5.024162   -1.242581   -0.187556
     38          1           0        5.732203    1.128586   -0.648981
     39          1           0        4.737419    1.137013   -2.112960
     40          1           0        6.147181    0.068995   -2.007056
 ---------------------------------------------------------------------

 SCF Done:  E(RHF) =  -470.731969890     A.U. after   11 cycles
 E2 =    -0.1584963891D+01 EUMP2 =    -0.47231693378120D+03

 The electronic state is 1-A.
 Alpha  occ. eigenvalues --  -11.21618 -11.21610 -11.21575 -11.21418 -11.21407
 Alpha  occ. eigenvalues --  -11.21353 -11.21344 -11.21286 -11.21080 -11.21068
 Alpha  occ. eigenvalues --  -11.21052 -11.21047  -1.08485  -1.08347  -1.03573
 Alpha  occ. eigenvalues --   -1.03459  -0.96012  -0.95931  -0.87015  -0.86958
 Alpha  occ. eigenvalues --   -0.79734  -0.79458  -0.78428  -0.78038  -0.65124
 Alpha  occ. eigenvalues --   -0.64984  -0.60956  -0.60897  -0.59469  -0.59224
 Alpha  occ. eigenvalues --   -0.57665  -0.57509  -0.55319  -0.55205  -0.52697
 Alpha  occ. eigenvalues --   -0.52633  -0.52480  -0.52317  -0.49938  -0.49891
 Alpha  occ. eigenvalues --   -0.48138  -0.47755  -0.46700  -0.46587  -0.46068
 Alpha  occ. eigenvalues --   -0.45732  -0.45681  -0.45103  -0.43797  -0.43735
 Alpha virt. eigenvalues --    0.21132   0.22770   0.23586   0.23947   0.25272
 Alpha virt. eigenvalues --    0.26412   0.26839   0.27765   0.29178   0.29863
 Alpha virt. eigenvalues --    0.30262   0.31061   0.31554   0.31765   0.32325

 Mulliken charges:
               1
     1  C   -0.296988
     2  C   -0.301548
     3  C   -0.475675
     4  H    0.149529
     5  H    0.149301
     6  H    0.154316
     7  H    0.151092
     8  H    0.155152
     9  H    0.155271
    10  H    0.160295
    11  C   -0.306896
    12  C   -0.298759
    13  C   -0.478332
    14  H    0.159527
    15  H    0.148400
    16  H    0.151766
    17  H    0.151687
    18  H    0.154808
    19  H    0.158200
    20  H    0.160315
    21  C   -0.297712
    22  C   -0.309935
    23  C   -0.478225
    24  H    0.149035
    25  H    0.148875
    26  H    0.166260
    27  H    0.150353
    28  H    0.155509
    29  H    0.157107
    30  H    0.157995
    31  C   -0.298182
    32  C   -0.299599
    33  C   -0.475630
    34  H    0.148840
    35  H    0.149861
    36  H    0.151688
    37  H    0.151971
    38  H    0.155257
    39  H    0.154945
    40  H    0.160129
 Sum of Mulliken charges =  -0.00000

 Dipole moment (field-independent basis, Debye):
    X=             -0.0320    Y=              0.0181    Z=              0.0070  Tot=              0.0374
 Quadrupole moment (field-independent basis, Debye-Ang):
   XX=            -85.8841   YY=            -85.5993   ZZ=            -83.4945
   XY=             -0.9485   XZ=              0.3142   YZ=              0.0596

 Normal termination of Gaussian 16 at Wed May  5 22:53:23 2021.
