 Gaussian 16, Revision A.03,
 Gaussian 16:  EM64L-G16RevA.03 25-Dec-2016

 -------------
 #p 6-31g* mp2
 -------------

 ------------------------------------------------------
 Input file generated by CHIRIPA (05-May-2021 14:53:13)
 ------------------------------------------------------
 Symbolic Z-matrix:
 Charge =  0 Multiplicity = 1

                         Standard orientation:
 ---------------------------------------------------------------------
 Center     Atomic      Atomic             Coordinates (Angstroms)
 Number     Number       Type             X           Y           Z
 ---------------------------------------------------------------------
      1          6           0        4.588602   -0.532076   -0.196404
      2          6           0        6.036558   -0.942426    0.073817
      3          6           0        6.339083   -2.372674   -0.374136
      4          1           0        3.914231   -1.229627    0.318951
      5          1           0        4.380749   -0.632540   -1.270694
      6          1           0        6.242030   -0.839897    1.147077
      7          1           0        6.707564   -0.243703   -0.442084
      8          1           0        6.161708   -2.485511   -1.448570
      9          1           0        5.693529   -3.085093    0.149620
     10          1           0        7.379542   -2.645216   -0.171588
     11          6           0        4.270792    0.895177    0.245948
     12          6           0        2.822835    1.305527   -0.024273
     13          6           0        2.520310    2.735775    0.423681
     14          1           0        4.478645    0.995641    1.320238
     15          1           0        4.945163    1.592728   -0.269406
     16          1           0        2.151830    0.606804    0.491628
     17          1           0        2.617364    1.202998   -1.097532
     18          1           0        3.165865    3.448193   -0.100075
     19          1           0        2.697686    2.848612    1.498114
     20          1           0        1.479851    3.008316    0.221133
     21          6           0       -1.112330    0.778610   -0.081449
     22          6           0       -1.334182   -0.548353    0.301269
     23          6           0       -2.631122   -1.068977    0.339296
     24          6           0       -3.687733   -0.230822   -0.013350
     25          6           0       -3.498991    1.095451   -0.398926
     26          6           0       -2.193536    1.594837   -0.429710
     27          1           0       -0.101529    1.174794   -0.108176
     28          1           0       -0.496411   -1.184551    0.572257
     29          1           0       -2.831370   -2.092573    0.631820
     30          1           0       -4.354220    1.705351   -0.663540
     31          1           0       -2.024229    2.625761   -0.727329
     32          7           0       -5.065252   -0.770741    0.023074
     33          8           0       -5.979159   -0.011816   -0.292269
     34          8           0       -5.204961   -1.942633    0.366276
 ---------------------------------------------------------------------

 SCF Done:  E(RHF) =  -669.535037323     A.U. after   15 cycles
 E2 =    -0.2091842151D+01 EUMP2 =    -0.67162687947375D+03

 The electronic state is 1-A.
 Alpha  occ. eigenvalues --  -20.60696 -20.60691 -15.85750 -11.31093 -11.27671
 Alpha  occ. eigenvalues --  -11.27667 -11.27313 -11.26665 -11.26654 -11.23017
 Alpha  occ. eigenvalues --  -11.22437 -11.22432 -11.22306 -11.22238 -11.21649
 Alpha  occ. eigenvalues --   -1.59772  -1.39326  -1.19264  -1.09446  -1.08654
 Alpha  occ. eigenvalues --   -1.04670  -1.04554  -0.96975  -0.95493  -0.87980
 Alpha  occ. eigenvalues --   -0.86065  -0.82342  -0.80662  -0.79212  -0.77389
 Alpha  occ. eigenvalues --   -0.71968  -0.71096  -0.70404  -0.66064  -0.64913
 Alpha  occ. eigenvalues --   -0.64688  -0.62032  -0.61917  -0.60446  -0.58635
 Alpha  occ. eigenvalues --   -0.56222  -0.55056  -0.53673  -0.53364  -0.52993
 Alpha  occ. eigenvalues --   -0.52760  -0.50888  -0.48956  -0.48724  -0.48723
 Alpha  occ. eigenvalues --   -0.47674  -0.46748  -0.46632  -0.44790  -0.44737
 Alpha  occ. eigenvalues --   -0.37228  -0.36282
 Alpha virt. eigenvalues --    0.05148   0.11370   0.16628   0.19448   0.22278
 Alpha virt. eigenvalues --    0.23757   0.24569   0.26090   0.26143   0.27749
 Alpha virt. eigenvalues --    0.29148   0.30055   0.30662   0.31201   0.32048

 Mulliken charges:
               1
     1  C   -0.298943
     2  C   -0.300533
     3  C   -0.476260
     4  H    0.147641
     5  H    0.151016
     6  H    0.153272
     7  H    0.153627
     8  H    0.156197
     9  H    0.155436
    10  H    0.162721
    11  C   -0.297758
    12  C   -0.308174
    13  C   -0.478734
    14  H    0.152709
    15  H    0.153653
    16  H    0.143978
    17  H    0.154770
    18  H    0.162629
    19  H    0.161729
    20  H    0.151971
    21  C   -0.180589
    22  C   -0.223648
    23  C   -0.170548
    24  C    0.157806
    25  C   -0.170514
    26  C   -0.222473
    27  H    0.246389
    28  H    0.222948
    29  H    0.275165
    30  H    0.275205
    31  H    0.222807
    32  N    0.487993
    33  O   -0.460720
    34  O   -0.460770
 Sum of Mulliken charges =  -0.00000

 Dipole moment (field-independent basis, Debye):
    X=              5.2159    Y=              1.9384    Z=             -0.1267  Tot=              5.5659
 Quadrupole moment (field-independent basis, Debye-Ang):
   XX=           -129.3041   YY=            -92.5337   ZZ=            -94.2906
   XY=             -9.3358   XZ=              0.9015   YZ=             -2.1098

 Normal termination of Gaussian 16 at Thu May  6 00:59:58 2021.
