 Gaussian 16, Revision A.03,
 Gaussian 16:  EM64L-G16RevA.03 25-Dec-2016

 -------------
 #p 6-31g* mp2
 -------------

 ------------------------------------------------------
 Input file generated by CHIRIPA (05-May-2021 14:51:08)
 ------------------------------------------------------
 Symbolic Z-matrix:
 Charge =  0 Multiplicity = 1

                         Standard orientation:
 ---------------------------------------------------------------------
 Center     Atomic      Atomic             Coordinates (Angstroms)
 Number     Number       Type             X           Y           Z
 ---------------------------------------------------------------------
      1          6           0        3.011597   -0.776481   -0.346463
      2          6           0        3.638361    0.455787    0.306734
      3          6           0        4.897870    0.932476   -0.417283
      4          1           0        3.752014   -1.587763   -0.369902
      5          1           0        2.768674   -0.544686   -1.392720
      6          1           0        3.878760    0.222173    1.351841
      7          1           0        2.896305    1.264169    0.328794
      8          1           0        4.669973    1.192556   -1.456043
      9          1           0        5.658011    0.144639   -0.427184
     10          1           0        5.329506    1.814308    0.066373
     11          6           0        1.751623   -1.264984    0.365969
     12          6           0        1.124858   -2.497252   -0.287227
     13          6           0       -0.134651   -2.973941    0.436789
     14          1           0        1.994545   -1.496779    1.412227
     15          1           0        1.011205   -0.453702    0.389409
     16          1           0        1.866914   -3.305634   -0.309288
     17          1           0        0.884459   -2.263637   -1.332334
     18          1           0       -0.894792   -2.186104    0.446691
     19          1           0        0.093246   -3.234021    1.475550
     20          1           0       -0.566287   -3.855773   -0.046866
     21          6           0       -3.108891    0.853859   -0.172992
     22          6           0       -3.450148   -0.623963    0.020834
     23          6           0       -4.908669   -0.942159   -0.309713
     24          1           0       -3.770630    1.462315    0.458536
     25          1           0       -3.320666    1.138558   -1.212941
     26          1           0       -3.236487   -0.906137    1.059748
     27          1           0       -2.787391   -1.228982   -0.611085
     28          1           0       -5.131918   -0.688259   -1.351009
     29          1           0       -5.583566   -0.363579    0.329318
     30          1           0       -5.130852   -2.003923   -0.164275
     31          6           0       -1.654328    1.187605    0.153486
     32          6           0       -1.313071    2.665428   -0.040341
     33          6           0        0.145450    2.983623    0.290206
     34          1           0       -1.442553    0.902907    1.193434
     35          1           0       -0.992589    0.579149   -0.478042
     36          1           0       -1.975829    3.270447    0.591578
     37          1           0       -1.526732    2.947601   -1.079254
     38          1           0        0.820347    2.405044   -0.348825
     39          1           0        0.368699    2.729724    1.331502
     40          1           0        0.367633    4.045387    0.144767
 ---------------------------------------------------------------------

 SCF Done:  E(RHF) =  -470.731641933     A.U. after   11 cycles
 E2 =    -0.1585849190D+01 EUMP2 =    -0.47231749112221D+03

 The electronic state is 1-A.
 Alpha  occ. eigenvalues --  -11.21713 -11.21652 -11.21510 -11.21505 -11.21472
 Alpha  occ. eigenvalues --  -11.21443 -11.21297 -11.21198 -11.21179 -11.21109
 Alpha  occ. eigenvalues --  -11.20997 -11.20880  -1.08557  -1.08314  -1.03632
 Alpha  occ. eigenvalues --   -1.03422  -0.96076  -0.95874  -0.87123  -0.86868
 Alpha  occ. eigenvalues --   -0.79762  -0.79461  -0.78529  -0.77985  -0.65290
 Alpha  occ. eigenvalues --   -0.64863  -0.61081  -0.60807  -0.59466  -0.59253
 Alpha  occ. eigenvalues --   -0.57692  -0.57474  -0.55383  -0.55165  -0.52771
 Alpha  occ. eigenvalues --   -0.52620  -0.52562  -0.52212  -0.50112  -0.49744
 Alpha  occ. eigenvalues --   -0.48169  -0.47720  -0.46797  -0.46782  -0.46124
 Alpha  occ. eigenvalues --   -0.45828  -0.45644  -0.44804  -0.43872  -0.43673
 Alpha virt. eigenvalues --    0.20637   0.22451   0.23657   0.24344   0.25606
 Alpha virt. eigenvalues --    0.26343   0.26990   0.27634   0.28657   0.30223
 Alpha virt. eigenvalues --    0.30827   0.31111   0.31661   0.31791   0.31960

 Mulliken charges:
               1
     1  C   -0.297347
     2  C   -0.307023
     3  C   -0.475172
     4  H    0.149385
     5  H    0.147693
     6  H    0.151467
     7  H    0.159848
     8  H    0.154437
     9  H    0.154866
    10  H    0.160072
    11  C   -0.307887
    12  C   -0.298817
    13  C   -0.485014
    14  H    0.148796
    15  H    0.159955
    16  H    0.151578
    17  H    0.149758
    18  H    0.166626
    19  H    0.154080
    20  H    0.158677
    21  C   -0.297303
    22  C   -0.304754
    23  C   -0.475090
    24  H    0.150000
    25  H    0.149495
    26  H    0.153287
    27  H    0.156039
    28  H    0.155114
    29  H    0.155208
    30  H    0.160968
    31  C   -0.303971
    32  C   -0.299627
    33  C   -0.480549
    34  H    0.151032
    35  H    0.153066
    36  H    0.152577
    37  H    0.152053
    38  H    0.158608
    39  H    0.156711
    40  H    0.161158
 Sum of Mulliken charges =  -0.00000

 Dipole moment (field-independent basis, Debye):
    X=             -0.1106    Y=              0.0852    Z=              0.0228  Tot=              0.1414
 Quadrupole moment (field-independent basis, Debye-Ang):
   XX=            -86.3943   YY=            -84.8465   ZZ=            -83.6981
   XY=             -1.1137   XZ=              0.2884   YZ=             -0.0447

 Normal termination of Gaussian 16 at Wed May  5 22:54:26 2021.
