 Gaussian 16, Revision A.03,
 Gaussian 16:  EM64L-G16RevA.03 25-Dec-2016

 -------------
 #p 6-31g* mp2
 -------------

 ------------------------------------------------------
 Input file generated by CHIRIPA (05-May-2021 14:55:25)
 ------------------------------------------------------
 Symbolic Z-matrix:
 Charge =  0 Multiplicity = 1

                         Standard orientation:
 ---------------------------------------------------------------------
 Center     Atomic      Atomic             Coordinates (Angstroms)
 Number     Number       Type             X           Y           Z
 ---------------------------------------------------------------------
      1          6           0        1.136328   -1.134834    1.706360
      2          6           0        0.694346   -0.426296    0.584242
      3          6           0        1.611553    0.180586   -0.278877
      4          6           0        2.969478    0.058365    0.011624
      5          6           0        3.440972   -0.640835    1.121626
      6          6           0        2.505816   -1.239657    1.971004
      7          1           0        0.416848   -1.603143    2.371514
      8          1           0       -0.368612   -0.343244    0.376235
      9          1           0        1.296860    0.735054   -1.154635
     10          1           0        4.506945   -0.706294    1.302830
     11          1           0        2.851944   -1.789294    2.841716
     12          7           0        3.949984    0.696577   -0.894848
     13          8           0        5.140946    0.574268   -0.616840
     14          8           0        3.508978    1.307032   -1.866185
     15          6           0       -3.767969   -0.681164   -0.143061
     16          6           0       -3.048166   -1.561946   -1.164869
     17          6           0       -3.406305   -3.041901   -1.026068
     18          1           0       -3.518805   -1.026773    0.869569
     19          1           0       -4.853140   -0.809188   -0.258851
     20          1           0       -1.964699   -1.431249   -1.048108
     21          1           0       -3.298920   -1.214081   -2.175181
     22          1           0       -4.481922   -3.192522   -1.163769
     23          1           0       -3.140120   -3.410923   -0.030292
     24          1           0       -2.880632   -3.653287   -1.766160
     25          6           0       -3.420200    0.801024   -0.269155
     26          6           0       -4.140002    1.681807    0.752654
     27          6           0       -3.781864    3.161761    0.613852
     28          1           0       -2.335028    0.929048   -0.153365
     29          1           0       -3.669364    1.146633   -1.281784
     30          1           0       -3.889248    1.333941    1.762965
     31          1           0       -5.223470    1.551109    0.635892
     32          1           0       -4.048048    3.530783   -0.381924
     33          1           0       -2.706247    3.312382    0.751552
     34          1           0       -4.307536    3.773147    1.353943
 ---------------------------------------------------------------------

 SCF Done:  E(RHF) =  -669.535011905     A.U. after   15 cycles
 E2 =    -0.2092157165D+01 EUMP2 =    -0.67162716906908D+03

 The electronic state is 1-A.
 Alpha  occ. eigenvalues --  -20.60753 -20.60748 -15.85807 -11.31180 -11.27759
 Alpha  occ. eigenvalues --  -11.27749 -11.27502 -11.26770 -11.26723 -11.22528
 Alpha  occ. eigenvalues --  -11.22382 -11.22328 -11.22294 -11.21830 -11.21629
 Alpha  occ. eigenvalues --   -1.59829  -1.39382  -1.19357  -1.09336  -1.08749
 Alpha  occ. eigenvalues --   -1.04763  -1.04315  -0.96756  -0.95583  -0.87765
 Alpha  occ. eigenvalues --   -0.86165  -0.82422  -0.80387  -0.79164  -0.77459
 Alpha  occ. eigenvalues --   -0.72026  -0.71152  -0.70467  -0.66145  -0.65008
 Alpha  occ. eigenvalues --   -0.64670  -0.62125  -0.61691  -0.60116  -0.58364
 Alpha  occ. eigenvalues --   -0.56059  -0.55263  -0.53417  -0.53177  -0.53079
 Alpha  occ. eigenvalues --   -0.52863  -0.50708  -0.48796  -0.48780  -0.48685
 Alpha  occ. eigenvalues --   -0.47442  -0.46642  -0.46588  -0.44786  -0.44601
 Alpha  occ. eigenvalues --   -0.37337  -0.36358
 Alpha virt. eigenvalues --    0.05068   0.11215   0.16490   0.18892   0.23024
 Alpha virt. eigenvalues --    0.23603   0.24901   0.26167   0.27087   0.28406
 Alpha virt. eigenvalues --    0.29510   0.30607   0.31176   0.31248   0.31811

 Mulliken charges:
               1
     1  C   -0.172943
     2  C   -0.228528
     3  C   -0.174264
     4  C    0.158712
     5  C   -0.170821
     6  C   -0.218470
     7  H    0.225761
     8  H    0.238771
     9  H    0.275770
    10  H    0.275671
    11  H    0.223366
    12  N    0.488128
    13  O   -0.460596
    14  O   -0.460242
    15  C   -0.299900
    16  C   -0.304244
    17  C   -0.475157
    18  H    0.145181
    19  H    0.155047
    20  H    0.145914
    21  H    0.157368
    22  H    0.158337
    23  H    0.152703
    24  H    0.164189
    25  C   -0.302667
    26  C   -0.299490
    27  C   -0.476594
    28  H    0.141651
    29  H    0.155346
    30  H    0.150660
    31  H    0.155011
    32  H    0.157614
    33  H    0.155861
    34  H    0.162855
 Sum of Mulliken charges =  -0.00000

 Dipole moment (field-independent basis, Debye):
    X=             -3.6588    Y=             -2.2266    Z=              3.1363  Tot=              5.3086
 Quadrupole moment (field-independent basis, Debye-Ang):
   XX=           -111.1887   YY=            -95.9961   ZZ=            -92.9732
   XY=             -8.7515   XZ=             12.7731   YZ=             -1.0088

 Normal termination of Gaussian 16 at Thu May  6 04:48:03 2021.
