 Gaussian 16, Revision A.03,
 Gaussian 16:  EM64L-G16RevA.03 25-Dec-2016

 -------------
 #p 6-31g* mp2
 -------------

 ------------------------------------------------------
 Input file generated by CHIRIPA (05-May-2021 14:57:23)
 ------------------------------------------------------
 Symbolic Z-matrix:
 Charge =  0 Multiplicity = 1

                         Standard orientation:
 ---------------------------------------------------------------------
 Center     Atomic      Atomic             Coordinates (Angstroms)
 Number     Number       Type             X           Y           Z
 ---------------------------------------------------------------------
      1          6           0       -2.816714    2.246920   -0.628826
      2          6           0       -4.100472    2.024938   -1.137952
      3          6           0       -4.779984    0.835918   -0.856806
      4          6           0       -4.143045   -0.113815   -0.059557
      5          6           0       -2.864750    0.078000    0.462418
      6          6           0       -2.204030    1.274457    0.168329
      7          1           0       -2.296151    3.173467   -0.852254
      8          1           0       -4.578742    2.778394   -1.757312
      9          1           0       -5.774485    0.638169   -1.237965
     10          1           0       -2.413820   -0.691751    1.076880
     11          1           0       -1.207115    1.444136    0.565084
     12          7           0       -4.852467   -1.376513    0.244931
     13          8           0       -4.269513   -2.197468    0.949796
     14          8           0       -5.978034   -1.521353   -0.227043
     15          6           0        1.893463    0.556050    1.290729
     16          6           0        3.068608    1.279570    1.518924
     17          6           0        4.256065    0.928182    0.870064
     18          6           0        4.232301   -0.157166   -0.004434
     19          6           0        3.077577   -0.897634   -0.252646
     20          6           0        1.901684   -0.528332    0.407230
     21          1           0        0.975509    0.835975    1.799058
     22          1           0        3.065179    2.122173    2.204529
     23          1           0        5.180032    1.471006    1.028321
     24          1           0        3.112138   -1.732756   -0.941700
     25          1           0        0.990540   -1.092040    0.228082
     26          7           0        5.483289   -0.538647   -0.697184
     27          8           0        5.436061   -1.498916   -1.462881
     28          8           0        6.487353    0.129839   -0.461346
 ---------------------------------------------------------------------

 SCF Done:  E(RHF) =  -868.336697429     A.U. after   16 cycles
 E2 =    -0.2599940537D+01 EUMP2 =    -0.87093663796571D+03

 The electronic state is 1-A.
 Alpha  occ. eigenvalues --  -20.61395 -20.61380 -20.61191 -20.61185 -15.86450
 Alpha  occ. eigenvalues --  -15.86247 -11.31928 -11.31765 -11.28599 -11.28462
 Alpha  occ. eigenvalues --  -11.28323 -11.28311 -11.28255 -11.28230 -11.27649
 Alpha  occ. eigenvalues --  -11.27474 -11.27436 -11.27426  -1.60464  -1.60262
 Alpha  occ. eigenvalues --   -1.40015  -1.39811  -1.20113  -1.19955  -1.09478
 Alpha  occ. eigenvalues --   -1.09354  -1.05554  -1.05364  -0.96294  -0.96161
 Alpha  occ. eigenvalues --   -0.86939  -0.86773  -0.83148  -0.82967  -0.78184
 Alpha  occ. eigenvalues --   -0.77965  -0.72664  -0.72464  -0.71790  -0.71586
 Alpha  occ. eigenvalues --   -0.71217  -0.71143  -0.65772  -0.65649  -0.65566
 Alpha  occ. eigenvalues --   -0.65353  -0.62923  -0.62681  -0.56088  -0.55910
 Alpha  occ. eigenvalues --   -0.53852  -0.53756  -0.53575  -0.53459  -0.49432
 Alpha  occ. eigenvalues --   -0.49414  -0.49236  -0.49208  -0.45397  -0.45181
 Alpha  occ. eigenvalues --   -0.38077  -0.37988  -0.37160  -0.36945
 Alpha virt. eigenvalues --    0.04378   0.04514   0.10466   0.10700   0.15797
 Alpha virt. eigenvalues --    0.15847   0.18009   0.22021   0.24863   0.26000
 Alpha virt. eigenvalues --    0.27815   0.28919   0.29909   0.31345   0.32628

 Mulliken charges:
               1
     1  C   -0.170714
     2  C   -0.217962
     3  C   -0.169686
     4  C    0.159595
     5  C   -0.173690
     6  C   -0.220746
     7  H    0.228326
     8  H    0.226535
     9  H    0.278240
    10  H    0.271093
    11  H    0.217850
    12  N    0.488141
    13  O   -0.460873
    14  O   -0.457529
    15  C   -0.176619
    16  C   -0.217896
    17  C   -0.170640
    18  C    0.159693
    19  C   -0.170181
    20  C   -0.218098
    21  H    0.219178
    22  H    0.224447
    23  H    0.277445
    24  H    0.278872
    25  H    0.224489
    26  N    0.487845
    27  O   -0.458098
    28  O   -0.459016
 Sum of Mulliken charges =  -0.00000

 Dipole moment (field-independent basis, Debye):
    X=             -1.9068    Y=              5.7891    Z=              1.2088  Tot=              6.2138
 Quadrupole moment (field-independent basis, Debye-Ang):
   XX=           -157.4158   YY=           -103.6761   ZZ=           -103.4279
   XY=            -12.0450   XZ=             18.7126   YZ=              0.3743

 Normal termination of Gaussian 16 at Fri May  7 06:25:57 2021.
