 Gaussian 16, Revision A.03,
 Gaussian 16:  EM64L-G16RevA.03 25-Dec-2016

 -------------
 #p 6-31g* mp2
 -------------

 ------------------------------------------------------
 Input file generated by CHIRIPA (05-May-2021 14:57:27)
 ------------------------------------------------------
 Symbolic Z-matrix:
 Charge =  0 Multiplicity = 1

                         Standard orientation:
 ---------------------------------------------------------------------
 Center     Atomic      Atomic             Coordinates (Angstroms)
 Number     Number       Type             X           Y           Z
 ---------------------------------------------------------------------
      1          6           0       -4.352543    1.875432    0.739408
      2          6           0       -4.034071    1.719584   -0.613665
      3          6           0       -3.295626    0.614195   -1.046520
      4          6           0       -2.889962   -0.320253   -0.094924
      5          6           0       -3.191538   -0.192963    1.260118
      6          6           0       -3.931003    0.920345    1.670340
      7          1           0       -4.926581    2.737201    1.066870
      8          1           0       -4.360119    2.459732   -1.338866
      9          1           0       -3.035199    0.468847   -2.087899
     10          1           0       -2.852555   -0.947474    1.959562
     11          1           0       -4.176878    1.038791    2.721797
     12          7           0       -2.107663   -1.494671   -0.541188
     13          8           0       -1.762060   -2.303827    0.316985
     14          8           0       -1.854914   -1.583786   -1.740694
     15          6           0        3.671789    2.548518   -0.251436
     16          6           0        2.425235    2.104270   -0.704502
     17          6           0        2.052919    0.764631   -0.558581
     18          6           0        2.955774   -0.107438    0.047749
     19          6           0        4.204864    0.304797    0.509407
     20          6           0        4.556066    1.648949    0.353007
     21          1           0        3.952812    3.590935   -0.368860
     22          1           0        1.736475    2.800650   -1.174300
     23          1           0        1.094158    0.393904   -0.900280
     24          1           0        4.870181   -0.412967    0.973720
     25          1           0        5.524814    1.991147    0.705813
     26          7           0        2.572796   -1.528043    0.207775
     27          8           0        3.386175   -2.276431    0.745334
     28          8           0        1.466492   -1.866227   -0.207384
 ---------------------------------------------------------------------

 SCF Done:  E(RHF) =  -868.335265009     A.U. after   16 cycles
 E2 =    -0.2601340092D+01 EUMP2 =    -0.87093660510074D+03

 The electronic state is 1-A.
 Alpha  occ. eigenvalues --  -20.60191 -20.60094 -20.59958 -20.59844 -15.85205
 Alpha  occ. eigenvalues --  -15.84950 -11.31000 -11.30685 -11.27636 -11.27566
 Alpha  occ. eigenvalues --  -11.27408 -11.27304 -11.27290 -11.27127 -11.26725
 Alpha  occ. eigenvalues --  -11.26675 -11.26412 -11.26396  -1.59190  -1.58980
 Alpha  occ. eigenvalues --   -1.38744  -1.38519  -1.19203  -1.18898  -1.08514
 Alpha  occ. eigenvalues --   -1.08230  -1.04660  -1.04355  -0.95278  -0.94995
 Alpha  occ. eigenvalues --   -0.86036  -0.85737  -0.82107  -0.81821  -0.77086
 Alpha  occ. eigenvalues --   -0.76816  -0.71430  -0.71216  -0.70471  -0.70292
 Alpha  occ. eigenvalues --   -0.70290  -0.70004  -0.64836  -0.64656  -0.64534
 Alpha  occ. eigenvalues --   -0.64367  -0.61996  -0.61697  -0.55134  -0.54855
 Alpha  occ. eigenvalues --   -0.52979  -0.52747  -0.52667  -0.52454  -0.48217
 Alpha  occ. eigenvalues --   -0.48152  -0.47909  -0.47895  -0.44180  -0.43691
 Alpha  occ. eigenvalues --   -0.37209  -0.36904  -0.36291  -0.35976
 Alpha virt. eigenvalues --    0.05441   0.05738   0.11349   0.11672   0.16860
 Alpha virt. eigenvalues --    0.17161   0.21472   0.21730   0.27357   0.27542
 Alpha virt. eigenvalues --    0.28336   0.28621   0.30804   0.31335   0.32543

 Mulliken charges:
               1
     1  C   -0.172443
     2  C   -0.219081
     3  C   -0.175835
     4  C    0.157572
     5  C   -0.171297
     6  C   -0.218589
     7  H    0.224121
     8  H    0.221319
     9  H    0.274028
    10  H    0.278401
    11  H    0.223189
    12  N    0.488821
    13  O   -0.445641
    14  O   -0.463027
    15  C   -0.172014
    16  C   -0.218652
    17  C   -0.171897
    18  C    0.159037
    19  C   -0.171498
    20  C   -0.218660
    21  H    0.222830
    22  H    0.219869
    23  H    0.276826
    24  H    0.275215
    25  H    0.221572
    26  N    0.486883
    27  O   -0.465019
    28  O   -0.446028
 Sum of Mulliken charges =  -0.00000

 Dipole moment (field-independent basis, Debye):
    X=             -1.4775    Y=              8.7636    Z=              1.0659  Tot=              8.9509
 Quadrupole moment (field-independent basis, Debye-Ang):
   XX=            -79.1444   YY=           -109.0262   ZZ=           -100.6672
   XY=              2.6785   XZ=             -3.7977   YZ=             -2.8577

 Normal termination of Gaussian 16 at Fri May  7 03:36:13 2021.
