 Gaussian 16, Revision A.03,
 Gaussian 16:  EM64L-G16RevA.03 25-Dec-2016

 -------------
 #p 6-31g* mp2
 -------------

 ------------------------------------------------------
 Input file generated by CHIRIPA (05-May-2021 14:51:08)
 ------------------------------------------------------
 Symbolic Z-matrix:
 Charge =  0 Multiplicity = 1

                         Standard orientation:
 ---------------------------------------------------------------------
 Center     Atomic      Atomic             Coordinates (Angstroms)
 Number     Number       Type             X           Y           Z
 ---------------------------------------------------------------------
      1          6           0        2.607990    1.315878   -0.227613
      2          6           0        1.840364    1.823203    0.993599
      3          6           0        1.077231    3.118695    0.715893
      4          1           0        3.310142    2.092650   -0.560107
      5          1           0        1.902860    1.156944   -1.055216
      6          1           0        2.546536    1.979815    1.819074
      7          1           0        1.140094    1.045059    1.323340
      8          1           0        0.350892    2.972713   -0.090160
      9          1           0        1.765325    3.912781    0.408391
     10          1           0        0.535646    3.463494    1.602267
     11          6           0        3.375942    0.021513    0.034297
     12          6           0        4.143568   -0.485812   -1.186914
     13          6           0        4.906701   -1.781305   -0.909209
     14          1           0        4.081072    0.180447    0.861900
     15          1           0        2.673790   -0.755260    0.366791
     16          1           0        4.843838    0.292332   -1.516656
     17          1           0        3.437396   -0.642425   -2.012390
     18          1           0        4.218608   -2.575390   -0.601707
     19          1           0        5.633040   -1.635323   -0.103156
     20          1           0        5.448286   -2.126103   -1.795583
     21          6           0       -3.301071   -0.113377   -0.327025
     22          6           0       -4.826693   -0.184569   -0.400465
     23          6           0       -5.430351    0.932991   -1.251610
     24          1           0       -3.005176    0.862089    0.082680
     25          1           0       -2.889247   -0.162960   -1.344540
     26          1           0       -5.235456   -0.136259    0.616981
     27          1           0       -5.118997   -1.160052   -0.809863
     28          1           0       -5.050402    0.884174   -2.277211
     29          1           0       -5.167523    1.913784   -0.842260
     30          1           0       -6.521889    0.863031   -1.290504
     31          6           0       -2.682860   -1.224014    0.520341
     32          6           0       -1.157239   -1.152821    0.593780
     33          6           0       -0.553581   -2.270382    1.444926
     34          1           0       -3.094686   -1.174430    1.537856
     35          1           0       -2.978757   -2.199479    0.110636
     36          1           0       -0.864935   -0.177338    1.003180
     37          1           0       -0.748476   -1.201131   -0.423665
     38          1           0       -0.816408   -3.251174    1.035575
     39          1           0       -0.933530   -2.221564    2.470527
     40          1           0        0.537956   -2.200421    1.483820
 ---------------------------------------------------------------------

 SCF Done:  E(RHF) =  -470.733254342     A.U. after   11 cycles
 E2 =    -0.1583534324D+01 EUMP2 =    -0.47231678866649D+03

 The electronic state is 1-A.
 Alpha  occ. eigenvalues --  -11.21671 -11.21631 -11.21595 -11.21547 -11.21454
 Alpha  occ. eigenvalues --  -11.21393 -11.21388 -11.21325 -11.21151 -11.21092
 Alpha  occ. eigenvalues --  -11.21067 -11.21062  -1.08490  -1.08404  -1.03594
 Alpha  occ. eigenvalues --   -1.03506  -0.96031  -0.95965  -0.87049  -0.86978
 Alpha  occ. eigenvalues --   -0.79695  -0.79539  -0.78329  -0.78196  -0.65169
 Alpha  occ. eigenvalues --   -0.65007  -0.61104  -0.60809  -0.59407  -0.59322
 Alpha  occ. eigenvalues --   -0.57648  -0.57574  -0.55326  -0.55243  -0.52736
 Alpha  occ. eigenvalues --   -0.52657  -0.52466  -0.52378  -0.49999  -0.49892
 Alpha  occ. eigenvalues --   -0.48083  -0.47817  -0.46882  -0.46450  -0.45938
 Alpha  occ. eigenvalues --   -0.45794  -0.45715  -0.45460  -0.43832  -0.43768
 Alpha virt. eigenvalues --    0.19991   0.22941   0.23679   0.24180   0.25963
 Alpha virt. eigenvalues --    0.26341   0.26658   0.27823   0.28580   0.29265
 Alpha virt. eigenvalues --    0.30189   0.31409   0.31703   0.31816   0.32094

 Mulliken charges:
               1
     1  C   -0.297560
     2  C   -0.306557
     3  C   -0.476223
     4  H    0.149495
     5  H    0.149982
     6  H    0.151672
     7  H    0.158961
     8  H    0.155683
     9  H    0.155377
    10  H    0.159513
    11  C   -0.302756
    12  C   -0.299450
    13  C   -0.475755
    14  H    0.149510
    15  H    0.153327
    16  H    0.152032
    17  H    0.151805
    18  H    0.155093
    19  H    0.155206
    20  H    0.160238
    21  C   -0.298640
    22  C   -0.299676
    23  C   -0.475793
    24  H    0.150035
    25  H    0.149297
    26  H    0.152071
    27  H    0.152009
    28  H    0.155162
    29  H    0.155391
    30  H    0.160382
    31  C   -0.297597
    32  C   -0.305677
    33  C   -0.479586
    34  H    0.149797
    35  H    0.149826
    36  H    0.157513
    37  H    0.151545
    38  H    0.155768
    39  H    0.155803
    40  H    0.162773
 Sum of Mulliken charges =  -0.00000

 Dipole moment (field-independent basis, Debye):
    X=             -0.0262    Y=             -0.0091    Z=              0.0043  Tot=              0.0280
 Quadrupole moment (field-independent basis, Debye-Ang):
   XX=            -84.8098   YY=            -85.5943   ZZ=            -84.3475
   XY=              1.4045   XZ=             -0.2160   YZ=              1.1080

 Normal termination of Gaussian 16 at Thu May  6 03:39:52 2021.
