 Gaussian 16, Revision A.03,
 Gaussian 16:  EM64L-G16RevA.03 25-Dec-2016

 -------------
 #p 6-31g* mp2
 -------------

 ------------------------------------------------------
 Input file generated by CHIRIPA (05-May-2021 14:55:23)
 ------------------------------------------------------
 Symbolic Z-matrix:
 Charge =  0 Multiplicity = 1

                         Standard orientation:
 ---------------------------------------------------------------------
 Center     Atomic      Atomic             Coordinates (Angstroms)
 Number     Number       Type             X           Y           Z
 ---------------------------------------------------------------------
      1          6           0       -4.882453    0.797253   -0.538713
      2          6           0       -4.457834   -0.448083   -1.013432
      3          6           0       -3.210564   -0.960838   -0.644720
      4          6           0       -2.409847   -0.198135    0.204059
      5          6           0       -2.804774    1.045894    0.693667
      6          6           0       -4.056025    1.538959    0.311822
      7          1           0       -5.852909    1.187925   -0.830238
      8          1           0       -5.097552   -1.026296   -1.674096
      9          1           0       -2.857015   -1.922050   -0.997556
     10          1           0       -2.144974    1.599166    1.350913
     11          1           0       -4.383188    2.506405    0.682034
     12          7           0       -1.087311   -0.730543    0.601350
     13          8           0       -0.400534   -0.039082    1.350253
     14          8           0       -0.762527   -1.829225    0.156321
     15          6           0        3.280124    0.828196    0.146085
     16          6           0        3.660400    1.984475   -0.779330
     17          6           0        3.488051    3.352204   -0.117965
     18          1           0        2.237178    0.952502    0.468197
     19          1           0        3.895891    0.877295    1.054830
     20          1           0        3.045063    1.932402   -1.686669
     21          1           0        4.702503    1.857298   -1.099429
     22          1           0        4.114301    3.429140    0.776738
     23          1           0        2.447444    3.504672    0.186161
     24          1           0        3.765486    4.164374   -0.797132
     25          6           0        3.447087   -0.545603   -0.500853
     26          6           0        3.066811   -1.701882    0.424562
     27          6           0        3.239160   -3.069612   -0.236804
     28          1           0        2.831320   -0.594702   -1.409597
     29          1           0        4.490033   -0.669910   -0.822965
     30          1           0        2.024708   -1.574705    0.744661
     31          1           0        3.682148   -1.649810    1.331902
     32          1           0        4.279767   -3.222080   -0.540928
     33          1           0        2.612910   -3.146548   -1.131506
     34          1           0        2.961725   -3.881781    0.442365
 ---------------------------------------------------------------------

 SCF Done:  E(RHF) =  -669.537308731     A.U. after   15 cycles
 E2 =    -0.2092878225D+01 EUMP2 =    -0.67163018695602D+03

 The electronic state is 1-A.
 Alpha  occ. eigenvalues --  -20.61325 -20.61320 -15.86282 -11.31495 -11.28033
 Alpha  occ. eigenvalues --  -11.28029 -11.27749 -11.27010 -11.27000 -11.20591
 Alpha  occ. eigenvalues --  -11.20302 -11.19894 -11.19830 -11.19511 -11.19427
 Alpha  occ. eigenvalues --   -1.60338  -1.39897  -1.19643  -1.09072  -1.06967
 Alpha  occ. eigenvalues --   -1.05018  -1.02119  -0.95930  -0.94629  -0.86425
 Alpha  occ. eigenvalues --   -0.85665  -0.82769  -0.78220  -0.77838  -0.76695
 Alpha  occ. eigenvalues --   -0.72484  -0.71628  -0.70750  -0.65298  -0.65024
 Alpha  occ. eigenvalues --   -0.63600  -0.62365  -0.59520  -0.58048  -0.56208
 Alpha  occ. eigenvalues --   -0.55527  -0.53930  -0.53356  -0.53106  -0.51385
 Alpha  occ. eigenvalues --   -0.51055  -0.49374  -0.49266  -0.48596  -0.46529
 Alpha  occ. eigenvalues --   -0.45472  -0.45068  -0.44289  -0.43893  -0.42359
 Alpha  occ. eigenvalues --   -0.37613  -0.36611
 Alpha virt. eigenvalues --    0.04649   0.11046   0.16153   0.21179   0.24258
 Alpha virt. eigenvalues --    0.25677   0.27125   0.27864   0.28240   0.29036
 Alpha virt. eigenvalues --    0.29452   0.30862   0.32301   0.32682   0.33058

 Mulliken charges:
               1
     1  C   -0.170092
     2  C   -0.218627
     3  C   -0.170437
     4  C    0.159875
     5  C   -0.170569
     6  C   -0.218602
     7  H    0.226806
     8  H    0.224593
     9  H    0.276345
    10  H    0.276225
    11  H    0.224653
    12  N    0.488461
    13  O   -0.458353
    14  O   -0.456856
    15  C   -0.305915
    16  C   -0.298029
    17  C   -0.474097
    18  H    0.167863
    19  H    0.145476
    20  H    0.147487
    21  H    0.148509
    22  H    0.154258
    23  H    0.152972
    24  H    0.155302
    25  C   -0.295655
    26  C   -0.313211
    27  C   -0.472162
    28  H    0.144844
    29  H    0.141632
    30  H    0.187428
    31  H    0.142810
    32  H    0.145583
    33  H    0.154025
    34  H    0.157458
 Sum of Mulliken charges =  -0.00000

 Dipole moment (field-independent basis, Debye):
    X=             -5.2816    Y=              1.8262    Z=             -1.2559  Tot=              5.7278
 Quadrupole moment (field-independent basis, Debye-Ang):
   XX=            -73.4471   YY=            -94.3032   ZZ=            -94.5906
   XY=             -2.8218   XZ=              3.8863   YZ=              2.9758

 Normal termination of Gaussian 16 at Wed May  5 16:03:13 2021.
