 Gaussian 16, Revision A.03,
 Gaussian 16:  EM64L-G16RevA.03 25-Dec-2016

 -------------
 #p 6-31g* mp2
 -------------

 ------------------------------------------------------
 Input file generated by CHIRIPA (05-May-2021 14:53:18)
 ------------------------------------------------------
 Symbolic Z-matrix:
 Charge =  0 Multiplicity = 1

                         Standard orientation:
 ---------------------------------------------------------------------
 Center     Atomic      Atomic             Coordinates (Angstroms)
 Number     Number       Type             X           Y           Z
 ---------------------------------------------------------------------
      1          6           0       -3.721315   -0.314512   -0.114158
      2          6           0       -5.050535   -0.598570   -0.814494
      3          6           0       -5.209755   -2.067691   -1.207083
      4          1           0       -2.895270   -0.610472   -0.775220
      5          1           0       -3.645259   -0.944959    0.782585
      6          1           0       -5.124673    0.033228   -1.708893
      7          1           0       -5.873509   -0.301722   -0.151763
      8          1           0       -5.161934   -2.710321   -0.322018
      9          1           0       -4.408843   -2.373468   -1.887995
     10          1           0       -6.166862   -2.248399   -1.706235
     11          6           0       -3.547416    1.149924    0.284483
     12          6           0       -2.218196    1.433982    0.984818
     13          6           0       -2.058976    2.903102    1.377408
     14          1           0       -3.623472    1.780370   -0.612260
     15          1           0       -4.373461    1.445883    0.945545
     16          1           0       -1.395222    1.137134    0.322088
     17          1           0       -2.144058    0.802183    1.879218
     18          1           0       -2.859888    3.208879    2.058320
     19          1           0       -2.106797    3.545733    0.492343
     20          1           0       -1.101869    3.083810    1.876560
     21          6           0        3.839917    1.684266   -1.216437
     22          6           0        2.456688    1.603805   -1.024800
     23          6           0        1.891332    0.494492   -0.388917
     24          6           0        2.742617   -0.520710    0.044636
     25          6           0        4.124508   -0.469682   -0.131611
     26          6           0        4.667953    0.649091   -0.770018
     27          1           0        4.270589    2.549681   -1.711385
     28          1           0        1.811193    2.406241   -1.370457
     29          1           0        0.823788    0.406492   -0.227600
     30          1           0        4.742346   -1.285347    0.223896
     31          1           0        5.742533    0.708883   -0.917487
     32          7           0        2.155698   -1.700097    0.719152
     33          8           0        2.927314   -2.581188    1.091876
     34          8           0        0.935168   -1.721078    0.862341
 ---------------------------------------------------------------------

 SCF Done:  E(RHF) =  -669.535455017     A.U. after   15 cycles
 E2 =    -0.2091344102D+01 EUMP2 =    -0.67162679911937D+03

 The electronic state is 1-A.
 Alpha  occ. eigenvalues --  -20.60750 -20.60744 -15.85801 -11.31170 -11.27745
 Alpha  occ. eigenvalues --  -11.27725 -11.27493 -11.26765 -11.26752 -11.21731
 Alpha  occ. eigenvalues --  -11.21388 -11.21361 -11.21287 -11.21112 -11.20780
 Alpha  occ. eigenvalues --   -1.59825  -1.39378  -1.19347  -1.08743  -1.08341
 Alpha  occ. eigenvalues --   -1.04753  -1.03477  -0.95913  -0.95576  -0.86929
 Alpha  occ. eigenvalues --   -0.86151  -0.82407  -0.79549  -0.78117  -0.77445
 Alpha  occ. eigenvalues --   -0.72020  -0.71148  -0.70465  -0.65022  -0.64993
 Alpha  occ. eigenvalues --   -0.64737  -0.62129  -0.60866  -0.59291  -0.57513
 Alpha  occ. eigenvalues --   -0.55271  -0.55189  -0.53081  -0.52865  -0.52625
 Alpha  occ. eigenvalues --   -0.52321  -0.49853  -0.48782  -0.48776  -0.47843
 Alpha  occ. eigenvalues --   -0.46589  -0.45656  -0.45567  -0.44782  -0.43710
 Alpha  occ. eigenvalues --   -0.37332  -0.36355
 Alpha virt. eigenvalues --    0.05077   0.11293   0.16569   0.20108   0.23028
 Alpha virt. eigenvalues --    0.24114   0.25342   0.27170   0.27651   0.28135
 Alpha virt. eigenvalues --    0.29278   0.30852   0.31496   0.31700   0.31914

 Mulliken charges:
               1
     1  C   -0.298337
     2  C   -0.299882
     3  C   -0.475608
     4  H    0.150889
     5  H    0.155885
     6  H    0.149406
     7  H    0.151222
     8  H    0.157781
     9  H    0.156231
    10  H    0.158795
    11  C   -0.298087
    12  C   -0.302697
    13  C   -0.476662
    14  H    0.146087
    15  H    0.150593
    16  H    0.144122
    17  H    0.162376
    18  H    0.158264
    19  H    0.151036
    20  H    0.159304
    21  C   -0.170629
    22  C   -0.222695
    23  C   -0.181127
    24  C    0.157777
    25  C   -0.169898
    26  C   -0.219111
    27  H    0.225582
    28  H    0.223510
    29  H    0.291261
    30  H    0.275601
    31  H    0.223413
    32  N    0.486339
    33  O   -0.460547
    34  O   -0.460196
 Sum of Mulliken charges =  -0.00000

 Dipole moment (field-independent basis, Debye):
    X=              2.0050    Y=              4.0607    Z=             -2.2805  Tot=              5.0705
 Quadrupole moment (field-independent basis, Debye-Ang):
   XX=            -79.0610   YY=           -100.1041   ZZ=            -94.9411
   XY=              8.4699   XZ=             -6.8483   YZ=              0.6037

 Normal termination of Gaussian 16 at Thu May  6 02:49:13 2021.
