 Gaussian 16, Revision A.03,
 Gaussian 16:  EM64L-G16RevA.03 25-Dec-2016

 -------------
 #p 6-31g* mp2
 -------------

 ------------------------------------------------------
 Input file generated by CHIRIPA (05-May-2021 14:55:20)
 ------------------------------------------------------
 Symbolic Z-matrix:
 Charge =  0 Multiplicity = 1

                         Standard orientation:
 ---------------------------------------------------------------------
 Center     Atomic      Atomic             Coordinates (Angstroms)
 Number     Number       Type             X           Y           Z
 ---------------------------------------------------------------------
      1          6           0        4.703814    0.817266    0.633050
      2          6           0        3.668483    1.714904    0.352234
      3          6           0        2.430081    1.251027   -0.101336
      4          6           0        2.260883   -0.123136   -0.263623
      5          6           0        3.272980   -1.042562    0.007682
      6          6           0        4.503111   -0.556181    0.460182
      7          1           0        5.662622    1.186358    0.984979
      8          1           0        3.821506    2.782074    0.485565
      9          1           0        1.611419    1.923813   -0.326216
     10          1           0        3.090455   -2.100753   -0.134922
     11          1           0        5.305366   -1.255619    0.677484
     12          7           0        0.954220   -0.626134   -0.743232
     13          8           0        0.830471   -1.841516   -0.878023
     14          8           0        0.078548    0.204523   -0.975275
     15          6           0       -3.240418   -0.653190   -0.049788
     16          6           0       -2.777719   -1.747595    0.912590
     17          6           0       -2.925606   -3.151834    0.326043
     18          1           0       -4.290529   -0.830786   -0.319365
     19          1           0       -2.662092   -0.725245   -0.981315
     20          1           0       -3.355789   -1.672627    1.842553
     21          1           0       -1.728644   -1.567266    1.180058
     22          1           0       -2.335161   -3.250598   -0.590593
     23          1           0       -3.971551   -3.356558    0.075667
     24          1           0       -2.589063   -3.918723    1.030658
     25          6           0       -3.098749    0.756195    0.522308
     26          6           0       -3.561448    1.850599   -0.440071
     27          6           0       -3.413561    3.254838    0.146477
     28          1           0       -3.677074    0.828249    1.453834
     29          1           0       -2.048638    0.933789    0.791884
     30          1           0       -4.610523    1.670271   -0.707538
     31          1           0       -2.983378    1.775631   -1.370034
     32          1           0       -2.367616    3.459562    0.396853
     33          1           0       -4.004006    3.353603    1.063112
     34          1           0       -3.750104    4.021727   -0.558138
 ---------------------------------------------------------------------

 SCF Done:  E(RHF) =  -669.536810232     A.U. after   15 cycles
 E2 =    -0.2093133119D+01 EUMP2 =    -0.67162994335040D+03

 The electronic state is 1-A.
 Alpha  occ. eigenvalues --  -20.61242 -20.61233 -15.86225 -11.31450 -11.27998
 Alpha  occ. eigenvalues --  -11.27993 -11.27716 -11.26979 -11.26970 -11.20358
 Alpha  occ. eigenvalues --  -11.20226 -11.20045 -11.19856 -11.19549 -11.19538
 Alpha  occ. eigenvalues --   -1.60273  -1.39833  -1.19606  -1.09031  -1.06892
 Alpha  occ. eigenvalues --   -1.04985  -1.02158  -0.95889  -0.94606  -0.86390
 Alpha  occ. eigenvalues --   -0.85643  -0.82727  -0.78246  -0.77792  -0.76699
 Alpha  occ. eigenvalues --   -0.72463  -0.71582  -0.70713  -0.65269  -0.64992
 Alpha  occ. eigenvalues --   -0.63447  -0.62332  -0.59539  -0.58026  -0.56241
 Alpha  occ. eigenvalues --   -0.55492  -0.53879  -0.53319  -0.53071  -0.51388
 Alpha  occ. eigenvalues --   -0.51071  -0.49268  -0.49197  -0.48480  -0.46584
 Alpha  occ. eigenvalues --   -0.45457  -0.45057  -0.44229  -0.44028  -0.42356
 Alpha  occ. eigenvalues --   -0.37576  -0.36579
 Alpha virt. eigenvalues --    0.04688   0.11076   0.16177   0.21124   0.24306
 Alpha virt. eigenvalues --    0.25539   0.27055   0.27564   0.28680   0.28939
 Alpha virt. eigenvalues --    0.29305   0.30986   0.31893   0.32784   0.33234

 Mulliken charges:
               1
     1  C   -0.170168
     2  C   -0.218521
     3  C   -0.170563
     4  C    0.157923
     5  C   -0.170373
     6  C   -0.218604
     7  H    0.226672
     8  H    0.224558
     9  H    0.275822
    10  H    0.276301
    11  H    0.224442
    12  N    0.489999
    13  O   -0.458041
    14  O   -0.459999
    15  C   -0.301175
    16  C   -0.295130
    17  C   -0.476974
    18  H    0.139474
    19  H    0.172359
    20  H    0.142283
    21  H    0.151401
    22  H    0.168322
    23  H    0.147986
    24  H    0.152723
    25  C   -0.295148
    26  C   -0.300431
    27  C   -0.473864
    28  H    0.139601
    29  H    0.154438
    30  H    0.147234
    31  H    0.159853
    32  H    0.149910
    33  H    0.151847
    34  H    0.155844
 Sum of Mulliken charges =  -0.00000

 Dipole moment (field-independent basis, Debye):
    X=              5.1100    Y=              1.6992    Z=              1.4471  Tot=              5.5761
 Quadrupole moment (field-independent basis, Debye-Ang):
   XX=            -74.3405   YY=            -92.8144   ZZ=            -96.6498
   XY=              1.7859   XZ=              3.2087   YZ=             -0.9874

 Normal termination of Gaussian 16 at Thu May  6 15:45:51 2021.
