 Gaussian 16, Revision A.03,
 Gaussian 16:  EM64L-G16RevA.03 25-Dec-2016

 -------------
 #p 6-31g* mp2
 -------------

 ------------------------------------------------------
 Input file generated by CHIRIPA (05-May-2021 14:57:26)
 ------------------------------------------------------
 Symbolic Z-matrix:
 Charge =  0 Multiplicity = 1

                         Standard orientation:
 ---------------------------------------------------------------------
 Center     Atomic      Atomic             Coordinates (Angstroms)
 Number     Number       Type             X           Y           Z
 ---------------------------------------------------------------------
      1          6           0        2.427160    2.605063   -0.289873
      2          6           0        1.282387    1.827577   -0.086085
      3          6           0        1.375416    0.435125   -0.002589
      4          6           0        2.634769   -0.149373   -0.127807
      5          6           0        3.793733    0.598053   -0.331393
      6          6           0        3.676976    1.988907   -0.411662
      7          1           0        2.345678    3.686133   -0.353481
      8          1           0        0.310457    2.303374    0.008857
      9          1           0        0.505404   -0.190782    0.154695
     10          1           0        4.748829    0.095109   -0.422258
     11          1           0        4.567724    2.590197   -0.569978
     12          7           0        2.745814   -1.622654   -0.041122
     13          8           0        3.866934   -2.113412   -0.154629
     14          8           0        1.709629   -2.258756    0.138687
     15          6           0       -1.890323    0.046670    2.554355
     16          6           0       -2.513187    1.141473    1.946105
     17          6           0       -2.919709    1.075073    0.610111
     18          6           0       -2.686669   -0.106986   -0.091114
     19          6           0       -2.068551   -1.214745    0.486894
     20          6           0       -1.670381   -1.125877    1.824096
     21          1           0       -1.577771    0.106978    3.592657
     22          1           0       -2.685282    2.053367    2.510797
     23          1           0       -3.404076    1.907651    0.114511
     24          1           0       -1.910550   -2.110295   -0.101700
     25          1           0       -1.186884   -1.977686    2.293881
     26          7           0       -3.112614   -0.189174   -1.506111
     27          8           0       -2.895865   -1.241942   -2.102211
     28          8           0       -3.655155    0.800733   -1.992293
 ---------------------------------------------------------------------

 SCF Done:  E(RHF) =  -868.338569626     A.U. after   16 cycles
 E2 =    -0.2602839129D+01 EUMP2 =    -0.87094140875476D+03

 The electronic state is 1-A.
 Alpha  occ. eigenvalues --  -20.61123 -20.61089 -20.61030 -20.60987 -15.86167
 Alpha  occ. eigenvalues --  -15.86056 -11.31701 -11.31217 -11.28322 -11.28065
 Alpha  occ. eigenvalues --  -11.27943 -11.27808 -11.27650 -11.27530 -11.27353
 Alpha  occ. eigenvalues --  -11.27093 -11.26792 -11.26728  -1.60187  -1.60078
 Alpha  occ. eigenvalues --   -1.39731  -1.39642  -1.19894  -1.19391  -1.09216
 Alpha  occ. eigenvalues --   -1.08834  -1.05260  -1.04762  -0.96023  -0.95694
 Alpha  occ. eigenvalues --   -0.86608  -0.86184  -0.82816  -0.82535  -0.77860
 Alpha  occ. eigenvalues --   -0.77599  -0.72368  -0.72292  -0.71536  -0.71391
 Alpha  occ. eigenvalues --   -0.70875  -0.70528  -0.65466  -0.65153  -0.65051
 Alpha  occ. eigenvalues --   -0.64793  -0.62519  -0.62185  -0.55684  -0.55373
 Alpha  occ. eigenvalues --   -0.53638  -0.53244  -0.53117  -0.52731  -0.49147
 Alpha  occ. eigenvalues --   -0.49116  -0.49046  -0.49012  -0.45097  -0.45089
 Alpha  occ. eigenvalues --   -0.37927  -0.37393  -0.36855  -0.36314
 Alpha virt. eigenvalues --    0.04597   0.04907   0.10538   0.11473   0.16046
 Alpha virt. eigenvalues --    0.16434   0.21064   0.21581   0.26919   0.27274
 Alpha virt. eigenvalues --    0.28045   0.28500   0.30770   0.31118   0.32375

 Mulliken charges:
               1
     1  C   -0.169978
     2  C   -0.225559
     3  C   -0.176450
     4  C    0.154320
     5  C   -0.169686
     6  C   -0.219545
     7  H    0.225290
     8  H    0.223325
     9  H    0.289580
    10  H    0.275229
    11  H    0.223327
    12  N    0.488069
    13  O   -0.458337
    14  O   -0.468595
    15  C   -0.171893
    16  C   -0.221281
    17  C   -0.179571
    18  C    0.160951
    19  C   -0.187682
    20  C   -0.219593
    21  H    0.229212
    22  H    0.224170
    23  H    0.275705
    24  H    0.288384
    25  H    0.238472
    26  N    0.488061
    27  O   -0.454152
    28  O   -0.461775
 Sum of Mulliken charges =  -0.00000

 Dipole moment (field-independent basis, Debye):
    X=              0.9758    Y=              5.2388    Z=              4.7432  Tot=              7.1341
 Quadrupole moment (field-independent basis, Debye-Ang):
   XX=           -110.0454   YY=           -102.5140   ZZ=           -106.6005
   XY=             11.9420   XZ=            -15.4247   YZ=             -1.1494

 Normal termination of Gaussian 16 at Fri May  7 08:10:04 2021.
