 Gaussian 16, Revision A.03,
 Gaussian 16:  EM64L-G16RevA.03 25-Dec-2016

 -------------
 #p 6-31g* mp2
 -------------

 ------------------------------------------------------
 Input file generated by CHIRIPA (05-May-2021 14:53:18)
 ------------------------------------------------------
 Symbolic Z-matrix:
 Charge =  0 Multiplicity = 1

                         Standard orientation:
 ---------------------------------------------------------------------
 Center     Atomic      Atomic             Coordinates (Angstroms)
 Number     Number       Type             X           Y           Z
 ---------------------------------------------------------------------
      1          6           0       -4.174270    0.899302   -0.396705
      2          6           0       -2.717601    1.352413   -0.292829
      3          6           0       -2.496498    2.762288   -0.841608
      4          1           0       -4.489748    0.938637   -1.448310
      5          1           0       -4.811687    1.609788    0.147633
      6          1           0       -2.082969    0.640525   -0.836038
      7          1           0       -2.405496    1.311811    0.758626
      8          1           0       -3.105384    3.488778   -0.293822
      9          1           0       -2.781025    2.813678   -1.897546
     10          1           0       -1.448395    3.066042   -0.757493
     11          6           0       -4.411205   -0.508189    0.147868
     12          6           0       -5.867874   -0.961300    0.043992
     13          6           0       -6.088977   -2.371175    0.592771
     14          1           0       -3.773788   -1.218675   -0.396471
     15          1           0       -4.095727   -0.547524    1.199472
     16          1           0       -6.179979   -0.920698   -1.007464
     17          1           0       -6.502505   -0.249412    0.587200
     18          1           0       -5.804450   -2.422565    1.648708
     19          1           0       -5.480091   -3.097665    0.044984
     20          1           0       -7.137079   -2.674929    0.508656
     21          6           0        0.971107    0.534061    0.563484
     22          6           0        2.016048    1.073092    1.321154
     23          6           0        3.340012    0.699754    1.071584
     24          6           0        3.584041   -0.219179    0.052124
     25          6           0        2.564570   -0.773880   -0.720065
     26          6           0        1.248214   -0.386083   -0.452916
     27          1           0       -0.054426    0.829695    0.764185
     28          1           0        1.803807    1.787888    2.111133
     29          1           0        4.168055    1.101481    1.642880
     30          1           0        2.807386   -1.484307   -1.500931
     31          1           0        0.438700   -0.806334   -1.042932
     32          7           0        4.981636   -0.622069   -0.221390
     33          8           0        5.170248   -1.433439   -1.125128
     34          8           0        5.861995   -0.118856    0.473146
 ---------------------------------------------------------------------

 SCF Done:  E(RHF) =  -669.535263907     A.U. after   15 cycles
 E2 =    -0.2091859248D+01 EUMP2 =    -0.67162712315513D+03

 The electronic state is 1-A.
 Alpha  occ. eigenvalues --  -20.60698 -20.60693 -15.85752 -11.31095 -11.27671
 Alpha  occ. eigenvalues --  -11.27667 -11.27305 -11.26665 -11.26653 -11.23037
 Alpha  occ. eigenvalues --  -11.22428 -11.22329 -11.22267 -11.22191 -11.21667
 Alpha  occ. eigenvalues --   -1.59774  -1.39328  -1.19263  -1.09445  -1.08651
 Alpha  occ. eigenvalues --   -1.04670  -1.04514  -0.96907  -0.95493  -0.87922
 Alpha  occ. eigenvalues --   -0.86064  -0.82345  -0.80652  -0.79239  -0.77390
 Alpha  occ. eigenvalues --   -0.71969  -0.71098  -0.70359  -0.66070  -0.64911
 Alpha  occ. eigenvalues --   -0.64683  -0.62046  -0.61881  -0.60330  -0.58556
 Alpha  occ. eigenvalues --   -0.56165  -0.55106  -0.53610  -0.53325  -0.52987
 Alpha  occ. eigenvalues --   -0.52760  -0.50845  -0.48902  -0.48727  -0.48721
 Alpha  occ. eigenvalues --   -0.47677  -0.46750  -0.46663  -0.44748  -0.44739
 Alpha  occ. eigenvalues --   -0.37225  -0.36282
 Alpha virt. eigenvalues --    0.05137   0.11362   0.16589   0.19734   0.22333
 Alpha virt. eigenvalues --    0.23774   0.24246   0.25753   0.26758   0.27785
 Alpha virt. eigenvalues --    0.29251   0.29575   0.30814   0.31355   0.31661

 Mulliken charges:
               1
     1  C   -0.296754
     2  C   -0.309000
     3  C   -0.477204
     4  H    0.153532
     5  H    0.153358
     6  H    0.147644
     7  H    0.146738
     8  H    0.159503
     9  H    0.160734
    10  H    0.160404
    11  C   -0.299042
    12  C   -0.300434
    13  C   -0.476272
    14  H    0.147651
    15  H    0.149555
    16  H    0.153568
    17  H    0.153590
    18  H    0.155899
    19  H    0.155695
    20  H    0.162805
    21  C   -0.177529
    22  C   -0.221598
    23  C   -0.170618
    24  C    0.158043
    25  C   -0.170782
    26  C   -0.224236
    27  H    0.241164
    28  H    0.223204
    29  H    0.275155
    30  H    0.275168
    31  H    0.223521
    32  N    0.488029
    33  O   -0.460777
    34  O   -0.460713
 Sum of Mulliken charges =  -0.00000

 Dipole moment (field-independent basis, Debye):
    X=             -5.2468    Y=              1.4724    Z=              0.9243  Tot=              5.5273
 Quadrupole moment (field-independent basis, Debye-Ang):
   XX=           -129.1656   YY=            -94.6494   ZZ=            -91.5787
   XY=              6.7769   XZ=              4.6334   YZ=              3.0568

 Normal termination of Gaussian 16 at Thu May  6 19:00:05 2021.
