 Gaussian 16, Revision A.03,
 Gaussian 16:  EM64L-G16RevA.03 25-Dec-2016

 -------------
 #p 6-31g* mp2
 -------------

 ------------------------------------------------------
 Input file generated by CHIRIPA (05-May-2021 14:53:17)
 ------------------------------------------------------
 Symbolic Z-matrix:
 Charge =  0 Multiplicity = 1

                         Standard orientation:
 ---------------------------------------------------------------------
 Center     Atomic      Atomic             Coordinates (Angstroms)
 Number     Number       Type             X           Y           Z
 ---------------------------------------------------------------------
      1          6           0       -2.723831   -0.023193   -0.724035
      2          6           0       -3.688300   -0.926582    0.045168
      3          6           0       -3.969828   -2.243341   -0.679182
      4          1           0       -3.141379    0.185720   -1.718497
      5          1           0       -1.780093   -0.561563   -0.888081
      6          1           0       -4.629444   -0.386167    0.208921
      7          1           0       -3.268496   -1.133212    1.037985
      8          1           0       -3.042914   -2.806285   -0.829263
      9          1           0       -4.411594   -2.054995   -1.663037
     10          1           0       -4.661539   -2.873760   -0.111760
     11          6           0       -2.432557    1.296954   -0.012629
     12          6           0       -1.468088    2.200344   -0.781832
     13          6           0       -1.186560    3.517102   -0.057481
     14          1           0       -3.376295    1.835324    0.151417
     15          1           0       -2.015009    1.088042    0.981833
     16          1           0       -1.887891    2.406974   -1.774648
     17          1           0       -0.526944    1.659928   -0.945585
     18          1           0       -0.744794    3.328757    0.926373
     19          1           0       -2.113474    4.080047    0.092599
     20          1           0       -0.494849    4.147522   -0.624904
     21          6           0        0.120197   -0.886848    1.908586
     22          6           0        1.082899    0.091264    2.178809
     23          6           0        2.136678    0.315584    1.287867
     24          6           0        2.197321   -0.459928    0.131064
     25          6           0        1.253557   -1.441881   -0.166207
     26          6           0        0.208443   -1.648956    0.739002
     27          1           0       -0.695039   -1.054407    2.606234
     28          1           0        1.016889    0.684627    3.086338
     29          1           0        2.895559    1.066247    1.472321
     30          1           0        1.345945   -2.017579   -1.079144
     31          1           0       -0.537780   -2.409259    0.526551
     32          7           0        3.308322   -0.231579   -0.819689
     33          8           0        3.339304   -0.928141   -1.831855
     34          8           0        4.127108    0.639638   -0.534721
 ---------------------------------------------------------------------

 SCF Done:  E(RHF) =  -669.534438220     A.U. after   15 cycles
 E2 =    -0.2095975201D+01 EUMP2 =    -0.67163041342131D+03

 The electronic state is 1-A.
 Alpha  occ. eigenvalues --  -20.60874 -20.60869 -15.85931 -11.31359 -11.27918
 Alpha  occ. eigenvalues --  -11.27914 -11.27657 -11.26951 -11.26926 -11.22375
 Alpha  occ. eigenvalues --  -11.21895 -11.21794 -11.21772 -11.21694 -11.21283
 Alpha  occ. eigenvalues --   -1.59949  -1.39501  -1.19540  -1.09008  -1.08798
 Alpha  occ. eigenvalues --   -1.04948  -1.04009  -0.96451  -0.95740  -0.87476
 Alpha  occ. eigenvalues --   -0.86334  -0.82576  -0.80087  -0.78670  -0.77608
 Alpha  occ. eigenvalues --   -0.72146  -0.71275  -0.70632  -0.65718  -0.65181
 Alpha  occ. eigenvalues --   -0.64826  -0.62312  -0.61373  -0.59832  -0.58049
 Alpha  occ. eigenvalues --   -0.55818  -0.55430  -0.53254  -0.53136  -0.53021
 Alpha  occ. eigenvalues --   -0.52854  -0.50432  -0.48912  -0.48898  -0.48400
 Alpha  occ. eigenvalues --   -0.47151  -0.46209  -0.46120  -0.44892  -0.44224
 Alpha  occ. eigenvalues --   -0.37442  -0.36455
 Alpha virt. eigenvalues --    0.04879   0.11019   0.16223   0.19003   0.23052
 Alpha virt. eigenvalues --    0.23418   0.25109   0.25954   0.27356   0.28182
 Alpha virt. eigenvalues --    0.29088   0.29870   0.31179   0.31467   0.32084

 Mulliken charges:
               1
     1  C   -0.302446
     2  C   -0.300764
     3  C   -0.475969
     4  H    0.152199
     5  H    0.152457
     6  H    0.156166
     7  H    0.140319
     8  H    0.147561
     9  H    0.160869
    10  H    0.161914
    11  C   -0.297562
    12  C   -0.300971
    13  C   -0.475530
    14  H    0.148877
    15  H    0.145194
    16  H    0.153272
    17  H    0.155894
    18  H    0.150597
    19  H    0.154605
    20  H    0.163709
    21  C   -0.170902
    22  C   -0.218739
    23  C   -0.170831
    24  C    0.159339
    25  C   -0.172460
    26  C   -0.219855
    27  H    0.227546
    28  H    0.224628
    29  H    0.276603
    30  H    0.276728
    31  H    0.229199
    32  N    0.487906
    33  O   -0.459773
    34  O   -0.459779
 Sum of Mulliken charges =  -0.00000

 Dipole moment (field-independent basis, Debye):
    X=             -3.8306    Y=             -0.7887    Z=              3.2976  Tot=              5.1156
 Quadrupole moment (field-independent basis, Debye-Ang):
   XX=           -111.3396   YY=            -92.6990   ZZ=            -92.3872
   XY=              0.8923   XZ=              8.6616   YZ=              0.1197

 Normal termination of Gaussian 16 at Thu May  6 15:37:04 2021.
