 Gaussian 16, Revision A.03,
 Gaussian 16:  EM64L-G16RevA.03 25-Dec-2016

 -------------
 #p 6-31g* mp2
 -------------

 ------------------------------------------------------
 Input file generated by CHIRIPA (05-May-2021 14:53:17)
 ------------------------------------------------------
 Symbolic Z-matrix:
 Charge =  0 Multiplicity = 1

                         Standard orientation:
 ---------------------------------------------------------------------
 Center     Atomic      Atomic             Coordinates (Angstroms)
 Number     Number       Type             X           Y           Z
 ---------------------------------------------------------------------
      1          6           0        2.092637    1.661893    0.059492
      2          6           0        0.734293    2.082970    0.621256
      3          6           0        0.609827    3.597004    0.794472
      4          1           0        2.886454    2.022399    0.727949
      5          1           0        2.250583    2.156869   -0.908727
      6          1           0        0.578353    1.586266    1.587478
      7          1           0       -0.056392    1.721254   -0.048516
      8          1           0        0.739370    4.106558   -0.165826
      9          1           0        1.377722    3.970803    1.479463
     10          1           0       -0.368886    3.875899    1.197213
     11          6           0        2.232311    0.151186   -0.119350
     12          6           0        3.590656   -0.269890   -0.681115
     13          6           0        3.715122   -1.783924   -0.854331
     14          1           0        2.074366   -0.343789    0.848868
     15          1           0        1.438495   -0.209320   -0.787808
     16          1           0        4.381341    0.091826   -0.011343
     17          1           0        3.746595    0.226813   -1.647337
     18          1           0        2.947227   -2.157724   -1.539322
     19          1           0        3.585579   -2.293479    0.105968
     20          1           0        4.693834   -2.062819   -1.257071
     21          6           0       -0.532009   -2.147847    1.742047
     22          6           0       -1.325089   -1.070612    2.150839
     23          6           0       -1.971076   -0.266227    1.207327
     24          6           0       -1.801329   -0.569057   -0.142772
     25          6           0       -1.017794   -1.635322   -0.581456
     26          6           0       -0.381159   -2.426273    0.379607
     27          1           0       -0.033823   -2.767494    2.481806
     28          1           0       -1.444040   -0.852030    3.208249
     29          1           0       -2.590901    0.573920    1.496099
     30          1           0       -0.918175   -1.828434   -1.642683
     31          1           0        0.234142   -3.262221    0.059230
     32          7           0       -2.480256    0.275398   -1.150915
     33          8           0       -2.314704   -0.012319   -2.334320
     34          8           0       -3.165096    1.209009   -0.738602
 ---------------------------------------------------------------------

 SCF Done:  E(RHF) =  -669.532452946     A.U. after   15 cycles
 E2 =    -0.2097688638D+01 EUMP2 =    -0.67163014158426D+03

 The electronic state is 1-A.
 Alpha  occ. eigenvalues --  -20.60863 -20.60844 -15.85890 -11.31164 -11.27770
 Alpha  occ. eigenvalues --  -11.27758 -11.27522 -11.26795 -11.26755 -11.21805
 Alpha  occ. eigenvalues --  -11.21556 -11.21482 -11.21378 -11.21312 -11.20874
 Alpha  occ. eigenvalues --   -1.59930  -1.39483  -1.19400  -1.08802  -1.08480
 Alpha  occ. eigenvalues --   -1.04805  -1.03614  -0.96069  -0.95642  -0.87094
 Alpha  occ. eigenvalues --   -0.86195  -0.82475  -0.79707  -0.78337  -0.77515
 Alpha  occ. eigenvalues --   -0.72117  -0.71269  -0.70515  -0.65159  -0.65012
 Alpha  occ. eigenvalues --   -0.64795  -0.62146  -0.61024  -0.59460  -0.57700
 Alpha  occ. eigenvalues --   -0.55376  -0.55300  -0.53420  -0.52890  -0.52636
 Alpha  occ. eigenvalues --   -0.52493  -0.50032  -0.48878  -0.48872  -0.48092
 Alpha  occ. eigenvalues --   -0.46746  -0.45827  -0.45602  -0.44869  -0.43831
 Alpha  occ. eigenvalues --   -0.37269  -0.36227
 Alpha virt. eigenvalues --    0.04951   0.11122   0.16374   0.20780   0.23025
 Alpha virt. eigenvalues --    0.23772   0.26046   0.26976   0.27495   0.28050
 Alpha virt. eigenvalues --    0.28522   0.30404   0.31474   0.31554   0.32163

 Mulliken charges:
               1
     1  C   -0.298748
     2  C   -0.300299
     3  C   -0.474881
     4  H    0.147472
     5  H    0.151999
     6  H    0.147175
     7  H    0.153167
     8  H    0.158831
     9  H    0.152033
    10  H    0.161599
    11  C   -0.300058
    12  C   -0.299200
    13  C   -0.474744
    14  H    0.146389
    15  H    0.152519
    16  H    0.151668
    17  H    0.154533
    18  H    0.150244
    19  H    0.149361
    20  H    0.162525
    21  C   -0.171845
    22  C   -0.218020
    23  C   -0.166276
    24  C    0.157124
    25  C   -0.176250
    26  C   -0.210999
    27  H    0.225539
    28  H    0.223351
    29  H    0.275253
    30  H    0.275100
    31  H    0.224960
    32  N    0.491042
    33  O   -0.460672
    34  O   -0.459891
 Sum of Mulliken charges =  -0.00000

 Dipole moment (field-independent basis, Debye):
    X=              2.2958    Y=             -2.9581    Z=              3.5340  Tot=              5.1488
 Quadrupole moment (field-independent basis, Debye-Ang):
   XX=           -103.4949   YY=            -91.4549   ZZ=            -92.5793
   XY=              3.0168   XZ=             -8.1921   YZ=              0.2455

 Normal termination of Gaussian 16 at Thu May  6 10:41:38 2021.
