 Gaussian 16, Revision A.03,
 Gaussian 16:  EM64L-G16RevA.03 25-Dec-2016

 -------------
 #p 6-31g* mp2
 -------------

 ------------------------------------------------------
 Input file generated by CHIRIPA (05-May-2021 14:55:19)
 ------------------------------------------------------
 Symbolic Z-matrix:
 Charge =  0 Multiplicity = 1

                         Standard orientation:
 ---------------------------------------------------------------------
 Center     Atomic      Atomic             Coordinates (Angstroms)
 Number     Number       Type             X           Y           Z
 ---------------------------------------------------------------------
      1          6           0       -5.227263    0.274915    0.199237
      2          6           0       -4.816376   -1.025111    0.511684
      3          6           0       -3.478744   -1.402572    0.360641
      4          6           0       -2.574646   -0.450277   -0.107365
      5          6           0       -2.953237    0.852690   -0.427111
      6          6           0       -4.296024    1.208022   -0.268339
      7          1           0       -6.268370    0.559541    0.319574
      8          1           0       -5.537395   -1.751866    0.875009
      9          1           0       -3.133484   -2.402199    0.595072
     10          1           0       -2.211375    1.555111   -0.787198
     11          1           0       -4.612278    2.218353   -0.511770
     12          7           0       -1.155826   -0.838164   -0.271359
     13          8           0       -0.378829    0.019419   -0.685440
     14          8           0       -0.847618   -1.992429    0.017289
     15          6           0        2.890150    0.778052    0.022648
     16          6           0        2.793551    2.266569    0.358758
     17          6           0        1.377544    2.819225    0.193559
     18          1           0        2.551165    0.619133   -1.010201
     19          1           0        2.199347    0.217977    0.668018
     20          1           0        3.485344    2.823519   -0.286103
     21          1           0        3.132987    2.421990    1.390864
     22          1           0        0.678382    2.289452    0.848627
     23          1           0        1.032740    2.693262   -0.837868
     24          1           0        1.331307    3.884818    0.438988
     25          6           0        4.299569    0.211000    0.183015
     26          6           0        4.396169   -1.277518   -0.153095
     27          6           0        5.812176   -1.830174    0.012102
     28          1           0        4.990373    0.771073   -0.462356
     29          1           0        4.638555    0.369919    1.215864
     30          1           0        4.056733   -1.432939   -1.185202
     31          1           0        3.704376   -1.834467    0.491765
     32          1           0        6.156980   -1.704210    1.043531
     33          1           0        6.511338   -1.300400   -0.642964
     34          1           0        5.858413   -2.895766   -0.233325
 ---------------------------------------------------------------------

 SCF Done:  E(RHF) =  -669.535294896     A.U. after   15 cycles
 E2 =    -0.2092615907D+01 EUMP2 =    -0.67162791080373D+03

 The electronic state is 1-A.
 Alpha  occ. eigenvalues --  -20.60965 -20.60952 -15.85979 -11.31295 -11.27860
 Alpha  occ. eigenvalues --  -11.27846 -11.27595 -11.26864 -11.26851 -11.20380
 Alpha  occ. eigenvalues --  -11.20318 -11.20075 -11.20056 -11.19913 -11.19603
 Alpha  occ. eigenvalues --   -1.60026  -1.39583  -1.19464  -1.08873  -1.07047
 Alpha  occ. eigenvalues --   -1.04856  -1.02303  -0.95717  -0.94748  -0.86258
 Alpha  occ. eigenvalues --   -0.85777  -0.82560  -0.78382  -0.77604  -0.76775
 Alpha  occ. eigenvalues --   -0.72187  -0.71339  -0.70571  -0.65119  -0.64859
 Alpha  occ. eigenvalues --   -0.63700  -0.62202  -0.59727  -0.58106  -0.56352
 Alpha  occ. eigenvalues --   -0.55363  -0.54045  -0.53192  -0.52949  -0.51530
 Alpha  occ. eigenvalues --   -0.51219  -0.48992  -0.48913  -0.48698  -0.46688
 Alpha  occ. eigenvalues --   -0.45460  -0.45033  -0.44274  -0.44075  -0.42507
 Alpha  occ. eigenvalues --   -0.37443  -0.36457
 Alpha virt. eigenvalues --    0.04891   0.11188   0.16374   0.21204   0.24132
 Alpha virt. eigenvalues --    0.25238   0.26853   0.27678   0.28046   0.29060
 Alpha virt. eigenvalues --    0.29271   0.31041   0.31963   0.32501   0.32931

 Mulliken charges:
               1
     1  C   -0.170504
     2  C   -0.218664
     3  C   -0.170659
     4  C    0.157178
     5  C   -0.171656
     6  C   -0.218751
     7  H    0.226009
     8  H    0.223771
     9  H    0.275707
    10  H    0.277773
    11  H    0.224124
    12  N    0.490994
    13  O   -0.459658
    14  O   -0.459643
    15  C   -0.292830
    16  C   -0.300502
    17  C   -0.469883
    18  H    0.158660
    19  H    0.159230
    20  H    0.145929
    21  H    0.145665
    22  H    0.154852
    23  H    0.157733
    24  H    0.148111
    25  C   -0.299003
    26  C   -0.298256
    27  C   -0.475001
    28  H    0.143469
    29  H    0.143710
    30  H    0.153516
    31  H    0.156771
    32  H    0.152107
    33  H    0.151916
    34  H    0.157784
 Sum of Mulliken charges =  -0.00000

 Dipole moment (field-independent basis, Debye):
    X=             -5.3647    Y=              1.1682    Z=              0.4785  Tot=              5.5113
 Quadrupole moment (field-independent basis, Debye-Ang):
   XX=            -71.8998   YY=            -93.0527   ZZ=            -94.2953
   XY=              0.0150   XZ=             -1.9226   YZ=             -2.5536

 Normal termination of Gaussian 16 at Wed May  5 17:20:52 2021.
