 Gaussian 16, Revision A.03,
 Gaussian 16:  EM64L-G16RevA.03 25-Dec-2016

 -------------
 #p 6-31g* mp2
 -------------

 ------------------------------------------------------
 Input file generated by CHIRIPA (05-May-2021 14:53:11)
 ------------------------------------------------------
 Symbolic Z-matrix:
 Charge =  0 Multiplicity = 1

                         Standard orientation:
 ---------------------------------------------------------------------
 Center     Atomic      Atomic             Coordinates (Angstroms)
 Number     Number       Type             X           Y           Z
 ---------------------------------------------------------------------
      1          6           0        3.726367   -0.532199   -0.353810
      2          6           0        3.504271   -1.727520    0.573480
      3          6           0        4.369219   -2.932438    0.202223
      4          1           0        3.512544   -0.834042   -1.388274
      5          1           0        4.786946   -0.246355   -0.324485
      6          1           0        2.444160   -2.010152    0.543474
      7          1           0        3.718462   -1.422744    1.605880
      8          1           0        5.431835   -2.673374    0.250538
      9          1           0        4.150293   -3.264120   -0.817904
     10          1           0        4.194495   -3.775500    0.877927
     11          6           0        2.868730    0.680131    0.004579
     12          6           0        3.090826    1.875452   -0.922711
     13          6           0        2.225878    3.080370   -0.551453
     14          1           0        1.808151    0.394287   -0.024746
     15          1           0        3.082553    0.981974    1.039043
     16          1           0        2.876635    1.570676   -1.955111
     17          1           0        4.150937    2.158085   -0.892705
     18          1           0        2.444804    3.412053    0.468674
     19          1           0        1.163262    2.821307   -0.599769
     20          1           0        2.400602    3.923433   -1.227158
     21          6           0       -1.580334    0.721993    2.319558
     22          6           0       -2.794585    0.027682    2.312456
     23          6           0       -3.355679   -0.409117    1.108743
     24          6           0       -2.672487   -0.133172   -0.074640
     25          6           0       -1.461178    0.556293   -0.100293
     26          6           0       -0.918673    0.983621    1.115284
     27          1           0       -1.151683    1.057631    3.259240
     28          1           0       -3.310656   -0.176914    3.246189
     29          1           0       -4.294369   -0.948653    1.074366
     30          1           0       -0.970086    0.745356   -1.047130
     31          1           0        0.024470    1.522620    1.117772
     32          7           0       -3.256653   -0.590579   -1.355237
     33          8           0       -2.635045   -0.334900   -2.384250
     34          8           0       -4.325069   -1.196112   -1.305708
 ---------------------------------------------------------------------

 SCF Done:  E(RHF) =  -669.534748531     A.U. after   15 cycles
 E2 =    -0.2093025906D+01 EUMP2 =    -0.67162777443707D+03

 The electronic state is 1-A.
 Alpha  occ. eigenvalues --  -20.60760 -20.60755 -15.85812 -11.31174 -11.27734
 Alpha  occ. eigenvalues --  -11.27727 -11.27444 -11.26751 -11.26644 -11.22337
 Alpha  occ. eigenvalues --  -11.22165 -11.22045 -11.22004 -11.21878 -11.21349
 Alpha  occ. eigenvalues --   -1.59836  -1.39389  -1.19336  -1.09077  -1.08724
 Alpha  occ. eigenvalues --   -1.04745  -1.04139  -0.96612  -0.95567  -0.87626
 Alpha  occ. eigenvalues --   -0.86132  -0.82422  -0.80221  -0.78906  -0.77430
 Alpha  occ. eigenvalues --   -0.72030  -0.71158  -0.70443  -0.65748  -0.64974
 Alpha  occ. eigenvalues --   -0.64727  -0.62187  -0.61445  -0.59963  -0.58222
 Alpha  occ. eigenvalues --   -0.55930  -0.55227  -0.53283  -0.53164  -0.52956
 Alpha  occ. eigenvalues --   -0.52832  -0.50561  -0.48805  -0.48787  -0.48481
 Alpha  occ. eigenvalues --   -0.47230  -0.46378  -0.46297  -0.44796  -0.44387
 Alpha  occ. eigenvalues --   -0.37306  -0.36310
 Alpha virt. eigenvalues --    0.05038   0.11308   0.16409   0.19620   0.22623
 Alpha virt. eigenvalues --    0.23747   0.25311   0.26302   0.27227   0.28052
 Alpha virt. eigenvalues --    0.29207   0.30301   0.31034   0.31355   0.32219

 Mulliken charges:
               1
     1  C   -0.298266
     2  C   -0.300700
     3  C   -0.476259
     4  H    0.153840
     5  H    0.151227
     6  H    0.154185
     7  H    0.150021
     8  H    0.155425
     9  H    0.157813
    10  H    0.161366
    11  C   -0.306181
    12  C   -0.300147
    13  C   -0.481356
    14  H    0.148135
    15  H    0.146684
    16  H    0.157114
    17  H    0.155891
    18  H    0.154077
    19  H    0.148735
    20  H    0.168171
    21  C   -0.172934
    22  C   -0.218316
    23  C   -0.171274
    24  C    0.158680
    25  C   -0.175494
    26  C   -0.222211
    27  H    0.225991
    28  H    0.223334
    29  H    0.275505
    30  H    0.275036
    31  H    0.234864
    32  N    0.488260
    33  O   -0.460767
    34  O   -0.460450
 Sum of Mulliken charges =  -0.00000

 Dipole moment (field-independent basis, Debye):
    X=              2.2234    Y=              1.5843    Z=              4.4575  Tot=              5.2271
 Quadrupole moment (field-independent basis, Debye-Ang):
   XX=           -102.2742   YY=            -95.6112   ZZ=            -94.1976
   XY=             -2.0033   XZ=            -14.3409   YZ=             -1.8518

 Normal termination of Gaussian 16 at Wed May  5 21:40:55 2021.
