 Gaussian 16, Revision A.03,
 Gaussian 16:  EM64L-G16RevA.03 25-Dec-2016

 -------------
 #p 6-31g* mp2
 -------------

 ------------------------------------------------------
 Input file generated by CHIRIPA (05-May-2021 14:53:16)
 ------------------------------------------------------
 Symbolic Z-matrix:
 Charge =  0 Multiplicity = 1

                         Standard orientation:
 ---------------------------------------------------------------------
 Center     Atomic      Atomic             Coordinates (Angstroms)
 Number     Number       Type             X           Y           Z
 ---------------------------------------------------------------------
      1          6           0       -3.959058   -0.556321    0.404955
      2          6           0       -4.740756   -1.499409   -0.510207
      3          6           0       -5.127274   -2.807637    0.180399
      4          1           0       -3.053262   -1.066969    0.759523
      5          1           0       -4.563337   -0.336978    1.296094
      6          1           0       -4.135743   -1.715807   -1.400008
      7          1           0       -5.644698   -0.986389   -0.862790
      8          1           0       -5.751760   -2.610252    1.057700
      9          1           0       -4.234232   -3.343815    0.517429
     10          1           0       -5.685273   -3.466862   -0.491851
     11          6           0       -3.565504    0.755807   -0.271184
     12          6           0       -2.783806    1.698894    0.643977
     13          6           0       -2.397287    3.007122   -0.046628
     14          1           0       -2.961225    0.536463   -1.162324
     15          1           0       -4.471299    1.266454   -0.625752
     16          1           0       -1.879864    1.185875    0.996561
     17          1           0       -3.388819    1.915293    1.533779
     18          1           0       -3.290330    3.543300   -0.383659
     19          1           0       -1.772801    2.809737   -0.923930
     20          1           0       -1.839288    3.666347    0.625621
     21          6           0        1.354771    1.877422   -0.230779
     22          6           0        2.719088    2.099315   -0.016477
     23          6           0        3.606204    1.023461    0.084074
     24          6           0        3.092467   -0.266960   -0.034995
     25          6           0        1.738455   -0.520451   -0.248737
     26          6           0        0.869665    0.570551   -0.346022
     27          1           0        0.672756    2.719055   -0.307621
     28          1           0        3.098640    3.113171    0.073416
     29          1           0        4.667081    1.166642    0.249779
     30          1           0        1.389739   -1.542464   -0.334204
     31          1           0       -0.189392    0.395228   -0.512474
     32          7           0        4.021917   -1.413936    0.069725
     33          8           0        3.544289   -2.541215   -0.038671
     34          8           0        5.210449   -1.163940    0.258219
 ---------------------------------------------------------------------

 SCF Done:  E(RHF) =  -669.534911873     A.U. after   15 cycles
 E2 =    -0.2092735509D+01 EUMP2 =    -0.67162764738244D+03

 The electronic state is 1-A.
 Alpha  occ. eigenvalues --  -20.60740 -20.60734 -15.85793 -11.31150 -11.27726
 Alpha  occ. eigenvalues --  -11.27722 -11.27401 -11.26715 -11.26694 -11.22768
 Alpha  occ. eigenvalues --  -11.22462 -11.22443 -11.22253 -11.22186 -11.21545
 Alpha  occ. eigenvalues --   -1.59815  -1.39369  -1.19321  -1.09399  -1.08708
 Alpha  occ. eigenvalues --   -1.04738  -1.04460  -0.96933  -0.95544  -0.87946
 Alpha  occ. eigenvalues --   -0.86127  -0.82386  -0.80541  -0.79139  -0.77444
 Alpha  occ. eigenvalues --   -0.72012  -0.71139  -0.70440  -0.66213  -0.64969
 Alpha  occ. eigenvalues --   -0.64666  -0.62252  -0.61615  -0.60325  -0.58498
 Alpha  occ. eigenvalues --   -0.56314  -0.55155  -0.53594  -0.53329  -0.53053
 Alpha  occ. eigenvalues --   -0.52824  -0.50840  -0.48853  -0.48767  -0.48743
 Alpha  occ. eigenvalues --   -0.47584  -0.46671  -0.46600  -0.44777  -0.44711
 Alpha  occ. eigenvalues --   -0.37282  -0.36328
 Alpha virt. eigenvalues --    0.05096   0.11195   0.16567   0.18527   0.22546
 Alpha virt. eigenvalues --    0.23999   0.24964   0.25913   0.26618   0.28635
 Alpha virt. eigenvalues --    0.29780   0.30136   0.31035   0.31326   0.31622

 Mulliken charges:
               1
     1  C   -0.298792
     2  C   -0.300320
     3  C   -0.476362
     4  H    0.147937
     5  H    0.153145
     6  H    0.151754
     7  H    0.153626
     8  H    0.156489
     9  H    0.156593
    10  H    0.162788
    11  C   -0.302021
    12  C   -0.307158
    13  C   -0.482027
    14  H    0.145408
    15  H    0.154812
    16  H    0.151048
    17  H    0.159729
    18  H    0.163902
    19  H    0.148567
    20  H    0.160800
    21  C   -0.176614
    22  C   -0.219101
    23  C   -0.170655
    24  C    0.158387
    25  C   -0.172371
    26  C   -0.225180
    27  H    0.233665
    28  H    0.223480
    29  H    0.275426
    30  H    0.275368
    31  H    0.230764
    32  N    0.488086
    33  O   -0.460654
    34  O   -0.460519
 Sum of Mulliken charges =  -0.00000

 Dipole moment (field-independent basis, Debye):
    X=             -3.5450    Y=              4.0459    Z=             -0.3128  Tot=              5.3883
 Quadrupole moment (field-independent basis, Debye-Ang):
   XX=           -110.5264   YY=            -95.7955   ZZ=            -95.5607
   XY=             15.5146   XZ=             -0.7379   YZ=              1.0113

 Normal termination of Gaussian 16 at Wed May  5 23:33:58 2021.
