 Gaussian 16, Revision A.03,
 Gaussian 16:  EM64L-G16RevA.03 25-Dec-2016

 -------------
 #p 6-31g* mp2
 -------------

 ------------------------------------------------------
 Input file generated by CHIRIPA (05-May-2021 14:55:24)
 ------------------------------------------------------
 Symbolic Z-matrix:
 Charge =  0 Multiplicity = 1

                         Standard orientation:
 ---------------------------------------------------------------------
 Center     Atomic      Atomic             Coordinates (Angstroms)
 Number     Number       Type             X           Y           Z
 ---------------------------------------------------------------------
      1          6           0       -1.174690   -2.385311    0.782956
      2          6           0       -2.113234   -1.745450    1.599185
      3          6           0       -2.758418   -0.584148    1.163679
      4          6           0       -2.439540   -0.087950   -0.099410
      5          6           0       -1.509037   -0.702654   -0.935826
      6          6           0       -0.876113   -1.862793   -0.479719
      7          1           0       -0.678257   -3.286987    1.129269
      8          1           0       -2.347092   -2.148988    2.580263
      9          1           0       -3.489059   -0.068666    1.775118
     10          1           0       -1.296769   -0.276609   -1.908886
     11          1           0       -0.147651   -2.357609   -1.115758
     12          7           0       -3.116078    1.140853   -0.571366
     13          8           0       -2.817541    1.557929   -1.688309
     14          8           0       -3.932075    1.663644    0.184594
     15          6           0        3.294353    1.064712    0.094178
     16          6           0        2.300763    2.142269    0.529651
     17          6           0        2.944821    3.523009    0.658252
     18          1           0        4.118531    1.020346    0.819235
     19          1           0        3.739643    1.353668   -0.867912
     20          1           0        1.856457    1.850692    1.489960
     21          1           0        1.478756    2.183942   -0.196423
     22          1           0        3.372478    3.839249   -0.298671
     23          1           0        3.752324    3.504106    1.397294
     24          1           0        2.216715    4.278121    0.970546
     25          6           0        2.665426   -0.321106   -0.038814
     26          6           0        3.659016   -1.398662   -0.474287
     27          6           0        3.014959   -2.779404   -0.602888
     28          1           0        2.220136   -0.610063    0.923275
     29          1           0        1.841248   -0.276740   -0.763871
     30          1           0        4.481023   -1.440337    0.251787
     31          1           0        4.103322   -1.107087   -1.434596
     32          1           0        2.207456   -2.760500   -1.341930
     33          1           0        2.587301   -3.095643    0.354035
     34          1           0        3.743065   -3.534516   -0.915182
 ---------------------------------------------------------------------

 SCF Done:  E(RHF) =  -669.535004823     A.U. after   15 cycles
 E2 =    -0.2093000827D+01 EUMP2 =    -0.67162800565022D+03

 The electronic state is 1-A.
 Alpha  occ. eigenvalues --  -20.60756 -20.60751 -15.85808 -11.31167 -11.27718
 Alpha  occ. eigenvalues --  -11.27713 -11.27446 -11.26751 -11.26699 -11.22251
 Alpha  occ. eigenvalues --  -11.22099 -11.21824 -11.21691 -11.21617 -11.21061
 Alpha  occ. eigenvalues --   -1.59831  -1.39385  -1.19329  -1.08837  -1.08715
 Alpha  occ. eigenvalues --   -1.04735  -1.03948  -0.96423  -0.95562  -0.87449
 Alpha  occ. eigenvalues --   -0.86130  -0.82403  -0.80035  -0.78593  -0.77440
 Alpha  occ. eigenvalues --   -0.72027  -0.71152  -0.70433  -0.65486  -0.64979
 Alpha  occ. eigenvalues --   -0.64748  -0.62122  -0.61328  -0.59802  -0.58005
 Alpha  occ. eigenvalues --   -0.55756  -0.55214  -0.53174  -0.53035  -0.52994
 Alpha  occ. eigenvalues --   -0.52670  -0.50384  -0.48791  -0.48783  -0.48315
 Alpha  occ. eigenvalues --   -0.47050  -0.46128  -0.46028  -0.44792  -0.44170
 Alpha  occ. eigenvalues --   -0.37290  -0.36276
 Alpha virt. eigenvalues --    0.05052   0.11258   0.16463   0.19878   0.22839
 Alpha virt. eigenvalues --    0.24027   0.25061   0.26206   0.27008   0.28139
 Alpha virt. eigenvalues --    0.29391   0.29657   0.31318   0.31809   0.32134

 Mulliken charges:
               1
     1  C   -0.174615
     2  C   -0.218436
     3  C   -0.171426
     4  C    0.159199
     5  C   -0.173419
     6  C   -0.215681
     7  H    0.226149
     8  H    0.223180
     9  H    0.275344
    10  H    0.274809
    11  H    0.229815
    12  N    0.488068
    13  O   -0.460847
    14  O   -0.460437
    15  C   -0.298987
    16  C   -0.300326
    17  C   -0.476114
    18  H    0.149604
    19  H    0.150346
    20  H    0.151622
    21  H    0.155376
    22  H    0.155902
    23  H    0.153984
    24  H    0.163630
    25  C   -0.298529
    26  C   -0.299902
    27  C   -0.477559
    28  H    0.149697
    29  H    0.147254
    30  H    0.154632
    31  H    0.154485
    32  H    0.146895
    33  H    0.151293
    34  H    0.164993
 Sum of Mulliken charges =  -0.00000

 Dipole moment (field-independent basis, Debye):
    X=              2.4634    Y=             -4.2545    Z=              1.6972  Tot=              5.2009
 Quadrupole moment (field-independent basis, Debye-Ang):
   XX=           -105.5547   YY=            -95.6725   ZZ=            -90.7166
   XY=              9.9419   XZ=             -6.7354   YZ=              0.0960

 Normal termination of Gaussian 16 at Thu May  6 12:39:10 2021.
