 Gaussian 16, Revision A.03,
 Gaussian 16:  EM64L-G16RevA.03 25-Dec-2016

 -------------
 #p 6-31g* mp2
 -------------

 ------------------------------------------------------
 Input file generated by CHIRIPA (05-May-2021 14:53:13)
 ------------------------------------------------------
 Symbolic Z-matrix:
 Charge =  0 Multiplicity = 1

                         Standard orientation:
 ---------------------------------------------------------------------
 Center     Atomic      Atomic             Coordinates (Angstroms)
 Number     Number       Type             X           Y           Z
 ---------------------------------------------------------------------
      1          6           0       -3.028373   -0.453195   -0.005250
      2          6           0       -4.229794   -1.237444   -0.533954
      3          6           0       -4.058470   -2.749909   -0.389416
      4          1           0       -2.124531   -0.774120   -0.540993
      5          1           0       -2.871066   -0.705900    1.052479
      6          1           0       -4.385635   -0.982288   -1.589996
      7          1           0       -5.130912   -0.914477    0.002978
      8          1           0       -3.925574   -3.023800    0.662213
      9          1           0       -3.176063   -3.091996   -0.939811
     10          1           0       -4.928788   -3.291055   -0.773561
     11          6           0       -3.184713    1.060199   -0.142817
     12          6           0       -1.983292    1.844448    0.385887
     13          6           0       -2.154617    3.356913    0.241349
     14          1           0       -3.342020    1.312904   -1.200545
     15          1           0       -4.088555    1.381124    0.392927
     16          1           0       -1.082174    1.521482   -0.151044
     17          1           0       -1.827451    1.589292    1.441929
     18          1           0       -3.037023    3.699001    0.791744
     19          1           0       -2.287512    3.630805   -0.810280
     20          1           0       -1.284298    3.898059    0.625494
     21          6           0        2.274399   -2.726463    0.439638
     22          6           0        1.317381   -1.872688    0.997944
     23          6           0        1.392025   -0.491759    0.792977
     24          6           0        2.441738    0.003550    0.020928
     25          6           0        3.410535   -0.821255   -0.548652
     26          6           0        3.316086   -2.198951   -0.330521
     27          1           0        2.208722   -3.797945    0.603974
     28          1           0        0.507298   -2.279561    1.596496
     29          1           0        0.664629    0.191997    1.213441
     30          1           0        4.206511   -0.386170   -1.140717
     31          1           0        4.060733   -2.859614   -0.765342
     32          7           0        2.531244    1.463766   -0.203030
     33          8           0        3.465798    1.875235   -0.887091
     34          8           0        1.665149    2.169168    0.309734
 ---------------------------------------------------------------------

 SCF Done:  E(RHF) =  -669.536046091     A.U. after   15 cycles
 E2 =    -0.2092686740D+01 EUMP2 =    -0.67162873283091D+03

 The electronic state is 1-A.
 Alpha  occ. eigenvalues --  -20.60877 -20.60871 -15.85905 -11.31205 -11.27781
 Alpha  occ. eigenvalues --  -11.27722 -11.27510 -11.26785 -11.26756 -11.21795
 Alpha  occ. eigenvalues --  -11.21574 -11.21393 -11.21241 -11.21161 -11.20362
 Alpha  occ. eigenvalues --   -1.59940  -1.39496  -1.19378  -1.08787  -1.08408
 Alpha  occ. eigenvalues --   -1.04766  -1.03397  -0.95856  -0.95627  -0.86876
 Alpha  occ. eigenvalues --   -0.86169  -0.82462  -0.79529  -0.78272  -0.77456
 Alpha  occ. eigenvalues --   -0.72130  -0.71255  -0.70483  -0.65069  -0.65008
 Alpha  occ. eigenvalues --   -0.64764  -0.62118  -0.60791  -0.59253  -0.57427
 Alpha  occ. eigenvalues --   -0.55279  -0.55164  -0.53107  -0.52873  -0.52489
 Alpha  occ. eigenvalues --   -0.52274  -0.49826  -0.48926  -0.48882  -0.47790
 Alpha  occ. eigenvalues --   -0.46581  -0.45757  -0.45697  -0.44762  -0.43655
 Alpha  occ. eigenvalues --   -0.37363  -0.36356
 Alpha virt. eigenvalues --    0.04964   0.11224   0.16433   0.20918   0.22941
 Alpha virt. eigenvalues --    0.24299   0.25581   0.26734   0.27802   0.28131
 Alpha virt. eigenvalues --    0.29555   0.30146   0.31439   0.31621   0.32278

 Mulliken charges:
               1
     1  C   -0.300014
     2  C   -0.298881
     3  C   -0.475844
     4  H    0.148269
     5  H    0.142353
     6  H    0.154012
     7  H    0.153297
     8  H    0.151939
     9  H    0.153374
    10  H    0.161616
    11  C   -0.297758
    12  C   -0.304810
    13  C   -0.476426
    14  H    0.150948
    15  H    0.148992
    16  H    0.163201
    17  H    0.143275
    18  H    0.149668
    19  H    0.154560
    20  H    0.175017
    21  C   -0.170633
    22  C   -0.220508
    23  C   -0.174043
    24  C    0.156169
    25  C   -0.170679
    26  C   -0.218848
    27  H    0.225823
    28  H    0.225031
    29  H    0.283758
    30  H    0.275429
    31  H    0.223450
    32  N    0.488743
    33  O   -0.459415
    34  O   -0.461069
 Sum of Mulliken charges =  -0.00000

 Dipole moment (field-independent basis, Debye):
    X=             -0.2038    Y=             -4.9980    Z=              0.7253  Tot=              5.0544
 Quadrupole moment (field-independent basis, Debye-Ang):
   XX=            -93.2476   YY=            -96.1462   ZZ=            -93.0437
   XY=            -13.4443   XZ=             -0.8770   YZ=              0.3583

 Normal termination of Gaussian 16 at Thu May  6 17:03:34 2021.
