 Gaussian 16, Revision A.03,
 Gaussian 16:  EM64L-G16RevA.03 25-Dec-2016

 -------------
 #p 6-31g* mp2
 -------------

 ------------------------------------------------------
 Input file generated by CHIRIPA (05-May-2021 14:51:12)
 ------------------------------------------------------
 Symbolic Z-matrix:
 Charge =  0 Multiplicity = 1

                         Standard orientation:
 ---------------------------------------------------------------------
 Center     Atomic      Atomic             Coordinates (Angstroms)
 Number     Number       Type             X           Y           Z
 ---------------------------------------------------------------------
      1          6           0       -4.556284   -0.239453   -0.137208
      2          6           0       -4.344338   -1.736538    0.090389
      3          6           0       -5.618505   -2.553569   -0.125833
      4          1           0       -5.343375    0.120045    0.539692
      5          1           0       -4.926260   -0.079841   -1.159479
      6          1           0       -3.973556   -1.893161    1.111470
      7          1           0       -3.557526   -2.092475   -0.586998
      8          1           0       -5.988514   -2.426850   -1.148397
      9          1           0       -6.406907   -2.226404    0.559721
     10          1           0       -5.444315   -3.620958    0.042091
     11          6           0       -3.291540    0.590634    0.075173
     12          6           0       -3.503486    2.087719   -0.152423
     13          6           0       -2.229319    2.904751    0.063798
     14          1           0       -2.921564    0.431022    1.097444
     15          1           0       -2.504449    0.231136   -0.601727
     16          1           0       -4.290298    2.443656    0.524964
     17          1           0       -3.874268    2.244342   -1.173504
     18          1           0       -1.440917    2.577585   -0.621756
     19          1           0       -1.859310    2.778031    1.086362
     20          1           0       -2.403509    3.972140   -0.104126
     21          6           0        3.225525   -0.435395    0.198914
     22          6           0        2.121541    0.595233   -0.039851
     23          6           0        0.730095    0.060658    0.300590
     24          1           0        3.018193   -1.331318   -0.402151
     25          1           0        3.200625   -0.752061    1.250817
     26          1           0        2.149405    0.910888   -1.090661
     27          1           0        2.331627    1.488883    0.561706
     28          1           0        0.678525   -0.236760    1.352961
     29          1           0        0.495267   -0.818038   -0.308795
     30          1           0       -0.043922    0.813690    0.122540
     31          6           0        4.622299    0.084214   -0.136879
     32          6           0        5.726283   -0.946415    0.101886
     33          6           0        7.117729   -0.411839   -0.238556
     34          1           0        4.647198    0.400879   -1.188782
     35          1           0        4.829630    0.980137    0.464186
     36          1           0        5.516197   -1.840064   -0.499671
     37          1           0        5.698419   -1.262070    1.152696
     38          1           0        7.352556    0.466857    0.370829
     39          1           0        7.169298   -0.114421   -1.290927
     40          1           0        7.891746   -1.164870   -0.060505
 ---------------------------------------------------------------------

 SCF Done:  E(RHF) =  -470.732607101     A.U. after   11 cycles
 E2 =    -0.1583249668D+01 EUMP2 =    -0.47231585676869D+03

 The electronic state is 1-A.
 Alpha  occ. eigenvalues --  -11.21604 -11.21575 -11.21567 -11.21531 -11.21363
 Alpha  occ. eigenvalues --  -11.21362 -11.21301 -11.21297 -11.21107 -11.21051
 Alpha  occ. eigenvalues --  -11.21047 -11.20899  -1.08418  -1.08376  -1.03546
 Alpha  occ. eigenvalues --   -1.03458  -0.95985  -0.95915  -0.87003  -0.86938
 Alpha  occ. eigenvalues --   -0.79655  -0.79487  -0.78243  -0.78166  -0.65054
 Alpha  occ. eigenvalues --   -0.65005  -0.60948  -0.60864  -0.59568  -0.59120
 Alpha  occ. eigenvalues --   -0.57722  -0.57400  -0.55268  -0.55207  -0.52750
 Alpha  occ. eigenvalues --   -0.52623  -0.52489  -0.52218  -0.49925  -0.49862
 Alpha  occ. eigenvalues --   -0.48018  -0.47717  -0.46631  -0.46563  -0.45777
 Alpha  occ. eigenvalues --   -0.45722  -0.45699  -0.45638  -0.43778  -0.43616
 Alpha virt. eigenvalues --    0.21926   0.23081   0.23479   0.25018   0.26329
 Alpha virt. eigenvalues --    0.26770   0.26866   0.27098   0.27940   0.29339
 Alpha virt. eigenvalues --    0.30827   0.31371   0.31522   0.31879   0.32040

 Mulliken charges:
               1
     1  C   -0.298223
     2  C   -0.299444
     3  C   -0.475704
     4  H    0.149383
     5  H    0.149186
     6  H    0.152138
     7  H    0.151977
     8  H    0.155037
     9  H    0.155085
    10  H    0.160178
    11  C   -0.301396
    12  C   -0.299401
    13  C   -0.479604
    14  H    0.150529
    15  H    0.153337
    16  H    0.151920
    17  H    0.151740
    18  H    0.156961
    19  H    0.156185
    20  H    0.161069
    21  C   -0.298253
    22  C   -0.299433
    23  C   -0.484890
    24  H    0.149373
    25  H    0.149382
    26  H    0.150895
    27  H    0.151824
    28  H    0.154137
    29  H    0.153595
    30  H    0.172784
    31  C   -0.298145
    32  C   -0.299576
    33  C   -0.475665
    34  H    0.149333
    35  H    0.149582
    36  H    0.151836
    37  H    0.151862
    38  H    0.155148
    39  H    0.155112
    40  H    0.160146
 Sum of Mulliken charges =  -0.00000

 Dipole moment (field-independent basis, Debye):
    X=             -0.0399    Y=              0.0237    Z=              0.0062  Tot=              0.0468
 Quadrupole moment (field-independent basis, Debye-Ang):
   XX=            -86.7522   YY=            -85.2606   ZZ=            -82.9072
   XY=             -0.8688   XZ=             -0.0302   YZ=              0.4234

 Normal termination of Gaussian 16 at Wed May  5 19:56:06 2021.
