 Gaussian 16, Revision A.03,
 Gaussian 16:  EM64L-G16RevA.03 25-Dec-2016

 -------------
 #p 6-31g* mp2
 -------------

 ------------------------------------------------------
 Input file generated by CHIRIPA (05-May-2021 14:53:17)
 ------------------------------------------------------
 Symbolic Z-matrix:
 Charge =  0 Multiplicity = 1

                         Standard orientation:
 ---------------------------------------------------------------------
 Center     Atomic      Atomic             Coordinates (Angstroms)
 Number     Number       Type             X           Y           Z
 ---------------------------------------------------------------------
      1          6           0        4.560809    0.516834    0.164973
      2          6           0        5.643709    0.216304   -0.871846
      3          6           0        6.712922    1.306951   -0.943044
      4          1           0        4.089181    1.479537   -0.075268
      5          1           0        5.030313    0.636268    1.151227
      6          1           0        5.172148    0.096105   -1.855613
      7          1           0        6.112683   -0.745887   -0.629218
      8          1           0        7.209945    1.422988    0.025513
      9          1           0        6.264066    2.269763   -1.207850
     10          1           0        7.477066    1.071847   -1.690487
     11          6           0        3.484759   -0.564353    0.247909
     12          6           0        2.401858   -0.263823    1.284728
     13          6           0        1.332646   -1.354469    1.355927
     14          1           0        3.015254   -0.683786   -0.738344
     15          1           0        3.956386   -1.527056    0.488150
     16          1           0        1.932884    0.698368    1.042100
     17          1           0        2.873419   -0.143623    2.268495
     18          1           0        1.781501   -2.317282    1.620732
     19          1           0        0.835622   -1.470507    0.387369
     20          1           0        0.568502   -1.119366    2.103369
     21          6           0       -4.023275    2.336935    0.303296
     22          6           0       -4.221346    1.751340   -0.951442
     23          6           0       -3.737871    0.467335   -1.220014
     24          6           0       -3.057679   -0.205570   -0.206195
     25          6           0       -2.844407    0.350969    1.053991
     26          6           0       -3.336649    1.636116    1.300250
     27          1           0       -4.402255    3.334825    0.503263
     28          1           0       -4.754227    2.293262   -1.727588
     29          1           0       -3.877154   -0.009752   -2.182514
     30          1           0       -2.309392   -0.213939    1.807685
     31          1           0       -3.181351    2.088409    2.275627
     32          7           0       -2.541205   -1.565492   -0.478710
     33          8           0       -1.945172   -2.137475    0.431355
     34          8           0       -2.742204   -2.033668   -1.597213
 ---------------------------------------------------------------------

 SCF Done:  E(RHF) =  -669.535535654     A.U. after   15 cycles
 E2 =    -0.2091401000D+01 EUMP2 =    -0.67162693665398D+03

 The electronic state is 1-A.
 Alpha  occ. eigenvalues --  -20.60868 -20.60836 -15.85879 -11.31236 -11.27805
 Alpha  occ. eigenvalues --  -11.27798 -11.27547 -11.26819 -11.26808 -11.21338
 Alpha  occ. eigenvalues --  -11.21098 -11.21082 -11.20933 -11.20881 -11.20178
 Alpha  occ. eigenvalues --   -1.59919  -1.39473  -1.19408  -1.08808  -1.08048
 Alpha  occ. eigenvalues --   -1.04809  -1.03100  -0.95660  -0.95503  -0.86522
 Alpha  occ. eigenvalues --   -0.86207  -0.82476  -0.79166  -0.77861  -0.77516
 Alpha  occ. eigenvalues --   -0.72105  -0.71241  -0.70517  -0.65064  -0.64814
 Alpha  occ. eigenvalues --   -0.64683  -0.62160  -0.60499  -0.58921  -0.57146
 Alpha  occ. eigenvalues --   -0.55313  -0.54801  -0.53141  -0.52908  -0.52201
 Alpha  occ. eigenvalues --   -0.51931  -0.49467  -0.48873  -0.48852  -0.47476
 Alpha  occ. eigenvalues --   -0.46251  -0.45414  -0.45360  -0.44721  -0.43339
 Alpha  occ. eigenvalues --   -0.37389  -0.36411
 Alpha virt. eigenvalues --    0.04985   0.11225   0.16463   0.21087   0.23184
 Alpha virt. eigenvalues --    0.24329   0.26580   0.27019   0.27682   0.27888
 Alpha virt. eigenvalues --    0.28989   0.30477   0.31537   0.31880   0.32202

 Mulliken charges:
               1
     1  C   -0.297569
     2  C   -0.299457
     3  C   -0.475414
     4  H    0.147424
     5  H    0.148255
     6  H    0.152280
     7  H    0.152383
     8  H    0.154530
     9  H    0.153980
    10  H    0.159811
    11  C   -0.297945
    12  C   -0.301581
    13  C   -0.470762
    14  H    0.150906
    15  H    0.150508
    16  H    0.145825
    17  H    0.147973
    18  H    0.155560
    19  H    0.166361
    20  H    0.153390
    21  C   -0.170636
    22  C   -0.218644
    23  C   -0.170937
    24  C    0.157766
    25  C   -0.171200
    26  C   -0.218961
    27  H    0.225778
    28  H    0.223573
    29  H    0.275629
    30  H    0.277555
    31  H    0.223770
    32  N    0.487190
    33  O   -0.457170
    34  O   -0.460169
 Sum of Mulliken charges =  -0.00000

 Dipole moment (field-independent basis, Debye):
    X=             -1.9739    Y=              4.6765    Z=              0.9106  Tot=              5.1571
 Quadrupole moment (field-independent basis, Debye-Ang):
   XX=            -84.5698   YY=            -97.4761   ZZ=            -90.6252
   XY=            -15.7640   XZ=             -0.2009   YZ=             -1.6990

 Normal termination of Gaussian 16 at Wed May  5 17:13:50 2021.
