 Gaussian 16, Revision A.03,
 Gaussian 16:  EM64L-G16RevA.03 25-Dec-2016

 -------------
 #p 6-31g* mp2
 -------------

 ------------------------------------------------------
 Input file generated by CHIRIPA (05-May-2021 14:55:20)
 ------------------------------------------------------
 Symbolic Z-matrix:
 Charge =  0 Multiplicity = 1

                         Standard orientation:
 ---------------------------------------------------------------------
 Center     Atomic      Atomic             Coordinates (Angstroms)
 Number     Number       Type             X           Y           Z
 ---------------------------------------------------------------------
      1          6           0        0.431323   -2.671649    0.273588
      2          6           0        0.371283   -1.638060    1.214126
      3          6           0        1.242717   -0.548227    1.128019
      4          6           0        2.165897   -0.524205    0.083772
      5          6           0        2.250313   -1.538594   -0.868688
      6          6           0        1.368993   -2.618710   -0.762990
      7          1           0       -0.249467   -3.514483    0.348087
      8          1           0       -0.355902   -1.676517    2.020207
      9          1           0        1.217940    0.265532    1.842582
     10          1           0        2.985970   -1.472266   -1.661043
     11          1           0        1.417895   -3.419984   -1.494846
     12          7           0        3.093678    0.624409   -0.017756
     13          8           0        3.897913    0.621939   -0.947183
     14          8           0        2.999069    1.505414    0.834017
     15          6           0       -2.749642    0.203032    0.092771
     16          6           0       -4.083994   -0.296901   -0.461806
     17          6           0       -4.416235   -1.719329   -0.010024
     18          1           0       -1.949392   -0.479995   -0.223484
     19          1           0       -2.778795    0.163363    1.190483
     20          1           0       -4.052834   -0.254996   -1.558113
     21          1           0       -4.881135    0.387502   -0.144354
     22          1           0       -4.474597   -1.772980    1.081909
     23          1           0       -3.641590   -2.419128   -0.339883
     24          1           0       -5.374174   -2.056683   -0.417952
     25          6           0       -2.403606    1.623556   -0.350064
     26          6           0       -1.069254    2.123489    0.204513
     27          6           0       -0.737012    3.545918   -0.247269
     28          1           0       -2.374453    1.663226   -1.447775
     29          1           0       -3.203856    2.306583   -0.033808
     30          1           0       -0.272113    1.439086   -0.112939
     31          1           0       -1.100414    2.081584    1.300820
     32          1           0       -1.511657    4.245717    0.082590
     33          1           0       -0.678651    3.599568   -1.339202
     34          1           0        0.220927    3.883271    0.160659
 ---------------------------------------------------------------------

 SCF Done:  E(RHF) =  -669.534164370     A.U. after   15 cycles
 E2 =    -0.2095161568D+01 EUMP2 =    -0.67162932593739D+03

 The electronic state is 1-A.
 Alpha  occ. eigenvalues --  -20.60848 -20.60836 -15.85887 -11.31232 -11.27815
 Alpha  occ. eigenvalues --  -11.27763 -11.27552 -11.26825 -11.26772 -11.21987
 Alpha  occ. eigenvalues --  -11.21675 -11.21657 -11.21548 -11.21468 -11.20735
 Alpha  occ. eigenvalues --   -1.59912  -1.39465  -1.19431  -1.08824  -1.08638
 Alpha  occ. eigenvalues --   -1.04822  -1.03698  -0.96142  -0.95652  -0.87166
 Alpha  occ. eigenvalues --   -0.86214  -0.82479  -0.79801  -0.78506  -0.77494
 Alpha  occ. eigenvalues --   -0.72105  -0.71239  -0.70521  -0.65293  -0.65061
 Alpha  occ. eigenvalues --   -0.64811  -0.62158  -0.61113  -0.59536  -0.57741
 Alpha  occ. eigenvalues --   -0.55455  -0.55315  -0.53299  -0.52916  -0.52747
 Alpha  occ. eigenvalues --   -0.52557  -0.50111  -0.48865  -0.48861  -0.48112
 Alpha  occ. eigenvalues --   -0.46868  -0.45989  -0.45881  -0.44834  -0.43927
 Alpha  occ. eigenvalues --   -0.37363  -0.36281
 Alpha virt. eigenvalues --    0.04969   0.11161   0.16383   0.20662   0.22910
 Alpha virt. eigenvalues --    0.23833   0.25342   0.26591   0.27648   0.28276
 Alpha virt. eigenvalues --    0.28803   0.29999   0.31394   0.31719   0.31915

 Mulliken charges:
               1
     1  C   -0.172967
     2  C   -0.214227
     3  C   -0.172196
     4  C    0.158813
     5  C   -0.171737
     6  C   -0.218774
     7  H    0.226678
     8  H    0.225670
     9  H    0.277810
    10  H    0.275741
    11  H    0.223681
    12  N    0.488785
    13  O   -0.460097
    14  O   -0.460576
    15  C   -0.304358
    16  C   -0.298811
    17  C   -0.475146
    18  H    0.155776
    19  H    0.141631
    20  H    0.153377
    21  H    0.153605
    22  H    0.152943
    23  H    0.148471
    24  H    0.162685
    25  C   -0.297081
    26  C   -0.303402
    27  C   -0.477862
    28  H    0.150539
    29  H    0.149675
    30  H    0.156341
    31  H    0.144740
    32  H    0.152652
    33  H    0.155160
    34  H    0.172460
 Sum of Mulliken charges =  -0.00000

 Dipole moment (field-independent basis, Debye):
    X=             -3.1487    Y=             -3.9853    Z=              0.3327  Tot=              5.0899
 Quadrupole moment (field-independent basis, Debye-Ang):
   XX=           -108.9308   YY=            -90.9537   ZZ=            -91.0293
   XY=             -8.5426   XZ=             -1.5696   YZ=              1.8730

 Normal termination of Gaussian 16 at Thu May  6 09:17:42 2021.
