 Gaussian 16, Revision A.03,
 Gaussian 16:  EM64L-G16RevA.03 25-Dec-2016

 -------------
 #p 6-31g* mp2
 -------------

 ------------------------------------------------------
 Input file generated by CHIRIPA (05-May-2021 14:57:26)
 ------------------------------------------------------
 Symbolic Z-matrix:
 Charge =  0 Multiplicity = 1

                         Standard orientation:
 ---------------------------------------------------------------------
 Center     Atomic      Atomic             Coordinates (Angstroms)
 Number     Number       Type             X           Y           Z
 ---------------------------------------------------------------------
      1          6           0       -3.849228    1.995136    0.338605
      2          6           0       -4.359589    1.165526   -0.665288
      3          6           0       -3.843935   -0.120142   -0.854249
      4          6           0       -2.813469   -0.545867   -0.017477
      5          6           0       -2.283851    0.257126    0.991481
      6          6           0       -2.814812    1.539093    1.162333
      7          1           0       -4.255746    2.992436    0.478361
      8          1           0       -5.162916    1.517046   -1.306492
      9          1           0       -4.220391   -0.783195   -1.623704
     10          1           0       -1.482909   -0.121201    1.615003
     11          1           0       -2.416505    2.181199    1.942779
     12          7           0       -2.259467   -1.904987   -0.207936
     13          8           0       -1.351748   -2.256484    0.542485
     14          8           0       -2.743450   -2.593033   -1.104033
     15          6           0        1.970577    2.646026   -0.316373
     16          6           0        1.219459    1.670616    0.347642
     17          6           0        1.727073    0.379558    0.520978
     18          6           0        2.995090    0.097177    0.015328
     19          6           0        3.767698    1.047307   -0.650719
     20          6           0        3.240061    2.331813   -0.812560
     21          1           0        1.568473    3.646406   -0.446560
     22          1           0        0.233265    1.911800    0.734031
     23          1           0        1.166979   -0.394716    1.031090
     24          1           0        4.747667    0.776986   -1.024891
     25          1           0        3.825632    3.087324   -1.328656
     26          7           0        3.543077   -1.266140    0.192746
     27          8           0        4.662834   -1.489678   -0.262021
     28          8           0        2.842456   -2.085357    0.783214
 ---------------------------------------------------------------------

 SCF Done:  E(RHF) =  -868.335762954     A.U. after   16 cycles
 E2 =    -0.2602532942D+01 EUMP2 =    -0.87093829589597D+03

 The electronic state is 1-A.
 Alpha  occ. eigenvalues --  -20.61200 -20.61190 -20.60309 -20.60251 -15.86244
 Alpha  occ. eigenvalues --  -15.85342 -11.31887 -11.30940 -11.28588 -11.28432
 Alpha  occ. eigenvalues --  -11.28251 -11.27624 -11.27560 -11.27512 -11.27478
 Alpha  occ. eigenvalues --  -11.27394 -11.26639 -11.26626  -1.60254  -1.59359
 Alpha  occ. eigenvalues --   -1.39805  -1.38900  -1.20092  -1.19152  -1.09416
 Alpha  occ. eigenvalues --   -1.08514  -1.05559  -1.04598  -0.96210  -0.95303
 Alpha  occ. eigenvalues --   -0.86919  -0.85988  -0.83051  -0.82142  -0.78085
 Alpha  occ. eigenvalues --   -0.77116  -0.72446  -0.71595  -0.71543  -0.71186
 Alpha  occ. eigenvalues --   -0.70689  -0.70269  -0.65749  -0.65550  -0.64808
 Alpha  occ. eigenvalues --   -0.64629  -0.62966  -0.61863  -0.55996  -0.55126
 Alpha  occ. eigenvalues --   -0.53873  -0.53633  -0.52906  -0.52655  -0.49223
 Alpha  occ. eigenvalues --   -0.49200  -0.48348  -0.48289  -0.45139  -0.44254
 Alpha  occ. eigenvalues --   -0.38053  -0.37227  -0.37105  -0.36174
 Alpha virt. eigenvalues --    0.04419   0.05418   0.10427   0.11439   0.15732
 Alpha virt. eigenvalues --    0.16836   0.19436   0.22147   0.25150   0.26457
 Alpha virt. eigenvalues --    0.27942   0.29048   0.30454   0.31610   0.31950

 Mulliken charges:
               1
     1  C   -0.171128
     2  C   -0.217867
     3  C   -0.169198
     4  C    0.160579
     5  C   -0.174980
     6  C   -0.224639
     7  H    0.227279
     8  H    0.226409
     9  H    0.279132
    10  H    0.274435
    11  H    0.222120
    12  N    0.488446
    13  O   -0.457417
    14  O   -0.455867
    15  C   -0.172359
    16  C   -0.221194
    17  C   -0.179137
    18  C    0.158647
    19  C   -0.170395
    20  C   -0.218798
    21  H    0.222007
    22  H    0.216534
    23  H    0.287026
    24  H    0.275751
    25  H    0.222187
    26  N    0.487196
    27  O   -0.463265
    28  O   -0.451503
 Sum of Mulliken charges =  -0.00000

 Dipole moment (field-independent basis, Debye):
    X=             -4.1269    Y=              9.2500    Z=             -0.0768  Tot=             10.1292
 Quadrupole moment (field-independent basis, Debye-Ang):
   XX=            -99.6680   YY=           -109.8296   ZZ=           -101.9112
   XY=              3.4318   XZ=             -2.9217   YZ=             -0.6721

 Normal termination of Gaussian 16 at Fri May  7 02:02:38 2021.
