 Gaussian 16, Revision A.03,
 Gaussian 16:  EM64L-G16RevA.03 25-Dec-2016

 -------------
 #p 6-31g* mp2
 -------------

 ------------------------------------------------------
 Input file generated by CHIRIPA (05-May-2021 14:53:14)
 ------------------------------------------------------
 Symbolic Z-matrix:
 Charge =  0 Multiplicity = 1

                         Standard orientation:
 ---------------------------------------------------------------------
 Center     Atomic      Atomic             Coordinates (Angstroms)
 Number     Number       Type             X           Y           Z
 ---------------------------------------------------------------------
      1          6           0        4.220826    0.157220    0.009142
      2          6           0        4.934721   -0.892535   -0.843121
      3          6           0        6.233721   -0.370873   -1.458150
      4          1           0        4.006776    1.039153   -0.609988
      5          1           0        4.896932    0.492598    0.807764
      6          1           0        4.256981   -1.226842   -1.639063
      7          1           0        5.146925   -1.772147   -0.221939
      8          1           0        6.930964   -0.055093   -0.675376
      9          1           0        6.035963    0.493310   -2.100552
     10          1           0        6.727613   -1.137500   -2.063307
     11          6           0        2.920556   -0.349322    0.630787
     12          6           0        2.206661    0.700433    1.483050
     13          6           0        0.907661    0.178771    2.098079
     14          1           0        2.244450   -0.684700   -0.167835
     15          1           0        3.134606   -1.231254    1.249917
     16          1           0        1.994457    1.580046    0.861868
     17          1           0        2.884401    1.034740    2.278992
     18          1           0        1.105418   -0.685412    2.740481
     19          1           0        0.210418   -0.137008    1.315305
     20          1           0        0.413769    0.945398    2.703236
     21          6           0       -3.519866   -2.325020    0.019007
     22          6           0       -3.674300   -1.680179   -1.212598
     23          6           0       -3.273210   -0.350550   -1.373100
     24          6           0       -2.719003    0.307069   -0.275976
     25          6           0       -2.552058   -0.308076    0.963789
     26          6           0       -2.960224   -1.638122    1.101362
     27          1           0       -3.834191   -3.358070    0.134783
     28          1           0       -4.108613   -2.211160   -2.054903
     29          1           0       -3.381229    0.172776   -2.315373
     30          1           0       -2.115821    0.247307    1.785169
     31          1           0       -2.839079   -2.136386    2.059015
     32          7           0       -2.290641    1.714908   -0.433755
     33          8           0       -1.805163    2.272257    0.548237
     34          8           0       -2.448481    2.234366   -1.536428
 ---------------------------------------------------------------------

 SCF Done:  E(RHF) =  -669.534748048     A.U. after   15 cycles
 E2 =    -0.2092622568D+01 EUMP2 =    -0.67162737061680D+03

 The electronic state is 1-A.
 Alpha  occ. eigenvalues --  -20.60821 -20.60803 -15.85856 -11.31189 -11.27778
 Alpha  occ. eigenvalues --  -11.27709 -11.27514 -11.26775 -11.26751 -11.21439
 Alpha  occ. eigenvalues --  -11.21259 -11.21176 -11.21118 -11.20910 -11.20866
 Alpha  occ. eigenvalues --   -1.59884  -1.39437  -1.19378  -1.08773  -1.08199
 Alpha  occ. eigenvalues --   -1.04777  -1.03308  -0.95819  -0.95587  -0.86851
 Alpha  occ. eigenvalues --   -0.86153  -0.82440  -0.79402  -0.78018  -0.77476
 Alpha  occ. eigenvalues --   -0.72077  -0.71211  -0.70488  -0.65026  -0.64873
 Alpha  occ. eigenvalues --   -0.64731  -0.62154  -0.60684  -0.59136  -0.57387
 Alpha  occ. eigenvalues --   -0.55347  -0.55053  -0.53159  -0.52922  -0.52416
 Alpha  occ. eigenvalues --   -0.52154  -0.49722  -0.48832  -0.48825  -0.47698
 Alpha  occ. eigenvalues --   -0.46397  -0.45564  -0.45470  -0.44816  -0.43566
 Alpha  occ. eigenvalues --   -0.37354  -0.36323
 Alpha virt. eigenvalues --    0.05024   0.11216   0.16505   0.21298   0.23106
 Alpha virt. eigenvalues --    0.24499   0.26631   0.26916   0.27681   0.27922
 Alpha virt. eigenvalues --    0.28837   0.30555   0.31518   0.31675   0.32107

 Mulliken charges:
               1
     1  C   -0.298692
     2  C   -0.299333
     3  C   -0.475685
     4  H    0.152587
     5  H    0.149299
     6  H    0.151294
     7  H    0.150364
     8  H    0.155052
     9  H    0.156318
    10  H    0.159173
    11  C   -0.298354
    12  C   -0.300361
    13  C   -0.481157
    14  H    0.148577
    15  H    0.146545
    16  H    0.162653
    17  H    0.150900
    18  H    0.147598
    19  H    0.154380
    20  H    0.165921
    21  C   -0.170361
    22  C   -0.218819
    23  C   -0.170823
    24  C    0.157159
    25  C   -0.173289
    26  C   -0.220598
    27  H    0.225712
    28  H    0.223390
    29  H    0.275457
    30  H    0.283496
    31  H    0.224261
    32  N    0.488334
    33  O   -0.460555
    34  O   -0.460444
 Sum of Mulliken charges =  -0.00000

 Dipole moment (field-independent basis, Debye):
    X=             -1.5590    Y=             -4.8494    Z=              0.5383  Tot=              5.1222
 Quadrupole moment (field-independent basis, Debye-Ang):
   XX=            -87.6531   YY=            -98.3752   ZZ=            -90.3037
   XY=             13.2123   XZ=              1.3321   YZ=              1.6254

 Normal termination of Gaussian 16 at Wed May  5 23:27:14 2021.
