 Gaussian 16, Revision A.03,
 Gaussian 16:  EM64L-G16RevA.03 25-Dec-2016

 -------------
 #p 6-31g* mp2
 -------------

 ------------------------------------------------------
 Input file generated by CHIRIPA (05-May-2021 14:51:08)
 ------------------------------------------------------
 Symbolic Z-matrix:
 Charge =  0 Multiplicity = 1

                         Standard orientation:
 ---------------------------------------------------------------------
 Center     Atomic      Atomic             Coordinates (Angstroms)
 Number     Number       Type             X           Y           Z
 ---------------------------------------------------------------------
      1          6           0       -2.336485   -1.265294    0.223027
      2          6           0       -1.553868   -2.191821   -0.708125
      3          6           0       -1.540647   -3.642250   -0.224521
      4          1           0       -1.899701   -1.313619    1.229918
      5          1           0       -3.368285   -1.632549    0.311950
      6          1           0       -0.524224   -1.822141   -0.796359
      7          1           0       -1.992447   -2.141139   -1.712961
      8          1           0       -2.560486   -4.034094   -0.153882
      9          1           0       -1.083920   -3.713284    0.767928
     10          1           0       -0.975786   -4.287156   -0.904879
     11          6           0       -2.358786    0.188066   -0.247051
     12          6           0       -3.141403    1.114593    0.684101
     13          6           0       -3.154624    2.565023    0.200496
     14          1           0       -1.326986    0.555322   -0.335974
     15          1           0       -2.795570    0.236391   -1.253942
     16          1           0       -2.702824    1.063911    1.688937
     17          1           0       -4.171048    0.744913    0.772334
     18          1           0       -3.611351    2.636056   -0.791953
     19          1           0       -2.134786    2.956866    0.129858
     20          1           0       -3.719485    3.209929    0.880855
     21          6           0        2.420152   -0.170156   -0.263339
     22          6           0        2.944619   -1.170398    0.767406
     23          6           0        3.084280   -2.583945    0.201566
     24          1           0        1.446259   -0.514975   -0.636940
     25          1           0        3.098792   -0.154832   -1.127403
     26          1           0        2.265937   -1.182816    1.629874
     27          1           0        3.917288   -0.823059    1.138738
     28          1           0        3.777451   -2.592955   -0.645804
     29          1           0        2.116717   -2.954756   -0.151877
     30          1           0        3.460647   -3.282689    0.955200
     31          6           0        2.275119    1.247384    0.287363
     32          6           0        1.750652    2.247626   -0.743382
     33          6           0        1.610991    3.661172   -0.177541
     34          1           0        1.596479    1.232060    1.151428
     35          1           0        3.249011    1.592203    0.660964
     36          1           0        0.777983    1.900287   -1.114714
     37          1           0        2.429335    2.260043   -1.605850
     38          1           0        2.578555    4.031983    0.175901
     39          1           0        0.917822    3.670183    0.669828
     40          1           0        1.234624    4.359916   -0.931175
 ---------------------------------------------------------------------

 SCF Done:  E(RHF) =  -470.733113747     A.U. after   11 cycles
 E2 =    -0.1584917546D+01 EUMP2 =    -0.47231803129345D+03

 The electronic state is 1-A.
 Alpha  occ. eigenvalues --  -11.21658 -11.21655 -11.21644 -11.21642 -11.21473
 Alpha  occ. eigenvalues --  -11.21453 -11.21414 -11.21391 -11.21125 -11.21117
 Alpha  occ. eigenvalues --  -11.21103 -11.21089  -1.08532  -1.08450  -1.03614
 Alpha  occ. eigenvalues --   -1.03547  -0.96050  -0.96005  -0.87080  -0.87006
 Alpha  occ. eigenvalues --   -0.79688  -0.79601  -0.78436  -0.78184  -0.65464
 Alpha  occ. eigenvalues --   -0.64803  -0.61251  -0.60735  -0.59435  -0.59345
 Alpha  occ. eigenvalues --   -0.57660  -0.57617  -0.55463  -0.55173  -0.52725
 Alpha  occ. eigenvalues --   -0.52710  -0.52495  -0.52416  -0.50159  -0.49787
 Alpha  occ. eigenvalues --   -0.48089  -0.47856  -0.46867  -0.46580  -0.46340
 Alpha  occ. eigenvalues --   -0.45827  -0.45787  -0.45094  -0.43843  -0.43823
 Alpha virt. eigenvalues --    0.18838   0.20995   0.24132   0.24951   0.25337
 Alpha virt. eigenvalues --    0.26165   0.26664   0.27596   0.29161   0.29687
 Alpha virt. eigenvalues --    0.30843   0.31509   0.31689   0.31880   0.32085

 Mulliken charges:
               1
     1  C   -0.297355
     2  C   -0.310203
     3  C   -0.475647
     4  H    0.149220
     5  H    0.150116
     6  H    0.160308
     7  H    0.152524
     8  H    0.155564
     9  H    0.155509
    10  H    0.160674
    11  C   -0.306007
    12  C   -0.299327
    13  C   -0.477913
    14  H    0.155763
    15  H    0.150028
    16  H    0.151607
    17  H    0.152360
    18  H    0.155372
    19  H    0.157131
    20  H    0.160554
    21  C   -0.308369
    22  C   -0.298977
    23  C   -0.478774
    24  H    0.157936
    25  H    0.150129
    26  H    0.151235
    27  H    0.152302
    28  H    0.155321
    29  H    0.158064
    30  H    0.160475
    31  C   -0.297577
    32  C   -0.305334
    33  C   -0.476580
    34  H    0.148839
    35  H    0.150169
    36  H    0.156391
    37  H    0.152555
    38  H    0.155527
    39  H    0.155470
    40  H    0.160922
 Sum of Mulliken charges =  -0.00000

 Dipole moment (field-independent basis, Debye):
    X=             -0.0034    Y=             -0.0025    Z=             -0.0179  Tot=              0.0184
 Quadrupole moment (field-independent basis, Debye-Ang):
   XX=            -83.0635   YY=            -86.9659   ZZ=            -84.5306
   XY=              0.6613   XZ=              0.1936   YZ=             -0.0118

 Normal termination of Gaussian 16 at Wed May  5 15:02:50 2021.
