 Gaussian 16, Revision A.03,
 Gaussian 16:  EM64L-G16RevA.03 25-Dec-2016

 -------------
 #p 6-31g* mp2
 -------------

 ------------------------------------------------------
 Input file generated by CHIRIPA (05-May-2021 14:55:25)
 ------------------------------------------------------
 Symbolic Z-matrix:
 Charge =  0 Multiplicity = 1

                         Standard orientation:
 ---------------------------------------------------------------------
 Center     Atomic      Atomic             Coordinates (Angstroms)
 Number     Number       Type             X           Y           Z
 ---------------------------------------------------------------------
      1          6           0       -4.316414   -1.390477   -1.344604
      2          6           0       -2.928757   -1.495283   -1.485833
      3          6           0       -2.073021   -0.808585   -0.619397
      4          6           0       -2.641600   -0.022483    0.381629
      5          6           0       -4.020045    0.102116    0.547924
      6          6           0       -4.856676   -0.593517   -0.329965
      7          1           0       -4.973750   -1.927392   -2.022120
      8          1           0       -2.506380   -2.113479   -2.272900
      9          1           0       -0.995116   -0.871916   -0.706156
     10          1           0       -4.411561    0.726093    1.342145
     11          1           0       -5.933968   -0.510258   -0.217918
     12          7           0       -1.745783    0.709223    1.304948
     13          8           0       -2.271633    1.395255    2.178721
     14          8           0       -0.534754    0.582847    1.137390
     15          6           0        3.046207    0.733999   -0.220303
     16          6           0        2.921721    1.621446   -1.459223
     17          6           0        1.869398    2.718767   -1.297053
     18          1           0        2.070112    0.278790   -0.003585
     19          1           0        3.298552    1.360049    0.646748
     20          1           0        2.671046    0.993726   -2.323946
     21          1           0        3.898272    2.074445   -1.673129
     22          1           0        2.117889    3.368961   -0.452007
     23          1           0        0.883690    2.282102   -1.106521
     24          1           0        1.796987    3.341320   -2.194295
     25          6           0        4.094250   -0.367720   -0.367101
     26          6           0        4.218736   -1.255169    0.871819
     27          6           0        5.271059   -2.352490    0.709649
     28          1           0        3.841905   -0.993771   -1.234152
     29          1           0        5.070346    0.087488   -0.583818
     30          1           0        3.242185   -1.708167    1.085726
     31          1           0        4.469413   -0.627449    1.736542
     32          1           0        6.256768   -1.915824    0.519118
     33          1           0        5.022569   -3.002683   -0.135396
     34          1           0        5.343470   -2.975043    1.606892
 ---------------------------------------------------------------------

 SCF Done:  E(RHF) =  -669.536030966     A.U. after   15 cycles
 E2 =    -0.2091645431D+01 EUMP2 =    -0.67162767639691D+03

 The electronic state is 1-A.
 Alpha  occ. eigenvalues --  -20.60977 -20.60969 -15.86003 -11.31321 -11.27892
 Alpha  occ. eigenvalues --  -11.27876 -11.27616 -11.26891 -11.26880 -11.20977
 Alpha  occ. eigenvalues --  -11.20856 -11.20714 -11.20624 -11.20333 -11.20177
 Alpha  occ. eigenvalues --   -1.60031  -1.39589  -1.19489  -1.08892  -1.07669
 Alpha  occ. eigenvalues --   -1.04886  -1.02828  -0.95736  -0.95263  -0.86287
 Alpha  occ. eigenvalues --   -0.86277  -0.82575  -0.78896  -0.77679  -0.77377
 Alpha  occ. eigenvalues --   -0.72227  -0.71340  -0.70598  -0.65150  -0.64889
 Alpha  occ. eigenvalues --   -0.64310  -0.62236  -0.60241  -0.58637  -0.56863
 Alpha  occ. eigenvalues --   -0.55388  -0.54556  -0.53215  -0.52978  -0.52000
 Alpha  occ. eigenvalues --   -0.51665  -0.49209  -0.48994  -0.48978  -0.47206
 Alpha  occ. eigenvalues --   -0.45957  -0.45096  -0.44966  -0.44739  -0.43059
 Alpha  occ. eigenvalues --   -0.37465  -0.36486
 Alpha virt. eigenvalues --    0.04885   0.11160   0.16367   0.20828   0.23202
 Alpha virt. eigenvalues --    0.24713   0.26347   0.27461   0.27831   0.28648
 Alpha virt. eigenvalues --    0.29090   0.30925   0.31735   0.32318   0.32482

 Mulliken charges:
               1
     1  C   -0.170532
     2  C   -0.218605
     3  C   -0.170838
     4  C    0.157847
     5  C   -0.170787
     6  C   -0.218486
     7  H    0.226146
     8  H    0.224026
     9  H    0.275509
    10  H    0.275973
    11  H    0.223974
    12  N    0.495116
    13  O   -0.458271
    14  O   -0.466918
    15  C   -0.305712
    16  C   -0.299040
    17  C   -0.475616
    18  H    0.168770
    19  H    0.152425
    20  H    0.143595
    21  H    0.148569
    22  H    0.158238
    23  H    0.160955
    24  H    0.153073
    25  C   -0.297667
    26  C   -0.298680
    27  C   -0.475139
    28  H    0.142929
    29  H    0.147024
    30  H    0.152977
    31  H    0.154069
    32  H    0.154175
    33  H    0.151859
    34  H    0.159043
 Sum of Mulliken charges =  -0.00000

 Dipole moment (field-independent basis, Debye):
    X=             -3.4288    Y=             -2.5438    Z=             -3.0611  Tot=              5.2534
 Quadrupole moment (field-independent basis, Debye-Ang):
   XX=            -75.7767   YY=            -95.2561   ZZ=            -96.8340
   XY=              6.5871   XZ=              6.1231   YZ=              0.8380

 Normal termination of Gaussian 16 at Thu May  6 04:50:06 2021.
