 Gaussian 16, Revision A.03,
 Gaussian 16:  EM64L-G16RevA.03 25-Dec-2016

 -------------
 #p 6-31g* mp2
 -------------

 ------------------------------------------------------
 Input file generated by CHIRIPA (05-May-2021 14:55:22)
 ------------------------------------------------------
 Symbolic Z-matrix:
 Charge =  0 Multiplicity = 1

                         Standard orientation:
 ---------------------------------------------------------------------
 Center     Atomic      Atomic             Coordinates (Angstroms)
 Number     Number       Type             X           Y           Z
 ---------------------------------------------------------------------
      1          6           0       -0.571708    0.441189    1.090749
      2          6           0       -0.826980   -0.856786    0.636197
      3          6           0       -2.082757   -1.195383    0.123436
      4          6           0       -3.064575   -0.206739    0.079763
      5          6           0       -2.840951    1.095215    0.524958
      6          6           0       -1.577734    1.411336    1.033779
      7          1           0        0.406700    0.695490    1.487544
      8          1           0       -0.047584   -1.612256    0.679230
      9          1           0       -2.307478   -2.192512   -0.235245
     10          1           0       -3.637882    1.826803    0.469307
     11          1           0       -1.382327    2.420170    1.386080
     12          7           0       -4.397948   -0.553300   -0.460989
     13          8           0       -5.246053    0.335849   -0.488697
     14          8           0       -4.569692   -1.707521   -0.846882
     15          6           0        4.137897   -0.353488   -0.415829
     16          6           0        3.964382   -1.650912    0.374468
     17          6           0        4.964923   -2.731634   -0.036324
     18          1           0        4.029229   -0.567343   -1.487930
     19          1           0        5.161454    0.020082   -0.273797
     20          1           0        2.941034   -2.021187    0.232099
     21          1           0        4.073286   -1.433908    1.444825
     22          1           0        5.991684   -2.386337    0.122212
     23          1           0        4.852998   -2.976953   -1.097405
     24          1           0        4.823026   -3.650482    0.541122
     25          6           0        3.144839    0.736519   -0.016518
     26          6           0        3.318354    2.033943   -0.806814
     27          6           0        2.317813    3.114665   -0.396022
     28          1           0        2.121282    0.362949   -0.158550
     29          1           0        3.253507    0.950375    1.055583
     30          1           0        3.209450    1.816939   -1.877172
     31          1           0        4.341703    2.404219   -0.664446
     32          1           0        2.429738    3.359985    0.665058
     33          1           0        1.291052    2.769369   -0.554559
     34          1           0        2.459710    4.033513   -0.973469
 ---------------------------------------------------------------------

 SCF Done:  E(RHF) =  -669.535346130     A.U. after   15 cycles
 E2 =    -0.2092936174D+01 EUMP2 =    -0.67162828230467D+03

 The electronic state is 1-A.
 Alpha  occ. eigenvalues --  -20.60752 -20.60746 -15.85806 -11.31171 -11.27751
 Alpha  occ. eigenvalues --  -11.27745 -11.27403 -11.26740 -11.26725 -11.22589
 Alpha  occ. eigenvalues --  -11.22507 -11.22445 -11.22280 -11.21993 -11.21820
 Alpha  occ. eigenvalues --   -1.59828  -1.39381  -1.19345  -1.09408  -1.08727
 Alpha  occ. eigenvalues --   -1.04747  -1.04439  -0.96886  -0.95568  -0.87903
 Alpha  occ. eigenvalues --   -0.86138  -0.82407  -0.80515  -0.79282  -0.77450
 Alpha  occ. eigenvalues --   -0.72023  -0.71152  -0.70433  -0.66033  -0.64989
 Alpha  occ. eigenvalues --   -0.64728  -0.62099  -0.61819  -0.60259  -0.58514
 Alpha  occ. eigenvalues --   -0.56174  -0.55240  -0.53546  -0.53305  -0.53088
 Alpha  occ. eigenvalues --   -0.52829  -0.50820  -0.48833  -0.48779  -0.48764
 Alpha  occ. eigenvalues --   -0.47540  -0.46748  -0.46695  -0.44787  -0.44705
 Alpha  occ. eigenvalues --   -0.37264  -0.36355
 Alpha virt. eigenvalues --    0.05050   0.11136   0.16478   0.19681   0.22356
 Alpha virt. eigenvalues --    0.22769   0.25009   0.25546   0.26774   0.28242
 Alpha virt. eigenvalues --    0.29141   0.29941   0.30702   0.31081   0.31620

 Mulliken charges:
               1
     1  C   -0.172492
     2  C   -0.223796
     3  C   -0.170985
     4  C    0.158281
     5  C   -0.170856
     6  C   -0.221878
     7  H    0.234155
     8  H    0.226148
     9  H    0.275644
    10  H    0.275646
    11  H    0.224711
    12  N    0.488103
    13  O   -0.460458
    14  O   -0.460546
    15  C   -0.297869
    16  C   -0.301223
    17  C   -0.476166
    18  H    0.153478
    19  H    0.153103
    20  H    0.145241
    21  H    0.151986
    22  H    0.157951
    23  H    0.157656
    24  H    0.161996
    25  C   -0.308227
    26  C   -0.298223
    27  C   -0.482258
    28  H    0.150451
    29  H    0.145472
    30  H    0.156434
    31  H    0.155046
    32  H    0.151324
    33  H    0.156613
    34  H    0.165537
 Sum of Mulliken charges =  -0.00000

 Dipole moment (field-independent basis, Debye):
    X=              4.8881    Y=              1.2364    Z=              1.8150  Tot=              5.3587
 Quadrupole moment (field-independent basis, Debye-Ang):
   XX=           -122.8406   YY=            -91.3842   ZZ=            -94.5878
   XY=             -5.7304   XZ=             -5.5741   YZ=              0.5743

 Normal termination of Gaussian 16 at Thu May  6 09:24:13 2021.
