 Gaussian 16, Revision A.03,
 Gaussian 16:  EM64L-G16RevA.03 25-Dec-2016

 -------------
 #p 6-31g* mp2
 -------------

 ------------------------------------------------------
 Input file generated by CHIRIPA (05-May-2021 14:51:07)
 ------------------------------------------------------
 Symbolic Z-matrix:
 Charge =  0 Multiplicity = 1

                         Standard orientation:
 ---------------------------------------------------------------------
 Center     Atomic      Atomic             Coordinates (Angstroms)
 Number     Number       Type             X           Y           Z
 ---------------------------------------------------------------------
      1          6           0       -2.290144   -0.277021   -0.345579
      2          6           0       -3.322286   -0.775696   -1.357504
      3          6           0       -3.067717   -2.216881   -1.800192
      4          1           0       -1.286758   -0.354975   -0.786129
      5          1           0       -2.298369   -0.938060    0.532120
      6          1           0       -3.313090   -0.113106   -2.232436
      7          1           0       -4.323349   -0.696366   -0.914565
      8          1           0       -3.097324   -2.894738   -0.940986
      9          1           0       -2.081325   -2.308164   -2.266345
     10          1           0       -3.817192   -2.553015   -2.523492
     11          6           0       -2.531254    1.162142    0.106531
     12          6           0       -1.499112    1.660817    1.118456
     13          6           0       -1.753681    3.102003    1.561144
     14          1           0       -2.523030    1.823181   -0.771168
     15          1           0       -3.534641    1.240096    0.547080
     16          1           0       -0.498049    1.581487    0.675517
     17          1           0       -1.508308    0.998227    1.993388
     18          1           0       -2.740073    3.193285    2.027297
     19          1           0       -1.724074    3.779859    0.701938
     20          1           0       -1.004207    3.438136    2.284443
     21          6           0        1.844987   -0.882946    0.383083
     22          6           0        2.112037   -1.440811    1.781460
     23          6           0        0.971274   -2.319847    2.295024
     24          1           0        0.911895   -0.303252    0.398540
     25          1           0        1.682681   -1.718022   -0.312401
     26          1           0        2.275162   -0.604964    2.473824
     27          1           0        3.044703   -2.019085    1.762718
     28          1           0        0.811346   -3.172528    1.627224
     29          1           0        0.037432   -1.750374    2.342370
     30          1           0        1.183036   -2.708052    3.296181
     31          6           0        2.976411   -0.002175   -0.144036
     32          6           0        2.709361    0.555689   -1.542412
     33          6           0        3.850125    1.434726   -2.055976
     34          1           0        3.138718    0.832901    0.551449
     35          1           0        3.909503   -0.581869   -0.159492
     36          1           0        1.776696    1.133963   -1.523670
     37          1           0        2.546237   -0.280157   -2.234776
     38          1           0        4.783966    0.865252   -2.103321
     39          1           0        4.010053    2.287407   -1.388176
     40          1           0        3.638363    1.822931   -3.057132
 ---------------------------------------------------------------------

 SCF Done:  E(RHF) =  -470.732745519     A.U. after   11 cycles
 E2 =    -0.1584653523D+01 EUMP2 =    -0.47231739904192D+03

 The electronic state is 1-A.
 Alpha  occ. eigenvalues --  -11.21701 -11.21649 -11.21599 -11.21553 -11.21437
 Alpha  occ. eigenvalues --  -11.21374 -11.21349 -11.21256 -11.21146 -11.21100
 Alpha  occ. eigenvalues --  -11.21056 -11.21024  -1.08500  -1.08386  -1.03572
 Alpha  occ. eigenvalues --   -1.03517  -0.96013  -0.95963  -0.87030  -0.86980
 Alpha  occ. eigenvalues --   -0.79651  -0.79589  -0.78522  -0.78004  -0.65242
 Alpha  occ. eigenvalues --   -0.64925  -0.60970  -0.60919  -0.59383  -0.59329
 Alpha  occ. eigenvalues --   -0.57634  -0.57572  -0.55311  -0.55244  -0.52725
 Alpha  occ. eigenvalues --   -0.52662  -0.52438  -0.52391  -0.49955  -0.49921
 Alpha  occ. eigenvalues --   -0.47982  -0.47920  -0.46781  -0.46656  -0.46444
 Alpha  occ. eigenvalues --   -0.45732  -0.45704  -0.44868  -0.43814  -0.43759
 Alpha virt. eigenvalues --    0.20216   0.22713   0.23400   0.24275   0.24826
 Alpha virt. eigenvalues --    0.25752   0.26996   0.27881   0.28755   0.30230
 Alpha virt. eigenvalues --    0.31037   0.31531   0.31729   0.31801   0.32109

 Mulliken charges:
               1
     1  C   -0.304411
     2  C   -0.299394
     3  C   -0.475695
     4  H    0.155176
     5  H    0.150729
     6  H    0.151843
     7  H    0.151794
     8  H    0.155459
     9  H    0.155363
    10  H    0.160105
    11  C   -0.298015
    12  C   -0.306119
    13  C   -0.475169
    14  H    0.149439
    15  H    0.149883
    16  H    0.155830
    17  H    0.152450
    18  H    0.155676
    19  H    0.155448
    20  H    0.160258
    21  C   -0.310555
    22  C   -0.298615
    23  C   -0.478014
    24  H    0.163994
    25  H    0.148621
    26  H    0.151541
    27  H    0.151564
    28  H    0.155237
    29  H    0.157219
    30  H    0.159718
    31  C   -0.297636
    32  C   -0.301010
    33  C   -0.475572
    34  H    0.149136
    35  H    0.149697
    36  H    0.151038
    37  H    0.151934
    38  H    0.155555
    39  H    0.155335
    40  H    0.160165
 Sum of Mulliken charges =  -0.00000

 Dipole moment (field-independent basis, Debye):
    X=             -0.0268    Y=              0.0121    Z=             -0.0040  Tot=              0.0296
 Quadrupole moment (field-independent basis, Debye-Ang):
   XX=            -84.8337   YY=            -85.5080   ZZ=            -84.4981
   XY=             -0.5900   XZ=             -0.2775   YZ=              0.0284

 Normal termination of Gaussian 16 at Wed May  5 15:01:28 2021.
