 Gaussian 16, Revision A.03,
 Gaussian 16:  EM64L-G16RevA.03 25-Dec-2016

 -------------
 #p 6-31g* mp2
 -------------

 ------------------------------------------------------
 Input file generated by CHIRIPA (05-May-2021 14:55:23)
 ------------------------------------------------------
 Symbolic Z-matrix:
 Charge =  0 Multiplicity = 1

                         Standard orientation:
 ---------------------------------------------------------------------
 Center     Atomic      Atomic             Coordinates (Angstroms)
 Number     Number       Type             X           Y           Z
 ---------------------------------------------------------------------
      1          6           0        4.674705    1.217027    0.409157
      2          6           0        4.958788   -0.152362    0.384831
      3          6           0        3.946481   -1.083129    0.132929
      4          6           0        2.655500   -0.607395   -0.091427
      5          6           0        2.340918    0.750550   -0.073722
      6          6           0        3.368978    1.663326    0.180207
      7          1           0        5.467208    1.933082    0.605628
      8          1           0        5.971912   -0.501837    0.562289
      9          1           0        4.138576   -2.148921    0.108332
     10          1           0        1.321292    1.068638   -0.254279
     11          1           0        3.145439    2.726218    0.198495
     12          7           0        1.575477   -1.583234   -0.359177
     13          8           0        0.446306   -1.138542   -0.553747
     14          8           0        1.878578   -2.774310   -0.369400
     15          6           0       -4.227454    0.158684   -0.168021
     16          6           0       -4.483087   -1.072624    0.701759
     17          6           0       -5.687810   -1.888510    0.231902
     18          1           0       -5.124481    0.792946   -0.167212
     19          1           0       -4.071826   -0.161288   -1.207632
     20          1           0       -4.636816   -0.750538    1.739663
     21          1           0       -3.585280   -1.703934    0.699034
     22          1           0       -5.539600   -2.237906   -0.795015
     23          1           0       -6.597110   -1.279093    0.251526
     24          1           0       -5.852383   -2.764017    0.867719
     25          6           0       -3.026307    0.984523    0.289104
     26          6           0       -2.770675    2.215831   -0.580676
     27          6           0       -1.565953    3.031717   -0.110817
     28          1           0       -3.181938    1.304495    1.328716
     29          1           0       -2.129282    0.350261    0.288296
     30          1           0       -3.668483    2.847141   -0.577951
     31          1           0       -2.616947    1.893745   -1.618579
     32          1           0       -0.656652    2.422300   -0.130442
     33          1           0       -1.714162    3.381113    0.916099
     34          1           0       -1.401379    3.907223   -0.746634
 ---------------------------------------------------------------------

 SCF Done:  E(RHF) =  -669.536009614     A.U. after   15 cycles
 E2 =    -0.2091708869D+01 EUMP2 =    -0.67162771848278D+03

 The electronic state is 1-A.
 Alpha  occ. eigenvalues --  -20.60922 -20.60911 -15.85960 -11.31251 -11.27815
 Alpha  occ. eigenvalues --  -11.27804 -11.27548 -11.26820 -11.26802 -11.21280
 Alpha  occ. eigenvalues --  -11.21199 -11.20804 -11.20679 -11.20618 -11.20386
 Alpha  occ. eigenvalues --   -1.59982  -1.39539  -1.19420  -1.08829  -1.07813
 Alpha  occ. eigenvalues --   -1.04814  -1.03050  -0.95677  -0.95523  -0.86561
 Alpha  occ. eigenvalues --   -0.86214  -0.82510  -0.79116  -0.77641  -0.77506
 Alpha  occ. eigenvalues --   -0.72184  -0.71296  -0.70541  -0.65077  -0.64835
 Alpha  occ. eigenvalues --   -0.64412  -0.62192  -0.60432  -0.58915  -0.57118
 Alpha  occ. eigenvalues --   -0.55343  -0.54805  -0.53146  -0.52917  -0.52267
 Alpha  occ. eigenvalues --   -0.51951  -0.49482  -0.48943  -0.48924  -0.47433
 Alpha  occ. eigenvalues --   -0.46102  -0.45170  -0.45071  -0.44845  -0.43249
 Alpha  occ. eigenvalues --   -0.37399  -0.36411
 Alpha virt. eigenvalues --    0.04951   0.11239   0.16447   0.20027   0.23247
 Alpha virt. eigenvalues --    0.24260   0.25984   0.27397   0.27797   0.28465
 Alpha virt. eigenvalues --    0.29415   0.30736   0.31486   0.31952   0.32503

 Mulliken charges:
               1
     1  C   -0.170397
     2  C   -0.219139
     3  C   -0.169647
     4  C    0.157603
     5  C   -0.181381
     6  C   -0.223203
     7  H    0.225971
     8  H    0.223694
     9  H    0.275705
    10  H    0.292230
    11  H    0.224628
    12  N    0.489795
    13  O   -0.465138
    14  O   -0.459057
    15  C   -0.297322
    16  C   -0.301817
    17  C   -0.475508
    18  H    0.145139
    19  H    0.152322
    20  H    0.148276
    21  H    0.162385
    22  H    0.156290
    23  H    0.151933
    24  H    0.159194
    25  C   -0.307994
    26  C   -0.297621
    27  C   -0.479935
    28  H    0.144551
    29  H    0.171163
    30  H    0.150467
    31  H    0.154881
    32  H    0.147965
    33  H    0.155721
    34  H    0.158248
 Sum of Mulliken charges =  -0.00000

 Dipole moment (field-independent basis, Debye):
    X=              3.9143    Y=              3.2925    Z=              0.9139  Tot=              5.1959
 Quadrupole moment (field-independent basis, Debye-Ang):
   XX=            -73.4810   YY=            -96.8668   ZZ=            -95.5474
   XY=              3.4397   XZ=              2.2106   YZ=             -1.0444

 Normal termination of Gaussian 16 at Thu May  6 01:32:13 2021.
