 Gaussian 16, Revision A.03,
 Gaussian 16:  EM64L-G16RevA.03 25-Dec-2016

 -------------
 #p 6-31g* mp2
 -------------

 ------------------------------------------------------
 Input file generated by CHIRIPA (05-May-2021 14:55:23)
 ------------------------------------------------------
 Symbolic Z-matrix:
 Charge =  0 Multiplicity = 1

                         Standard orientation:
 ---------------------------------------------------------------------
 Center     Atomic      Atomic             Coordinates (Angstroms)
 Number     Number       Type             X           Y           Z
 ---------------------------------------------------------------------
      1          6           0       -0.526833    0.007502    2.302486
      2          6           0       -1.199994   -1.177894    1.989098
      3          6           0       -2.073056   -1.231579    0.898489
      4          6           0       -2.250195   -0.075919    0.139304
      5          6           0       -1.593992    1.120080    0.426140
      6          6           0       -0.725631    1.150690    1.521384
      7          1           0        0.149556    0.040243    3.151498
      8          1           0       -1.047541   -2.067252    2.593951
      9          1           0       -2.606973   -2.136074    0.633461
     10          1           0       -1.766360    1.990386   -0.195370
     11          1           0       -0.204185    2.072668    1.762416
     12          7           0       -3.171978   -0.120538   -1.017728
     13          8           0       -3.310820    0.911318   -1.670899
     14          8           0       -3.738177   -1.186523   -1.249531
     15          6           0        2.640898   -0.576340   -0.797074
     16          6           0        3.196345   -1.759213   -0.003176
     17          6           0        3.099537   -3.080788   -0.765973
     18          1           0        1.591945   -0.776369   -1.055207
     19          1           0        3.186238   -0.493068   -1.747371
     20          1           0        2.651049   -1.839383    0.945951
     21          1           0        4.244041   -1.556261    0.253261
     22          1           0        3.658930   -3.025214   -1.705436
     23          1           0        2.056886   -3.309944   -1.008811
     24          1           0        3.502198   -3.912926   -0.180081
     25          6           0        2.730683    0.751866   -0.047718
     26          6           0        2.175236    1.934739   -0.841617
     27          6           0        2.272045    3.256314   -0.078820
     28          1           0        2.185343    0.668594    0.902579
     29          1           0        3.779636    0.951894    0.210413
     30          1           0        1.127540    1.731787   -1.098055
     31          1           0        2.720532    2.014909   -1.790744
     32          1           0        3.314694    3.485469    0.164018
     33          1           0        1.712652    3.200740    0.860644
     34          1           0        1.869382    4.088452   -0.664712
 ---------------------------------------------------------------------

 SCF Done:  E(RHF) =  -669.534736852     A.U. after   15 cycles
 E2 =    -0.2094861974D+01 EUMP2 =    -0.67162959882651D+03

 The electronic state is 1-A.
 Alpha  occ. eigenvalues --  -20.60863 -20.60858 -15.85918 -11.31332 -11.27888
 Alpha  occ. eigenvalues --  -11.27881 -11.27633 -11.26920 -11.26891 -11.22038
 Alpha  occ. eigenvalues --  -11.21961 -11.21811 -11.21774 -11.21646 -11.21348
 Alpha  occ. eigenvalues --   -1.59938  -1.39490  -1.19507  -1.08930  -1.08781
 Alpha  occ. eigenvalues --   -1.04917  -1.03966  -0.96428  -0.95717  -0.87443
 Alpha  occ. eigenvalues --   -0.86309  -0.82545  -0.80027  -0.78625  -0.77590
 Alpha  occ. eigenvalues --   -0.72134  -0.71264  -0.70602  -0.65575  -0.65154
 Alpha  occ. eigenvalues --   -0.64855  -0.62342  -0.61284  -0.59790  -0.58033
 Alpha  occ. eigenvalues --   -0.55787  -0.55367  -0.53218  -0.53126  -0.53038
 Alpha  occ. eigenvalues --   -0.52795  -0.50367  -0.48899  -0.48887  -0.48344
 Alpha  occ. eigenvalues --   -0.47058  -0.46167  -0.46089  -0.44885  -0.44191
 Alpha  occ. eigenvalues --   -0.37429  -0.36456
 Alpha virt. eigenvalues --    0.04896   0.11006   0.16286   0.19760   0.22932
 Alpha virt. eigenvalues --    0.23719   0.25759   0.26415   0.26540   0.28629
 Alpha virt. eigenvalues --    0.28959   0.29714   0.31205   0.31412   0.31940

 Mulliken charges:
               1
     1  C   -0.172454
     2  C   -0.218662
     3  C   -0.171470
     4  C    0.158121
     5  C   -0.173993
     6  C   -0.217253
     7  H    0.226874
     8  H    0.224402
     9  H    0.276217
    10  H    0.276814
    11  H    0.230399
    12  N    0.488099
    13  O   -0.459844
    14  O   -0.459985
    15  C   -0.298760
    16  C   -0.298829
    17  C   -0.476199
    18  H    0.153773
    19  H    0.151310
    20  H    0.146288
    21  H    0.151637
    22  H    0.157299
    23  H    0.156568
    24  H    0.159363
    25  C   -0.298274
    26  C   -0.303439
    27  C   -0.477655
    28  H    0.144741
    29  H    0.148776
    30  H    0.154728
    31  H    0.156169
    32  H    0.158998
    33  H    0.142441
    34  H    0.163804
 Sum of Mulliken charges =  -0.00000

 Dipole moment (field-independent basis, Debye):
    X=              3.1972    Y=              0.1177    Z=              3.9924  Tot=              5.1162
 Quadrupole moment (field-independent basis, Debye-Ang):
   XX=           -109.1069   YY=            -91.3047   ZZ=            -93.9974
   XY=              0.6601   XZ=             -9.6671   YZ=             -1.9818

 Normal termination of Gaussian 16 at Thu May  6 17:36:44 2021.
