 Gaussian 16, Revision A.03,
 Gaussian 16:  EM64L-G16RevA.03 25-Dec-2016

 -------------
 #p 6-31g* mp2
 -------------

 ------------------------------------------------------
 Input file generated by CHIRIPA (05-May-2021 14:51:08)
 ------------------------------------------------------
 Symbolic Z-matrix:
 Charge =  0 Multiplicity = 1

                         Standard orientation:
 ---------------------------------------------------------------------
 Center     Atomic      Atomic             Coordinates (Angstroms)
 Number     Number       Type             X           Y           Z
 ---------------------------------------------------------------------
      1          6           0        4.350284    0.165054    0.319439
      2          6           0        4.857695    1.148934   -0.735312
      3          6           0        6.263524    1.667931   -0.431862
      4          1           0        4.357416    0.655327    1.302560
      5          1           0        5.047888   -0.681210    0.387116
      6          1           0        4.158613    1.992414   -0.801961
      7          1           0        4.849174    0.656324   -1.716066
      8          1           0        6.978218    0.839877   -0.385594
      9          1           0        6.283733    2.183558    0.533705
     10          1           0        6.606552    2.369714   -1.198473
     11          6           0        2.946183   -0.362620    0.029978
     12          6           0        2.438773   -1.346500    1.084729
     13          6           0        1.032944   -1.865497    0.781279
     14          1           0        2.248579    0.483644   -0.037698
     15          1           0        2.939052   -0.852893   -0.953143
     16          1           0        2.447294   -0.853890    2.065483
     17          1           0        3.137855   -2.189980    1.151378
     18          1           0        1.012735   -2.381124   -0.184288
     19          1           0        0.318250   -1.037443    0.735011
     20          1           0        0.689916   -2.567280    1.547890
     21          6           0       -3.175590   -0.380636   -0.535537
     22          6           0       -3.388491   -1.845373   -0.151867
     23          6           0       -2.435519   -2.792242   -0.881990
     24          1           0       -3.306234   -0.269743   -1.620700
     25          1           0       -2.136711   -0.098440   -0.315329
     26          1           0       -4.427039   -2.124329   -0.371447
     27          1           0       -3.257513   -1.952757    0.932537
     28          1           0       -1.394310   -2.541985   -0.654271
     29          1           0       -2.570481   -2.714532   -1.965663
     30          1           0       -2.605065   -3.834119   -0.592842
     31          6           0       -4.120878    0.578202    0.186120
     32          6           0       -3.907978    2.042939   -0.197551
     33          6           0       -4.860949    2.989808    0.532573
     34          1           0       -5.159755    0.296006   -0.034088
     35          1           0       -3.990233    0.467310    1.271283
     36          1           0       -4.038955    2.150323   -1.281954
     37          1           0       -2.869429    2.321896    0.022029
     38          1           0       -4.725987    2.912098    1.616246
     39          1           0       -5.902158    2.739552    0.304853
     40          1           0       -4.691403    4.031685    0.243424
 ---------------------------------------------------------------------

 SCF Done:  E(RHF) =  -470.732935901     A.U. after   11 cycles
 E2 =    -0.1583008896D+01 EUMP2 =    -0.47231594479630D+03

 The electronic state is 1-A.
 Alpha  occ. eigenvalues --  -11.21662 -11.21625 -11.21587 -11.21501 -11.21446
 Alpha  occ. eigenvalues --  -11.21385 -11.21363 -11.21300 -11.21174 -11.21089
 Alpha  occ. eigenvalues --  -11.21061 -11.20854  -1.08476  -1.08375  -1.03593
 Alpha  occ. eigenvalues --   -1.03451  -0.96061  -0.95889  -0.87099  -0.86892
 Alpha  occ. eigenvalues --   -0.79705  -0.79482  -0.78297  -0.78178  -0.65110
 Alpha  occ. eigenvalues --   -0.65007  -0.60983  -0.60870  -0.59402  -0.59279
 Alpha  occ. eigenvalues --   -0.57692  -0.57485  -0.55382  -0.55170  -0.52759
 Alpha  occ. eigenvalues --   -0.52597  -0.52555  -0.52234  -0.50058  -0.49760
 Alpha  occ. eigenvalues --   -0.48102  -0.47728  -0.46680  -0.46535  -0.45895
 Alpha  occ. eigenvalues --   -0.45752  -0.45709  -0.45525  -0.43827  -0.43721
 Alpha virt. eigenvalues --    0.21313   0.22966   0.23747   0.24691   0.25853
 Alpha virt. eigenvalues --    0.26324   0.27230   0.27524   0.27791   0.29168
 Alpha virt. eigenvalues --    0.30584   0.31010   0.31610   0.31827   0.32122

 Mulliken charges:
               1
     1  C   -0.298339
     2  C   -0.299683
     3  C   -0.475739
     4  H    0.149667
     5  H    0.149671
     6  H    0.151985
     7  H    0.152087
     8  H    0.155234
     9  H    0.155186
    10  H    0.160369
    11  C   -0.298394
    12  C   -0.300335
    13  C   -0.480602
    14  H    0.149313
    15  H    0.150016
    16  H    0.151998
    17  H    0.152428
    18  H    0.156756
    19  H    0.157269
    20  H    0.161643
    21  C   -0.301169
    22  C   -0.298459
    23  C   -0.485792
    24  H    0.149631
    25  H    0.151214
    26  H    0.151297
    27  H    0.151534
    28  H    0.169103
    29  H    0.153650
    30  H    0.158966
    31  C   -0.298174
    32  C   -0.299489
    33  C   -0.475666
    34  H    0.149599
    35  H    0.149464
    36  H    0.151993
    37  H    0.151322
    38  H    0.155083
    39  H    0.155248
    40  H    0.160114
 Sum of Mulliken charges =  -0.00000

 Dipole moment (field-independent basis, Debye):
    X=              0.0663    Y=             -0.0080    Z=              0.0103  Tot=              0.0676
 Quadrupole moment (field-independent basis, Debye-Ang):
   XX=            -85.6955   YY=            -85.0941   ZZ=            -84.1483
   XY=             -0.3344   XZ=              0.4586   YZ=              0.0460

 Normal termination of Gaussian 16 at Thu May  6 02:05:01 2021.
