 Gaussian 16, Revision A.03,
 Gaussian 16:  EM64L-G16RevA.03 25-Dec-2016

 -------------
 #p 6-31g* mp2
 -------------

 ------------------------------------------------------
 Input file generated by CHIRIPA (05-May-2021 14:51:12)
 ------------------------------------------------------
 Symbolic Z-matrix:
 Charge =  0 Multiplicity = 1

                         Standard orientation:
 ---------------------------------------------------------------------
 Center     Atomic      Atomic             Coordinates (Angstroms)
 Number     Number       Type             X           Y           Z
 ---------------------------------------------------------------------
      1          6           0        2.425289   -0.468604   -0.441797
      2          6           0        2.915479    0.951742   -0.725198
      3          6           0        3.564265    1.089343   -2.102855
      4          1           0        3.271698   -1.164470   -0.521219
      5          1           0        1.705292   -0.762281   -1.218169
      6          1           0        3.633294    1.243166    0.052253
      7          1           0        2.067842    1.644332   -0.644904
      8          1           0        2.852860    0.824799   -2.891855
      9          1           0        4.427207    0.421354   -2.190737
     10          1           0        3.907429    2.112604   -2.284607
     11          6           0        1.774306   -0.622066    0.931665
     12          6           0        1.284116   -2.042412    1.215067
     13          6           0        0.635330   -2.180013    2.592723
     14          1           0        2.494303   -0.328389    1.708037
     15          1           0        0.927897    0.073799    1.011087
     16          1           0        2.131753   -2.735002    1.134772
     17          1           0        0.566301   -2.333836    0.437616
     18          1           0       -0.227612   -1.512024    2.680605
     19          1           0        1.346734   -1.915469    3.381723
     20          1           0        0.292165   -3.203274    2.774475
     21          6           0       -2.444814   -0.133063   -0.309518
     22          6           0       -2.270229   -0.773439   -1.686989
     23          6           0       -2.966097   -2.130141   -1.800667
     24          1           0       -2.050767   -0.814240    0.457078
     25          1           0       -3.517182   -0.014764   -0.101123
     26          1           0       -1.198482   -0.889226   -1.893309
     27          1           0       -2.664564   -0.090575   -2.450412
     28          1           0       -4.041185   -2.027940   -1.620828
     29          1           0       -2.566774   -2.831127   -1.060560
     30          1           0       -2.828485   -2.569990   -2.793368
     31          6           0       -1.754781    1.223734   -0.180349
     32          6           0       -1.929366    1.864109    1.197120
     33          6           0       -1.233497    3.220810    1.310799
     34          1           0       -0.682413    1.105434   -0.388744
     35          1           0       -2.148827    1.904910   -0.946946
     36          1           0       -1.535031    1.181246    1.960543
     37          1           0       -3.001112    1.979896    1.403440
     38          1           0       -1.632821    3.921798    0.570692
     39          1           0       -0.158410    3.118610    1.130960
     40          1           0       -1.371109    3.660660    2.303500
 ---------------------------------------------------------------------

 SCF Done:  E(RHF) =  -470.733008115     A.U. after   11 cycles
 E2 =    -0.1585770166D+01 EUMP2 =    -0.47231877828093D+03

 The electronic state is 1-A.
 Alpha  occ. eigenvalues --  -11.21679 -11.21678 -11.21671 -11.21669 -11.21470
 Alpha  occ. eigenvalues --  -11.21468 -11.21406 -11.21403 -11.21153 -11.21125
 Alpha  occ. eigenvalues --  -11.21117 -11.21107  -1.08586  -1.08429  -1.03600
 Alpha  occ. eigenvalues --   -1.03593  -0.96058  -0.96027  -0.87070  -0.87046
 Alpha  occ. eigenvalues --   -0.79680  -0.79639  -0.78376  -0.78274  -0.65738
 Alpha  occ. eigenvalues --   -0.64590  -0.61038  -0.60960  -0.59437  -0.59379
 Alpha  occ. eigenvalues --   -0.57678  -0.57626  -0.55418  -0.55253  -0.52737
 Alpha  occ. eigenvalues --   -0.52730  -0.52472  -0.52460  -0.50069  -0.49919
 Alpha  occ. eigenvalues --   -0.48006  -0.47980  -0.46819  -0.46606  -0.46239
 Alpha  occ. eigenvalues --   -0.45794  -0.45740  -0.45345  -0.43852  -0.43842
 Alpha virt. eigenvalues --    0.17854   0.21553   0.21856   0.24374   0.25418
 Alpha virt. eigenvalues --    0.26382   0.26910   0.27823   0.28911   0.29955
 Alpha virt. eigenvalues --    0.30895   0.31382   0.31613   0.31982   0.32178

 Mulliken charges:
               1
     1  C   -0.300869
     2  C   -0.303437
     3  C   -0.475645
     4  H    0.150537
     5  H    0.151126
     6  H    0.152430
     7  H    0.154209
     8  H    0.155525
     9  H    0.155361
    10  H    0.160627
    11  C   -0.305921
    12  C   -0.301030
    13  C   -0.478900
    14  H    0.150039
    15  H    0.157352
    16  H    0.152661
    17  H    0.152772
    18  H    0.156879
    19  H    0.155824
    20  H    0.160759
    21  C   -0.301706
    22  C   -0.302272
    23  C   -0.476157
    24  H    0.152891
    25  H    0.150276
    26  H    0.153251
    27  H    0.152441
    28  H    0.155599
    29  H    0.155508
    30  H    0.160543
    31  C   -0.305632
    32  C   -0.302500
    33  C   -0.477461
    34  H    0.155351
    35  H    0.150643
    36  H    0.153328
    37  H    0.152810
    38  H    0.155465
    39  H    0.156500
    40  H    0.160823
 Sum of Mulliken charges =  -0.00000

 Dipole moment (field-independent basis, Debye):
    X=              0.0016    Y=              0.0065    Z=              0.0010  Tot=              0.0068
 Quadrupole moment (field-independent basis, Debye-Ang):
   XX=            -83.5336   YY=            -85.5135   ZZ=            -85.4637
   XY=             -1.1957   XZ=              1.0239   YZ=             -0.2339

 Normal termination of Gaussian 16 at Thu May  6 02:18:52 2021.
