 Gaussian 16, Revision A.03,
 Gaussian 16:  EM64L-G16RevA.03 25-Dec-2016

 -------------
 #p 6-31g* mp2
 -------------

 ------------------------------------------------------
 Input file generated by CHIRIPA (05-May-2021 14:55:19)
 ------------------------------------------------------
 Symbolic Z-matrix:
 Charge =  0 Multiplicity = 1

                         Standard orientation:
 ---------------------------------------------------------------------
 Center     Atomic      Atomic             Coordinates (Angstroms)
 Number     Number       Type             X           Y           Z
 ---------------------------------------------------------------------
      1          6           0        2.593581    2.349249    0.765337
      2          6           0        1.323015    1.790336    0.592709
      3          6           0        1.181664    0.467448    0.163132
      4          6           0        2.337459   -0.271124   -0.085743
      5          6           0        3.617103    0.257401    0.076927
      6          6           0        3.734558    1.582350    0.507349
      7          1           0        2.694104    3.377700    1.099371
      8          1           0        0.435159    2.383561    0.792310
      9          1           0        0.210166    0.009756    0.021262
     10          1           0        4.483635   -0.358814   -0.130002
     11          1           0        4.722568    2.013788    0.640552
     12          7           0        2.200466   -1.672697   -0.540965
     13          8           0        3.234364   -2.302392   -0.753507
     14          8           0        1.061785   -2.115016   -0.676606
     15          6           0       -2.643499    0.700527   -0.126383
     16          6           0       -3.560292    1.867269   -0.495419
     17          6           0       -2.790679    3.158989   -0.772817
     18          1           0       -2.051327    0.973298    0.757853
     19          1           0       -1.927328    0.533600   -0.942857
     20          1           0       -4.275414    2.031052    0.320909
     21          1           0       -4.150489    1.591616   -1.378764
     22          1           0       -2.088998    3.018971   -1.601455
     23          1           0       -2.214634    3.460904    0.107875
     24          1           0       -3.465419    3.979976   -1.034670
     25          6           0       -3.398196   -0.597798    0.153819
     26          6           0       -2.481403   -1.764542    0.522855
     27          6           0       -3.251015   -3.056261    0.800252
     28          1           0       -4.114367   -0.430872    0.970292
     29          1           0       -3.990368   -0.870571   -0.730417
     30          1           0       -1.891206   -1.488888    1.406200
     31          1           0       -1.766280   -1.928325   -0.293473
     32          1           0       -3.827061   -3.358177   -0.080440
     33          1           0       -3.952696   -2.916243    1.628890
     34          1           0       -2.576276   -3.877248    1.062106
 ---------------------------------------------------------------------

 SCF Done:  E(RHF) =  -669.535260240     A.U. after   15 cycles
 E2 =    -0.2094008797D+01 EUMP2 =    -0.67162926903678D+03

 The electronic state is 1-A.
 Alpha  occ. eigenvalues --  -20.60771 -20.60761 -15.85810 -11.31074 -11.27672
 Alpha  occ. eigenvalues --  -11.27538 -11.27403 -11.26676 -11.26618 -11.22148
 Alpha  occ. eigenvalues --  -11.22014 -11.21789 -11.21476 -11.21205 -11.20663
 Alpha  occ. eigenvalues --   -1.59838  -1.39395  -1.19255  -1.08733  -1.08673
 Alpha  occ. eigenvalues --   -1.04643  -1.03671  -0.96195  -0.95521  -0.87205
 Alpha  occ. eigenvalues --   -0.86051  -0.82368  -0.79834  -0.78617  -0.77301
 Alpha  occ. eigenvalues --   -0.72037  -0.71154  -0.70371  -0.65375  -0.64905
 Alpha  occ. eigenvalues --   -0.64642  -0.62011  -0.61045  -0.59598  -0.57763
 Alpha  occ. eigenvalues --   -0.55510  -0.55166  -0.52988  -0.52929  -0.52713
 Alpha  occ. eigenvalues --   -0.52531  -0.50145  -0.48858  -0.48783  -0.48062
 Alpha  occ. eigenvalues --   -0.46880  -0.45977  -0.45775  -0.44814  -0.43964
 Alpha  occ. eigenvalues --   -0.37250  -0.36240
 Alpha virt. eigenvalues --    0.05088   0.11371   0.16580   0.19830   0.22941
 Alpha virt. eigenvalues --    0.23456   0.25343   0.25626   0.27198   0.28567
 Alpha virt. eigenvalues --    0.29956   0.30549   0.31573   0.31789   0.32716

 Mulliken charges:
               1
     1  C   -0.170655
     2  C   -0.227683
     3  C   -0.180635
     4  C    0.156573
     5  C   -0.170025
     6  C   -0.219336
     7  H    0.225380
     8  H    0.227818
     9  H    0.294295
    10  H    0.275004
    11  H    0.222937
    12  N    0.492035
    13  O   -0.460281
    14  O   -0.466518
    15  C   -0.309992
    16  C   -0.298052
    17  C   -0.478266
    18  H    0.141880
    19  H    0.151662
    20  H    0.154335
    21  H    0.156821
    22  H    0.157212
    23  H    0.147156
    24  H    0.164336
    25  C   -0.296426
    26  C   -0.312827
    27  C   -0.475612
    28  H    0.148898
    29  H    0.152298
    30  H    0.146761
    31  H    0.177756
    32  H    0.155033
    33  H    0.151072
    34  H    0.167043
 Sum of Mulliken charges =  -0.00000

 Dipole moment (field-independent basis, Debye):
    X=              0.3552    Y=              4.7726    Z=              1.4793  Tot=              5.0092
 Quadrupole moment (field-independent basis, Debye-Ang):
   XX=            -87.4431   YY=            -98.6748   ZZ=            -95.0087
   XY=             10.6954   XZ=              3.9644   YZ=             -0.3593

 Normal termination of Gaussian 16 at Thu May  6 17:25:13 2021.
