 Gaussian 16, Revision A.03,
 Gaussian 16:  EM64L-G16RevA.03 25-Dec-2016

 -------------
 #p 6-31g* mp2
 -------------

 ------------------------------------------------------
 Input file generated by CHIRIPA (05-May-2021 14:55:20)
 ------------------------------------------------------
 Symbolic Z-matrix:
 Charge =  0 Multiplicity = 1

                         Standard orientation:
 ---------------------------------------------------------------------
 Center     Atomic      Atomic             Coordinates (Angstroms)
 Number     Number       Type             X           Y           Z
 ---------------------------------------------------------------------
      1          6           0        5.010413    2.028072    0.381648
      2          6           0        5.258351    1.182029   -0.704289
      3          6           0        4.424547    0.088763   -0.957448
      4          6           0        3.346985   -0.129895   -0.100512
      5          6           0        3.073784    0.694945    0.989575
      6          6           0        3.920842    1.782263    1.223630
      7          1           0        5.663280    2.875036    0.570887
      8          1           0        6.103786    1.370499   -1.359853
      9          1           0        4.593397   -0.582180   -1.790960
     10          1           0        2.223211    0.481489    1.625484
     11          1           0        3.725869    2.437637    2.067736
     12          7           0        2.457259   -1.284138   -0.358407
     13          8           0        1.514512   -1.455180    0.411405
     14          8           0        2.719485   -1.995936   -1.325474
     15          6           0       -3.876548   -0.518264   -0.111638
     16          6           0       -3.365215   -1.368600    1.051740
     17          6           0       -2.174124   -2.245496    0.664247
     18          1           0       -4.160299   -1.178188   -0.942860
     19          1           0       -3.058309    0.115391   -0.480912
     20          1           0       -4.184548   -1.999458    1.419608
     21          1           0       -3.082827   -0.706587    1.880360
     22          1           0       -1.338645   -1.628984    0.317130
     23          1           0       -2.446627   -2.929201   -0.146240
     24          1           0       -1.824698   -2.844913    1.510687
     25          6           0       -5.067127    0.363797    0.260137
     26          6           0       -5.578459    1.214135   -0.903241
     27          6           0       -6.769550    2.091030   -0.515748
     28          1           0       -5.885365   -0.269857    0.629411
     29          1           0       -4.783375    1.023721    1.091360
     30          1           0       -5.860848    0.552120   -1.731861
     31          1           0       -4.759126    1.844992   -1.271108
     32          1           0       -6.497048    2.774735    0.294739
     33          1           0       -7.605029    1.474518   -0.168630
     34          1           0       -7.118976    2.690447   -1.362188
 ---------------------------------------------------------------------

 SCF Done:  E(RHF) =  -669.535866953     A.U. after   15 cycles
 E2 =    -0.2090692485D+01 EUMP2 =    -0.67162655943811D+03

 The electronic state is 1-A.
 Alpha  occ. eigenvalues --  -20.60910 -20.60902 -15.85944 -11.31284 -11.27851
 Alpha  occ. eigenvalues --  -11.27846 -11.27589 -11.26861 -11.26851 -11.21182
 Alpha  occ. eigenvalues --  -11.20845 -11.20751 -11.20661 -11.20602 -11.19551
 Alpha  occ. eigenvalues --   -1.59972  -1.39528  -1.19454  -1.08855  -1.07760
 Alpha  occ. eigenvalues --   -1.04853  -1.02768  -0.95696  -0.95181  -0.86255
 Alpha  occ. eigenvalues --   -0.86186  -0.82527  -0.78857  -0.77588  -0.77530
 Alpha  occ. eigenvalues --   -0.72166  -0.71289  -0.70563  -0.65110  -0.64856
 Alpha  occ. eigenvalues --   -0.64402  -0.62201  -0.60166  -0.58624  -0.56795
 Alpha  occ. eigenvalues --   -0.55357  -0.54464  -0.53184  -0.52945  -0.51858
 Alpha  occ. eigenvalues --   -0.51601  -0.49204  -0.48923  -0.48832  -0.47146
 Alpha  occ. eigenvalues --   -0.45919  -0.45106  -0.45049  -0.44808  -0.43029
 Alpha  occ. eigenvalues --   -0.37434  -0.36456
 Alpha virt. eigenvalues --    0.04929   0.11199   0.16406   0.21326   0.23478
 Alpha virt. eigenvalues --    0.25126   0.27237   0.27296   0.28075   0.28190
 Alpha virt. eigenvalues --    0.28961   0.30882   0.32142   0.32349   0.32553

 Mulliken charges:
               1
     1  C   -0.170658
     2  C   -0.218560
     3  C   -0.170675
     4  C    0.157831
     5  C   -0.170973
     6  C   -0.218528
     7  H    0.225950
     8  H    0.223795
     9  H    0.275902
    10  H    0.275628
    11  H    0.223757
    12  N    0.490416
    13  O   -0.461594
    14  O   -0.458812
    15  C   -0.297299
    16  C   -0.299979
    17  C   -0.479132
    18  H    0.149480
    19  H    0.148734
    20  H    0.147510
    21  H    0.146991
    22  H    0.175973
    23  H    0.151392
    24  H    0.158653
    25  C   -0.297378
    26  C   -0.298999
    27  C   -0.475219
    28  H    0.148581
    29  H    0.147175
    30  H    0.152007
    31  H    0.150652
    32  H    0.153751
    33  H    0.154851
    34  H    0.158778
 Sum of Mulliken charges =  -0.00000

 Dipole moment (field-independent basis, Debye):
    X=              3.4411    Y=              4.0265    Z=              0.8656  Tot=              5.3669
 Quadrupole moment (field-independent basis, Debye-Ang):
   XX=            -74.0729   YY=            -96.1750   ZZ=            -92.1571
   XY=             13.8591   XZ=              0.6021   YZ=              0.9082

 Normal termination of Gaussian 16 at Wed May  5 23:48:07 2021.
