 Gaussian 16, Revision A.03,
 Gaussian 16:  EM64L-G16RevA.03 25-Dec-2016

 -------------
 #p 6-31g* mp2
 -------------

 ------------------------------------------------------
 Input file generated by CHIRIPA (05-May-2021 14:53:12)
 ------------------------------------------------------
 Symbolic Z-matrix:
 Charge =  0 Multiplicity = 1

                         Standard orientation:
 ---------------------------------------------------------------------
 Center     Atomic      Atomic             Coordinates (Angstroms)
 Number     Number       Type             X           Y           Z
 ---------------------------------------------------------------------
      1          6           0        3.525422   -0.626879   -0.327839
      2          6           0        4.626967   -1.200939    0.563810
      3          6           0        4.797059   -2.711047    0.395182
      4          1           0        2.576959   -1.131933   -0.099181
      5          1           0        3.756360   -0.855849   -1.377427
      6          1           0        4.394728   -0.969754    1.611300
      7          1           0        5.572878   -0.694325    0.333137
      8          1           0        5.052815   -2.956628   -0.640617
      9          1           0        3.867971   -3.233622    0.644808
     10          1           0        5.589594   -3.100467    1.041788
     11          6           0        3.343374    0.881713   -0.170558
     12          6           0        2.241829    1.455773   -1.062207
     13          6           0        2.071738    2.965881   -0.893578
     14          1           0        3.112436    1.110683    0.879031
     15          1           0        4.291837    1.386767   -0.399216
     16          1           0        1.295918    0.949159   -0.831533
     17          1           0        2.474068    1.224589   -2.109696
     18          1           0        3.000825    3.488456   -1.143205
     19          1           0        1.815981    3.211462    0.142221
     20          1           0        1.279202    3.355302   -1.540184
     21          6           0       -3.828601   -1.138163   -1.799074
     22          6           0       -4.373090   -1.292635   -0.519937
     23          6           0       -3.746943   -0.721538    0.591970
     24          6           0       -2.572383    0.000865    0.387435
     25          6           0       -2.005275    0.172484   -0.874399
     26          6           0       -2.648512   -0.407384   -1.971918
     27          1           0       -4.321645   -1.585211   -2.657241
     28          1           0       -5.289452   -1.859641   -0.382714
     29          1           0       -4.146744   -0.825494    1.593355
     30          1           0       -1.090639    0.743248   -0.979686
     31          1           0       -2.223379   -0.285781   -2.964147
     32          7           0       -1.900463    0.610103    1.556945
     33          8           0       -0.866656    1.241860    1.350152
     34          8           0       -2.420342    0.444331    2.658255
 ---------------------------------------------------------------------

 SCF Done:  E(RHF) =  -669.535863741     A.U. after   15 cycles
 E2 =    -0.2091776240D+01 EUMP2 =    -0.67162763998121D+03

 The electronic state is 1-A.
 Alpha  occ. eigenvalues --  -20.60886 -20.60878 -15.85926 -11.31244 -11.27810
 Alpha  occ. eigenvalues --  -11.27786 -11.27546 -11.26820 -11.26805 -11.21269
 Alpha  occ. eigenvalues --  -11.21265 -11.21041 -11.20897 -11.20821 -11.20564
 Alpha  occ. eigenvalues --   -1.59952  -1.39508  -1.19414  -1.08819  -1.08041
 Alpha  occ. eigenvalues --   -1.04810  -1.03162  -0.95669  -0.95588  -0.86613
 Alpha  occ. eigenvalues --   -0.86213  -0.82493  -0.79254  -0.77896  -0.77529
 Alpha  occ. eigenvalues --   -0.72152  -0.71269  -0.70529  -0.65075  -0.64861
 Alpha  occ. eigenvalues --   -0.64607  -0.62184  -0.60511  -0.58987  -0.57235
 Alpha  occ. eigenvalues --   -0.55318  -0.54847  -0.53142  -0.52909  -0.52314
 Alpha  occ. eigenvalues --   -0.52032  -0.49508  -0.48913  -0.48899  -0.47562
 Alpha  occ. eigenvalues --   -0.46252  -0.45427  -0.45305  -0.44892  -0.43417
 Alpha  occ. eigenvalues --   -0.37396  -0.36409
 Alpha virt. eigenvalues --    0.04960   0.11211   0.16479   0.20679   0.23232
 Alpha virt. eigenvalues --    0.24129   0.26170   0.27364   0.27773   0.28220
 Alpha virt. eigenvalues --    0.29176   0.30700   0.31535   0.31995   0.32207

 Mulliken charges:
               1
     1  C   -0.298342
     2  C   -0.299913
     3  C   -0.475535
     4  H    0.149963
     5  H    0.145512
     6  H    0.155305
     7  H    0.151027
     8  H    0.153150
     9  H    0.154931
    10  H    0.159905
    11  C   -0.298173
    12  C   -0.306301
    13  C   -0.475898
    14  H    0.159789
    15  H    0.147627
    16  H    0.155671
    17  H    0.144721
    18  H    0.152391
    19  H    0.169876
    20  H    0.153056
    21  C   -0.170359
    22  C   -0.218858
    23  C   -0.170165
    24  C    0.155458
    25  C   -0.176172
    26  C   -0.221633
    27  H    0.225880
    28  H    0.223634
    29  H    0.275649
    30  H    0.288321
    31  H    0.224488
    32  N    0.488473
    33  O   -0.464011
    34  O   -0.459464
 Sum of Mulliken charges =  -0.00000

 Dipole moment (field-independent basis, Debye):
    X=             -2.4431    Y=             -2.1019    Z=             -3.9463  Tot=              5.0951
 Quadrupole moment (field-independent basis, Debye-Ang):
   XX=            -80.1064   YY=            -96.0262   ZZ=            -96.1895
   XY=              7.7843   XZ=              7.3947   YZ=             -1.8927

 Normal termination of Gaussian 16 at Thu May  6 11:58:34 2021.
