 Gaussian 16, Revision A.03,
 Gaussian 16:  EM64L-G16RevA.03 25-Dec-2016

 -------------
 #p 6-31g* mp2
 -------------

 ------------------------------------------------------
 Input file generated by CHIRIPA (05-May-2021 14:55:24)
 ------------------------------------------------------
 Symbolic Z-matrix:
 Charge =  0 Multiplicity = 1

                         Standard orientation:
 ---------------------------------------------------------------------
 Center     Atomic      Atomic             Coordinates (Angstroms)
 Number     Number       Type             X           Y           Z
 ---------------------------------------------------------------------
      1          6           0        4.357994    2.329546    0.165450
      2          6           0        3.363061    2.022567   -0.768569
      3          6           0        2.861539    0.721516   -0.870018
      4          6           0        3.380014   -0.252355   -0.017934
      5          6           0        4.371397    0.022268    0.922827
      6          6           0        4.858105    1.330179    1.006685
      7          1           0        4.741834    3.342898    0.237426
      8          1           0        2.972799    2.796670   -1.423172
      9          1           0        2.091390    0.456308   -1.584128
     10          1           0        4.740741   -0.770665    1.561780
     11          1           0        5.630793    1.565695    1.732998
     12          7           0        2.856917   -1.633350   -0.116022
     13          8           0        3.330316   -2.473377    0.646137
     14          8           0        1.983419   -1.849599   -0.953205
     15          6           0       -3.775019   -0.281966    0.219387
     16          6           0       -2.627163   -0.010372   -0.753571
     17          6           0       -1.309905   -0.644296   -0.305503
     18          1           0       -3.502633    0.098729    1.213279
     19          1           0       -3.907039   -1.367608    0.325907
     20          1           0       -2.498253    1.074443   -0.859289
     21          1           0       -2.902393   -0.391587   -1.745307
     22          1           0       -1.415202   -1.730521   -0.218154
     23          1           0       -1.008767   -0.256162    0.672898
     24          1           0       -0.502979   -0.437668   -1.015458
     25          6           0       -5.098521    0.345327   -0.214861
     26          6           0       -6.246377    0.073733    0.758098
     27          6           0       -7.563636    0.707657    0.310029
     28          1           0       -4.966502    1.430969   -0.321381
     29          1           0       -5.370908   -0.035369   -1.208752
     30          1           0       -5.971148    0.454948    1.749833
     31          1           0       -6.375287   -1.011082    0.863815
     32          1           0       -7.864774    0.319523   -0.668373
     33          1           0       -7.458339    1.793882    0.222680
     34          1           0       -8.370561    0.501029    1.019983
 ---------------------------------------------------------------------

 SCF Done:  E(RHF) =  -669.535665584     A.U. after   15 cycles
 E2 =    -0.2091348670D+01 EUMP2 =    -0.67162701425470D+03

 The electronic state is 1-A.
 Alpha  occ. eigenvalues --  -20.60832 -20.60809 -15.85852 -11.31215 -11.27787
 Alpha  occ. eigenvalues --  -11.27780 -11.27528 -11.26802 -11.26792 -11.21372
 Alpha  occ. eigenvalues --  -11.21139 -11.21110 -11.20987 -11.20896 -11.20285
 Alpha  occ. eigenvalues --   -1.59881  -1.39438  -1.19387  -1.08784  -1.08088
 Alpha  occ. eigenvalues --   -1.04791  -1.03144  -0.95646  -0.95545  -0.86578
 Alpha  occ. eigenvalues --   -0.86189  -0.82456  -0.79215  -0.77906  -0.77499
 Alpha  occ. eigenvalues --   -0.72082  -0.71192  -0.70501  -0.65045  -0.64800
 Alpha  occ. eigenvalues --   -0.64724  -0.62150  -0.60545  -0.58952  -0.57191
 Alpha  occ. eigenvalues --   -0.55296  -0.54856  -0.53117  -0.52901  -0.52236
 Alpha  occ. eigenvalues --   -0.51992  -0.49510  -0.48841  -0.48829  -0.47518
 Alpha  occ. eigenvalues --   -0.46263  -0.45442  -0.45374  -0.44857  -0.43321
 Alpha  occ. eigenvalues --   -0.37366  -0.36391
 Alpha virt. eigenvalues --    0.05009   0.11230   0.16497   0.21088   0.23163
 Alpha virt. eigenvalues --    0.24360   0.26559   0.26971   0.27702   0.27841
 Alpha virt. eigenvalues --    0.28921   0.30258   0.31594   0.31805   0.32158

 Mulliken charges:
               1
     1  C   -0.170684
     2  C   -0.219143
     3  C   -0.170255
     4  C    0.158305
     5  C   -0.170899
     6  C   -0.218585
     7  H    0.225666
     8  H    0.223655
     9  H    0.276681
    10  H    0.275662
    11  H    0.223520
    12  N    0.488876
    13  O   -0.459955
    14  O   -0.459554
    15  C   -0.297928
    16  C   -0.301066
    17  C   -0.475810
    18  H    0.148237
    19  H    0.151360
    20  H    0.145221
    21  H    0.151688
    22  H    0.164163
    23  H    0.148516
    24  H    0.165279
    25  C   -0.297701
    26  C   -0.299399
    27  C   -0.475469
    28  H    0.147355
    29  H    0.149480
    30  H    0.151251
    31  H    0.152642
    32  H    0.155098
    33  H    0.154075
    34  H    0.159716
 Sum of Mulliken charges =  -0.00000

 Dipole moment (field-independent basis, Debye):
    X=              1.9926    Y=              4.7509    Z=              0.3371  Tot=              5.1629
 Quadrupole moment (field-independent basis, Debye-Ang):
   XX=            -82.3494   YY=            -96.7027   ZZ=            -92.3244
   XY=             16.0851   XZ=              3.7904   YZ=             -0.8254

 Normal termination of Gaussian 16 at Thu May  6 19:21:01 2021.
