 Gaussian 16, Revision A.03,
 Gaussian 16:  EM64L-G16RevA.03 25-Dec-2016

 -------------
 #p 6-31g* mp2
 -------------

 ------------------------------------------------------
 Input file generated by CHIRIPA (05-May-2021 14:51:12)
 ------------------------------------------------------
 Symbolic Z-matrix:
 Charge =  0 Multiplicity = 1

                         Standard orientation:
 ---------------------------------------------------------------------
 Center     Atomic      Atomic             Coordinates (Angstroms)
 Number     Number       Type             X           Y           Z
 ---------------------------------------------------------------------
      1          6           0       -2.455643   -0.784628    0.928575
      2          6           0       -1.214287   -1.675861    0.876384
      3          6           0       -0.842640   -2.252445    2.242848
      4          1           0       -2.281084    0.035111    1.638858
      5          1           0       -3.299790   -1.366396    1.323994
      6          1           0       -0.373069   -1.092976    0.479882
      7          1           0       -1.391749   -2.493465    0.165999
      8          1           0       -1.663430   -2.857069    2.642015
      9          1           0       -0.638963   -1.448623    2.957682
     10          1           0        0.047497   -2.886377    2.182476
     11          6           0       -2.839781   -0.200764   -0.429831
     12          6           0       -4.081137    0.690470   -0.377641
     13          6           0       -4.452784    1.267053   -1.744105
     14          1           0       -1.995634    0.381005   -0.825251
     15          1           0       -3.014340   -1.020503   -1.140115
     16          1           0       -3.903675    1.508074    0.332744
     17          1           0       -4.922355    0.107585    0.018861
     18          1           0       -4.656461    0.463231   -2.458938
     19          1           0       -3.631994    1.871677   -2.143272
     20          1           0       -5.342921    1.900985   -1.683732
     21          6           0        2.180809    1.087015   -0.138834
     22          6           0        2.785090    2.176081    0.748164
     23          6           0        1.839062    3.358425    0.960020
     24          1           0        1.911996    1.522153   -1.111120
     25          1           0        1.244783    0.732230    0.314351
     26          1           0        3.720411    2.527733    0.294146
     27          1           0        3.052672    1.738256    1.718383
     28          1           0        0.909497    3.027802    1.434571
     29          1           0        1.581030    3.821764    0.002242
     30          1           0        2.291085    4.125142    1.596950
     31          6           0        3.114615   -0.101623   -0.359909
     32          6           0        2.510333   -1.190689   -1.246908
     33          6           0        3.456363   -2.373034   -1.458763
     34          1           0        4.050641    0.253162   -0.813095
     35          1           0        3.383427   -0.536761    0.612376
     36          1           0        2.242752   -0.752864   -2.217127
     37          1           0        1.575012   -1.542342   -0.792890
     38          1           0        3.714394   -2.836372   -0.500986
     39          1           0        4.385927   -2.042409   -1.933315
     40          1           0        3.004339   -3.139751   -2.095693
 ---------------------------------------------------------------------

 SCF Done:  E(RHF) =  -470.732870629     A.U. after   11 cycles
 E2 =    -0.1583900480D+01 EUMP2 =    -0.47231677110950D+03

 The electronic state is 1-A.
 Alpha  occ. eigenvalues --  -11.21646 -11.21621 -11.21600 -11.21556 -11.21443
 Alpha  occ. eigenvalues --  -11.21423 -11.21373 -11.21356 -11.21133 -11.21125
 Alpha  occ. eigenvalues --  -11.21064 -11.21058  -1.08488  -1.08426  -1.03571
 Alpha  occ. eigenvalues --   -1.03533  -0.96004  -0.96001  -0.87022  -0.87015
 Alpha  occ. eigenvalues --   -0.79688  -0.79568  -0.78403  -0.78137  -0.65292
 Alpha  occ. eigenvalues --   -0.64915  -0.61012  -0.60901  -0.59418  -0.59321
 Alpha  occ. eigenvalues --   -0.57625  -0.57601  -0.55320  -0.55264  -0.52713
 Alpha  occ. eigenvalues --   -0.52681  -0.52430  -0.52425  -0.49957  -0.49947
 Alpha  occ. eigenvalues --   -0.48098  -0.47861  -0.46884  -0.46619  -0.46137
 Alpha  occ. eigenvalues --   -0.45780  -0.45767  -0.45055  -0.43812  -0.43791
 Alpha virt. eigenvalues --    0.20454   0.23097   0.24015   0.24457   0.25446
 Alpha virt. eigenvalues --    0.26910   0.26952   0.27744   0.27898   0.29786
 Alpha virt. eigenvalues --    0.30526   0.31565   0.31688   0.31956   0.32064

 Mulliken charges:
               1
     1  C   -0.296989
     2  C   -0.312828
     3  C   -0.475658
     4  H    0.148966
     5  H    0.149721
     6  H    0.163614
     7  H    0.152241
     8  H    0.155862
     9  H    0.154710
    10  H    0.160071
    11  C   -0.299204
    12  C   -0.299634
    13  C   -0.475737
    14  H    0.150596
    15  H    0.149709
    16  H    0.151994
    17  H    0.151870
    18  H    0.155129
    19  H    0.155404
    20  H    0.160245
    21  C   -0.305212
    22  C   -0.299251
    23  C   -0.475690
    24  H    0.149664
    25  H    0.154697
    26  H    0.152336
    27  H    0.152163
    28  H    0.154508
    29  H    0.155225
    30  H    0.160600
    31  C   -0.297770
    32  C   -0.307563
    33  C   -0.475201
    34  H    0.149682
    35  H    0.149516
    36  H    0.151620
    37  H    0.160455
    38  H    0.154863
    39  H    0.155017
    40  H    0.160255
 Sum of Mulliken charges =  -0.00000

 Dipole moment (field-independent basis, Debye):
    X=             -0.0047    Y=             -0.0003    Z=             -0.0059  Tot=              0.0075
 Quadrupole moment (field-independent basis, Debye-Ang):
   XX=            -84.8029   YY=            -84.9972   ZZ=            -84.9874
   XY=              1.4281   XZ=             -0.4000   YZ=             -0.0092

 Normal termination of Gaussian 16 at Wed May  5 19:55:41 2021.
