 Gaussian 16, Revision A.03,
 Gaussian 16:  EM64L-G16RevA.03 25-Dec-2016

 -------------
 #p 6-31g* mp2
 -------------

 ------------------------------------------------------
 Input file generated by CHIRIPA (05-May-2021 14:57:23)
 ------------------------------------------------------
 Symbolic Z-matrix:
 Charge =  0 Multiplicity = 1

                         Standard orientation:
 ---------------------------------------------------------------------
 Center     Atomic      Atomic             Coordinates (Angstroms)
 Number     Number       Type             X           Y           Z
 ---------------------------------------------------------------------
      1          6           0        1.436771   -0.946778    1.206317
      2          6           0        2.037955   -1.762178    0.241838
      3          6           0        3.235765   -1.376505   -0.367306
      4          6           0        3.807515   -0.163553    0.013665
      5          6           0        3.232878    0.670666    0.971351
      6          6           0        2.035096    0.264906    1.567359
      7          1           0        0.506294   -1.254180    1.674413
      8          1           0        1.575542   -2.703716   -0.040518
      9          1           0        3.722655   -1.988512   -1.116841
     10          1           0        3.717590    1.603662    1.232101
     11          1           0        1.570460    0.900174    2.316086
     12          7           0        5.075568    0.255374   -0.624255
     13          8           0        5.559225    1.328694   -0.271129
     14          8           0        5.561800   -0.497522   -1.465303
     15          6           0       -4.706531   -2.032908   -0.194499
     16          6           0       -3.374697   -1.918454    0.217374
     17          6           0       -2.750616   -0.668266    0.263190
     18          6           0       -3.491407    0.451618   -0.111484
     19          6           0       -4.819779    0.370093   -0.526301
     20          6           0       -5.423557   -0.890284   -0.564369
     21          1           0       -5.183447   -3.008042   -0.227080
     22          1           0       -2.815404   -2.804116    0.505191
     23          1           0       -1.720819   -0.550973    0.578116
     24          1           0       -5.351581    1.271035   -0.807204
     25          1           0       -6.458009   -0.976164   -0.884648
     26          7           0       -2.841467    1.780530   -0.067082
     27          8           0       -3.515827    2.751892   -0.402241
     28          8           0       -1.669992    1.825605    0.302039
 ---------------------------------------------------------------------

 SCF Done:  E(RHF) =  -868.337201873     A.U. after   16 cycles
 E2 =    -0.2600125352D+01 EUMP2 =    -0.87093732722501D+03

 The electronic state is 1-A.
 Alpha  occ. eigenvalues --  -20.61412 -20.61387 -20.60583 -20.60569 -15.86458
 Alpha  occ. eigenvalues --  -15.85629 -11.31873 -11.31035 -11.28524 -11.28395
 Alpha  occ. eigenvalues --  -11.28168 -11.27616 -11.27524 -11.27504 -11.27457
 Alpha  occ. eigenvalues --  -11.27408 -11.26756 -11.26562  -1.60472  -1.59650
 Alpha  occ. eigenvalues --   -1.40027  -1.39203  -1.20044  -1.19201  -1.09421
 Alpha  occ. eigenvalues --   -1.08625  -1.05470  -1.04593  -0.96255  -0.95454
 Alpha  occ. eigenvalues --   -0.86858  -0.86010  -0.83096  -0.82272  -0.78147
 Alpha  occ. eigenvalues --   -0.77284  -0.72679  -0.71852  -0.71794  -0.71186
 Alpha  occ. eigenvalues --   -0.70968  -0.70385  -0.65701  -0.65477  -0.64871
 Alpha  occ. eigenvalues --   -0.64610  -0.62834  -0.61934  -0.55961  -0.55215
 Alpha  occ. eigenvalues --   -0.53773  -0.53558  -0.52905  -0.52699  -0.49440
 Alpha  occ. eigenvalues --   -0.49423  -0.48613  -0.48601  -0.45422  -0.44599
 Alpha  occ. eigenvalues --   -0.38003  -0.37222  -0.37065  -0.36155
 Alpha virt. eigenvalues --    0.04410   0.05177   0.10585   0.11480   0.15904
 Alpha virt. eigenvalues --    0.16453   0.19249   0.22046   0.25469   0.27048
 Alpha virt. eigenvalues --    0.27632   0.29727   0.30366   0.30970   0.32785

 Mulliken charges:
               1
     1  C   -0.171453
     2  C   -0.217987
     3  C   -0.171220
     4  C    0.159996
     5  C   -0.170116
     6  C   -0.209823
     7  H    0.214523
     8  H    0.217664
     9  H    0.274654
    10  H    0.277761
    11  H    0.230612
    12  N    0.487987
    13  O   -0.458761
    14  O   -0.461426
    15  C   -0.170086
    16  C   -0.219331
    17  C   -0.175004
    18  C    0.158882
    19  C   -0.169366
    20  C   -0.218352
    21  H    0.227515
    22  H    0.219292
    23  H    0.272491
    24  H    0.277871
    25  H    0.226086
    26  N    0.487800
    27  O   -0.456855
    28  O   -0.463353
 Sum of Mulliken charges =  -0.00000

 Dipole moment (field-independent basis, Debye):
    X=             -6.8510    Y=             -5.9243    Z=              2.0630  Tot=              9.2892
 Quadrupole moment (field-independent basis, Debye-Ang):
   XX=           -118.8116   YY=           -104.9596   ZZ=           -104.0046
   XY=              8.8376   XZ=             11.3557   YZ=              2.1324

 Normal termination of Gaussian 16 at Fri May  7 00:18:30 2021.
