 Gaussian 16, Revision A.03,
 Gaussian 16:  EM64L-G16RevA.03 25-Dec-2016

 -------------
 #p 6-31g* mp2
 -------------

 ------------------------------------------------------
 Input file generated by CHIRIPA (05-May-2021 14:57:26)
 ------------------------------------------------------
 Symbolic Z-matrix:
 Charge =  0 Multiplicity = 1

                         Standard orientation:
 ---------------------------------------------------------------------
 Center     Atomic      Atomic             Coordinates (Angstroms)
 Number     Number       Type             X           Y           Z
 ---------------------------------------------------------------------
      1          6           0       -1.365687    1.126612   -0.708016
      2          6           0       -1.595597   -0.251720   -0.770158
      3          6           0       -2.868489   -0.771360   -0.516649
      4          6           0       -3.893099    0.120152   -0.202529
      5          6           0       -3.695563    1.498344   -0.132840
      6          6           0       -2.414555    1.995713   -0.390116
      7          1           0       -0.373722    1.521631   -0.906410
      8          1           0       -0.782919   -0.929044   -1.016802
      9          1           0       -3.074297   -1.834073   -0.557897
     10          1           0       -4.525565    2.148580    0.115572
     11          1           0       -2.238921    3.066600   -0.341136
     12          7           0       -5.244949   -0.418178    0.067844
     13          8           0       -6.130844    0.388313    0.342434
     14          8           0       -5.393037   -1.636419    0.000051
     15          6           0        1.584618   -0.784629    1.544922
     16          6           0        2.449991    0.208517    2.015357
     17          6           0        3.608476    0.535792    1.304477
     18          6           0        3.871934   -0.153214    0.121620
     19          6           0        3.029345   -1.147545   -0.372990
     20          6           0        1.876542   -1.458304    0.354349
     21          1           0        0.686886   -1.032450    2.103544
     22          1           0        2.225813    0.733348    2.939662
     23          1           0        4.295717    1.300388    1.645814
     24          1           0        3.279515   -1.653368   -1.297640
     25          1           0        1.206295   -2.230042   -0.013393
     26          7           0        5.095363    0.184515   -0.639669
     27          8           0        5.304929   -0.437153   -1.679019
     28          8           0        5.821554    1.064499   -0.182603
 ---------------------------------------------------------------------

 SCF Done:  E(RHF) =  -868.337364035     A.U. after   16 cycles
 E2 =    -0.2600672565D+01 EUMP2 =    -0.87093803660052D+03

 The electronic state is 1-A.
 Alpha  occ. eigenvalues --  -20.61492 -20.61486 -20.61251 -20.61243 -15.86554
 Alpha  occ. eigenvalues --  -15.86307 -11.32056 -11.31736 -11.28700 -11.28641
 Alpha  occ. eigenvalues --  -11.28398 -11.28354 -11.28297 -11.28020 -11.27744
 Alpha  occ. eigenvalues --  -11.27619 -11.27350 -11.27286  -1.60567  -1.60326
 Alpha  occ. eigenvalues --   -1.40116  -1.39877  -1.20268  -1.19919  -1.09622
 Alpha  occ. eigenvalues --   -1.09281  -1.05698  -1.05338  -0.96420  -0.96106
 Alpha  occ. eigenvalues --   -0.87098  -0.86700  -0.83254  -0.82948  -0.78299
 Alpha  occ. eigenvalues --   -0.77990  -0.72763  -0.72520  -0.71900  -0.71654
 Alpha  occ. eigenvalues --   -0.71309  -0.70978  -0.65916  -0.65819  -0.65560
 Alpha  occ. eigenvalues --   -0.65233  -0.63066  -0.62632  -0.56128  -0.55772
 Alpha  occ. eigenvalues --   -0.54097  -0.53813  -0.53626  -0.53325  -0.49535
 Alpha  occ. eigenvalues --   -0.49512  -0.49284  -0.49274  -0.45490  -0.45269
 Alpha  occ. eigenvalues --   -0.38406  -0.37738  -0.37334  -0.36910
 Alpha virt. eigenvalues --    0.04231   0.04569   0.10044   0.10842   0.15626
 Alpha virt. eigenvalues --    0.16025   0.19568   0.21566   0.25056   0.27498
 Alpha virt. eigenvalues --    0.27844   0.27998   0.29558   0.31253   0.31768

 Mulliken charges:
               1
     1  C   -0.172048
     2  C   -0.222754
     3  C   -0.173548
     4  C    0.158629
     5  C   -0.170561
     6  C   -0.219629
     7  H    0.230946
     8  H    0.219936
     9  H    0.274467
    10  H    0.277181
    11  H    0.225567
    12  N    0.488037
    13  O   -0.458815
    14  O   -0.460456
    15  C   -0.169158
    16  C   -0.221089
    17  C   -0.170495
    18  C    0.157456
    19  C   -0.172659
    20  C   -0.227288
    21  H    0.231661
    22  H    0.227091
    23  H    0.278252
    24  H    0.277605
    25  H    0.220810
    26  N    0.488003
    27  O   -0.458841
    28  O   -0.458301
 Sum of Mulliken charges =  -0.00000

 Dipole moment (field-independent basis, Debye):
    X=              0.5719    Y=              0.8500    Z=              1.8270  Tot=              2.0946
 Quadrupole moment (field-independent basis, Debye-Ang):
   XX=           -175.0239   YY=            -97.6964   ZZ=           -102.2387
   XY=            -11.7893   XZ=             13.4373   YZ=              2.4546

 Normal termination of Gaussian 16 at Thu May  6 22:55:26 2021.
