 Gaussian 16, Revision A.03,
 Gaussian 16:  EM64L-G16RevA.03 25-Dec-2016

 -------------
 #p 6-31g* mp2
 -------------

 ------------------------------------------------------
 Input file generated by CHIRIPA (05-May-2021 14:53:18)
 ------------------------------------------------------
 Symbolic Z-matrix:
 Charge =  0 Multiplicity = 1

                         Standard orientation:
 ---------------------------------------------------------------------
 Center     Atomic      Atomic             Coordinates (Angstroms)
 Number     Number       Type             X           Y           Z
 ---------------------------------------------------------------------
      1          6           0       -2.424445   -0.015264   -0.249816
      2          6           0       -3.859599   -0.542778   -0.242980
      3          6           0       -3.944240   -2.030452   -0.585700
      4          1           0       -1.980714   -0.190854   -1.239369
      5          1           0       -1.825581   -0.592539    0.468174
      6          1           0       -4.455907    0.036233   -0.959763
      7          1           0       -4.300028   -0.365739    0.746613
      8          1           0       -3.373318   -2.624881    0.134928
      9          1           0       -3.530083   -2.220625   -1.581144
     10          1           0       -4.979073   -2.386636   -0.575074
     11          6           0       -2.323481    1.470471    0.090957
     12          6           0       -0.888327    1.997986    0.084121
     13          6           0       -0.803686    3.485659    0.426841
     14          1           0       -2.922345    2.047747   -0.627033
     15          1           0       -2.767212    1.646062    1.080510
     16          1           0       -0.447897    1.820946   -0.905473
     17          1           0       -0.292018    1.418974    0.800904
     18          1           0       -1.217843    3.675833    1.422285
     19          1           0       -1.374607    4.080089   -0.293787
     20          1           0        0.231147    3.841844    0.416214
     21          6           0        2.524325   -0.029205   -2.310011
     22          6           0        1.503254   -0.952927   -2.063697
     23          6           0        1.123924   -1.259379   -0.753452
     24          6           0        1.789918   -0.620572    0.291377
     25          6           0        2.811039    0.304195    0.078288
     26          6           0        3.173815    0.595306   -1.240119
     27          1           0        2.812569    0.202896   -3.331011
     28          1           0        0.997104   -1.439466   -2.892636
     29          1           0        0.336798   -1.970576   -0.534245
     30          1           0        3.297182    0.773031    0.925209
     31          1           0        3.967145    1.313092   -1.428420
     32          7           0        1.397101   -0.936879    1.682795
     33          8           0        1.999386   -0.360437    2.585902
     34          8           0        0.494363   -1.755253    1.843934
 ---------------------------------------------------------------------

 SCF Done:  E(RHF) =  -669.535183302     A.U. after   15 cycles
 E2 =    -0.2095647147D+01 EUMP2 =    -0.67163083044878D+03

 The electronic state is 1-A.
 Alpha  occ. eigenvalues --  -20.60957 -20.60950 -15.85957 -11.31171 -11.27785
 Alpha  occ. eigenvalues --  -11.27748 -11.27543 -11.26794 -11.26782 -11.21446
 Alpha  occ. eigenvalues --  -11.21411 -11.21193 -11.21112 -11.20960 -11.20959
 Alpha  occ. eigenvalues --   -1.60009  -1.39567  -1.19390  -1.08819  -1.08251
 Alpha  occ. eigenvalues --   -1.04779  -1.03381  -0.95837  -0.95660  -0.86857
 Alpha  occ. eigenvalues --   -0.86187  -0.82502  -0.79464  -0.78153  -0.77518
 Alpha  occ. eigenvalues --   -0.72194  -0.71329  -0.70511  -0.65070  -0.64853
 Alpha  occ. eigenvalues --   -0.64781  -0.62136  -0.60772  -0.59222  -0.57459
 Alpha  occ. eigenvalues --   -0.55305  -0.55113  -0.53213  -0.52888  -0.52489
 Alpha  occ. eigenvalues --   -0.52260  -0.49784  -0.48965  -0.48943  -0.47757
 Alpha  occ. eigenvalues --   -0.46497  -0.45681  -0.45573  -0.44777  -0.43620
 Alpha  occ. eigenvalues --   -0.37305  -0.36336
 Alpha virt. eigenvalues --    0.04926   0.11218   0.16367   0.21066   0.23098
 Alpha virt. eigenvalues --    0.24122   0.26334   0.26667   0.27743   0.28066
 Alpha virt. eigenvalues --    0.28791   0.30845   0.31304   0.31789   0.32024

 Mulliken charges:
               1
     1  C   -0.311191
     2  C   -0.298172
     3  C   -0.477845
     4  H    0.139728
     5  H    0.166858
     6  H    0.149409
     7  H    0.155455
     8  H    0.161413
     9  H    0.148023
    10  H    0.160779
    11  C   -0.297126
    12  C   -0.301626
    13  C   -0.474715
    14  H    0.146807
    15  H    0.153368
    16  H    0.150668
    17  H    0.151926
    18  H    0.158440
    19  H    0.153166
    20  H    0.156997
    21  C   -0.170702
    22  C   -0.220495
    23  C   -0.165523
    24  C    0.156304
    25  C   -0.170951
    26  C   -0.218208
    27  H    0.225737
    28  H    0.223623
    29  H    0.277118
    30  H    0.275378
    31  H    0.223480
    32  N    0.491228
    33  O   -0.458933
    34  O   -0.460419
 Sum of Mulliken charges =  -0.00000

 Dipole moment (field-independent basis, Debye):
    X=              1.4603    Y=              1.0564    Z=             -4.7593  Tot=              5.0892
 Quadrupole moment (field-independent basis, Debye-Ang):
   XX=            -87.8900   YY=            -95.8574   ZZ=            -96.6985
   XY=              3.5002   XZ=             -7.5438   YZ=              4.1419

 Normal termination of Gaussian 16 at Thu May  6 01:15:10 2021.
