 Gaussian 16, Revision A.03,
 Gaussian 16:  EM64L-G16RevA.03 25-Dec-2016

 -------------
 #p 6-31g* mp2
 -------------

 ------------------------------------------------------
 Input file generated by CHIRIPA (05-May-2021 14:55:25)
 ------------------------------------------------------
 Symbolic Z-matrix:
 Charge =  0 Multiplicity = 1

                         Standard orientation:
 ---------------------------------------------------------------------
 Center     Atomic      Atomic             Coordinates (Angstroms)
 Number     Number       Type             X           Y           Z
 ---------------------------------------------------------------------
      1          6           0        1.078313    1.131249    1.041446
      2          6           0        2.345838    1.456701    1.535392
      3          6           0        3.486563    0.818743    1.039102
      4          6           0        3.322375   -0.144145    0.044528
      5          6           0        2.073057   -0.490309   -0.467980
      6          6           0        0.946201    0.160494    0.043097
      7          1           0        0.197557    1.631819    1.432720
      8          1           0        2.451450    2.210205    2.310714
      9          1           0        4.479793    1.051367    1.403518
     10          1           0        1.999511   -1.245628   -1.240963
     11          1           0       -0.036922   -0.094284   -0.342393
     12          7           0        4.522668   -0.826322   -0.488699
     13          8           0        4.351227   -1.671091   -1.364833
     14          8           0        5.612172   -0.503326   -0.020412
     15          6           0       -3.956424   -0.720161   -0.222723
     16          6           0       -4.968026   -1.448147    0.663099
     17          6           0       -4.869654   -2.969435    0.545624
     18          1           0       -4.111972   -1.019431   -1.268279
     19          1           0       -2.942142   -1.044911    0.047764
     20          1           0       -5.980020   -1.121086    0.391961
     21          1           0       -4.810176   -1.146963    1.706645
     22          1           0       -3.872025   -3.314524    0.835884
     23          1           0       -5.048516   -3.288501   -0.486271
     24          1           0       -5.601704   -3.469810    1.187174
     25          6           0       -4.042429    0.801350   -0.116247
     26          6           0       -3.030827    1.529335   -1.002071
     27          6           0       -3.129199    3.050623   -0.884593
     28          1           0       -5.056712    1.126100   -0.386734
     29          1           0       -3.886881    1.100620    0.929309
     30          1           0       -3.188677    1.228151   -2.045616
     31          1           0       -2.018834    1.202276   -0.730931
     32          1           0       -2.950339    3.369689    0.147301
     33          1           0       -4.126828    3.395712   -1.174854
     34          1           0       -2.397149    3.550998   -1.526145
 ---------------------------------------------------------------------

 SCF Done:  E(RHF) =  -669.535432933     A.U. after   15 cycles
 E2 =    -0.2091492959D+01 EUMP2 =    -0.67162692589277D+03

 The electronic state is 1-A.
 Alpha  occ. eigenvalues --  -20.60749 -20.60744 -15.85802 -11.31171 -11.27742
 Alpha  occ. eigenvalues --  -11.27734 -11.27486 -11.26758 -11.26728 -11.22713
 Alpha  occ. eigenvalues --  -11.22345 -11.22306 -11.22252 -11.22013 -11.21631
 Alpha  occ. eigenvalues --   -1.59824  -1.39378  -1.19344  -1.09341  -1.08739
 Alpha  occ. eigenvalues --   -1.04748  -1.04377  -0.96802  -0.95574  -0.87818
 Alpha  occ. eigenvalues --   -0.86152  -0.82405  -0.80461  -0.79153  -0.77450
 Alpha  occ. eigenvalues --   -0.72021  -0.71147  -0.70456  -0.66027  -0.64995
 Alpha  occ. eigenvalues --   -0.64741  -0.62145  -0.61730  -0.60173  -0.58412
 Alpha  occ. eigenvalues --   -0.56091  -0.55250  -0.53487  -0.53220  -0.53075
 Alpha  occ. eigenvalues --   -0.52854  -0.50752  -0.48820  -0.48775  -0.48719
 Alpha  occ. eigenvalues --   -0.47502  -0.46667  -0.46601  -0.44783  -0.44637
 Alpha  occ. eigenvalues --   -0.37325  -0.36348
 Alpha virt. eigenvalues --    0.05084   0.11246   0.16573   0.18646   0.22806
 Alpha virt. eigenvalues --    0.23348   0.24369   0.25972   0.27073   0.28303
 Alpha virt. eigenvalues --    0.29002   0.30671   0.30979   0.31454   0.31644

 Mulliken charges:
               1
     1  C   -0.172404
     2  C   -0.218581
     3  C   -0.171136
     4  C    0.158853
     5  C   -0.171499
     6  C   -0.224912
     7  H    0.225577
     8  H    0.223360
     9  H    0.275579
    10  H    0.276102
    11  H    0.231392
    12  N    0.487952
    13  O   -0.460348
    14  O   -0.460481
    15  C   -0.299532
    16  C   -0.300097
    17  C   -0.476389
    18  H    0.152596
    19  H    0.143470
    20  H    0.154355
    21  H    0.152280
    22  H    0.155456
    23  H    0.156652
    24  H    0.162806
    25  C   -0.298473
    26  C   -0.304845
    27  C   -0.475860
    28  H    0.154185
    29  H    0.147997
    30  H    0.156976
    31  H    0.143323
    32  H    0.152165
    33  H    0.159894
    34  H    0.163584
 Sum of Mulliken charges =  -0.00000

 Dipole moment (field-independent basis, Debye):
    X=             -4.4534    Y=              2.4118    Z=              1.8339  Tot=              5.3863
 Quadrupole moment (field-independent basis, Debye-Ang):
   XX=           -120.1034   YY=            -95.5088   ZZ=            -92.5050
   XY=             10.3639   XZ=              8.8764   YZ=              1.6887

 Normal termination of Gaussian 16 at Thu May  6 09:33:52 2021.
