 Gaussian 16, Revision A.03,
 Gaussian 16:  EM64L-G16RevA.03 25-Dec-2016

 -------------
 #p 6-31g* mp2
 -------------

 ------------------------------------------------------
 Input file generated by CHIRIPA (05-May-2021 14:55:18)
 ------------------------------------------------------
 Symbolic Z-matrix:
 Charge =  0 Multiplicity = 1

                         Standard orientation:
 ---------------------------------------------------------------------
 Center     Atomic      Atomic             Coordinates (Angstroms)
 Number     Number       Type             X           Y           Z
 ---------------------------------------------------------------------
      1          6           0       -3.337004    1.851475    0.264706
      2          6           0       -2.223445    1.469045    1.019858
      3          6           0       -1.725620    0.165042    0.940516
      4          6           0       -2.368717   -0.734812    0.092000
      5          6           0       -3.480035   -0.384051   -0.673003
      6          6           0       -3.960645    0.925340   -0.577829
      7          1           0       -3.717040    2.866549    0.332491
      8          1           0       -1.737106    2.186178    1.675022
      9          1           0       -0.865174   -0.157726    1.513988
     10          1           0       -3.943648   -1.121220   -1.317256
     11          1           0       -4.825621    1.219541   -1.165457
     12          7           0       -1.850804   -2.118153   -0.000377
     13          8           0       -2.435266   -2.892102   -0.755389
     14          8           0       -0.870208   -2.402273    0.683980
     15          6           0        2.837196    1.249023   -0.498707
     16          6           0        1.603039    1.817668    0.202353
     17          6           0        1.006179    3.018144   -0.532773
     18          1           0        3.595436    2.038720   -0.590327
     19          1           0        2.566200    0.955621   -1.522362
     20          1           0        1.875953    2.108630    1.224837
     21          1           0        0.847722    1.026473    0.292485
     22          1           0        0.706411    2.738173   -1.547837
     23          1           0        1.740483    3.826479   -0.610189
     24          1           0        0.124979    3.408797   -0.014374
     25          6           0        3.445237    0.048438    0.224212
     26          6           0        4.679393   -0.520208   -0.476847
     27          6           0        5.276254   -1.720684    0.258278
     28          1           0        3.716233    0.341839    1.247868
     29          1           0        2.686997   -0.741259    0.315832
     30          1           0        5.434710    0.270988   -0.566980
     31          1           0        4.406479   -0.811170   -1.499332
     32          1           0        4.541949   -2.529018    0.335694
     33          1           0        5.576022   -1.440714    1.273343
     34          1           0        6.157453   -2.111336   -0.260121
 ---------------------------------------------------------------------

 SCF Done:  E(RHF) =  -669.534679280     A.U. after   15 cycles
 E2 =    -0.2093404207D+01 EUMP2 =    -0.67162808348726D+03

 The electronic state is 1-A.
 Alpha  occ. eigenvalues --  -20.60848 -20.60841 -15.85898 -11.31244 -11.27810
 Alpha  occ. eigenvalues --  -11.27791 -11.27549 -11.26820 -11.26810 -11.21864
 Alpha  occ. eigenvalues --  -11.21463 -11.21419 -11.21367 -11.21177 -11.20735
 Alpha  occ. eigenvalues --   -1.59921  -1.39475  -1.19425  -1.08817  -1.08413
 Alpha  occ. eigenvalues --   -1.04834  -1.03538  -0.95979  -0.95656  -0.87006
 Alpha  occ. eigenvalues --   -0.86217  -0.82491  -0.79661  -0.78209  -0.77520
 Alpha  occ. eigenvalues --   -0.72115  -0.71245  -0.70535  -0.65114  -0.65034
 Alpha  occ. eigenvalues --   -0.64805  -0.62224  -0.60920  -0.59398  -0.57601
 Alpha  occ. eigenvalues --   -0.55322  -0.55249  -0.53154  -0.52973  -0.52674
 Alpha  occ. eigenvalues --   -0.52356  -0.49903  -0.48873  -0.48871  -0.47946
 Alpha  occ. eigenvalues --   -0.46670  -0.45739  -0.45623  -0.44870  -0.43783
 Alpha  occ. eigenvalues --   -0.37389  -0.36344
 Alpha virt. eigenvalues --    0.04965   0.11095   0.16421   0.20592   0.23086
 Alpha virt. eigenvalues --    0.24247   0.25926   0.26471   0.27010   0.28501
 Alpha virt. eigenvalues --    0.29214   0.30629   0.31430   0.31698   0.32684

 Mulliken charges:
               1
     1  C   -0.171227
     2  C   -0.214500
     3  C   -0.172513
     4  C    0.157249
     5  C   -0.171141
     6  C   -0.218321
     7  H    0.226021
     8  H    0.225042
     9  H    0.277326
    10  H    0.275693
    11  H    0.223711
    12  N    0.488424
    13  O   -0.459918
    14  O   -0.461432
    15  C   -0.297046
    16  C   -0.307684
    17  C   -0.472989
    18  H    0.148925
    19  H    0.151514
    20  H    0.147872
    21  H    0.155061
    22  H    0.158198
    23  H    0.156187
    24  H    0.150114
    25  C   -0.302419
    26  C   -0.299499
    27  C   -0.476782
    28  H    0.147208
    29  H    0.159710
    30  H    0.149825
    31  H    0.153184
    32  H    0.160956
    33  H    0.153737
    34  H    0.159513
 Sum of Mulliken charges =  -0.00000

 Dipole moment (field-independent basis, Debye):
    X=             -1.8605    Y=              4.7570    Z=              0.2790  Tot=              5.1155
 Quadrupole moment (field-independent basis, Debye-Ang):
   XX=            -83.7531   YY=           -102.9246   ZZ=            -92.8953
   XY=             -8.9185   XZ=              1.8126   YZ=              1.7159

 Normal termination of Gaussian 16 at Wed May  5 20:29:22 2021.
