 Gaussian 16, Revision A.03,
 Gaussian 16:  EM64L-G16RevA.03 25-Dec-2016

 -------------
 #p 6-31g* mp2
 -------------

 ------------------------------------------------------
 Input file generated by CHIRIPA (05-May-2021 14:55:22)
 ------------------------------------------------------
 Symbolic Z-matrix:
 Charge =  0 Multiplicity = 1

                         Standard orientation:
 ---------------------------------------------------------------------
 Center     Atomic      Atomic             Coordinates (Angstroms)
 Number     Number       Type             X           Y           Z
 ---------------------------------------------------------------------
      1          6           0        4.912276   -1.446109    0.272265
      2          6           0        4.942092   -0.464198   -0.723468
      3          6           0        3.953793    0.523210   -0.776748
      4          6           0        2.945838    0.498615    0.185910
      5          6           0        2.888766   -0.466363    1.190326
      6          6           0        3.887515   -1.444061    1.224305
      7          1           0        5.684069   -2.209380    0.306157
      8          1           0        5.736729   -0.463325   -1.464141
      9          1           0        3.952730    1.295129   -1.536720
     10          1           0        2.083924   -0.441275    1.914907
     11          1           0        3.861828   -2.205394    1.998745
     12          7           0        1.894039    1.538800    0.139722
     13          8           0        1.016758    1.495218    0.999440
     14          8           0        1.966835    2.377984   -0.755325
     15          6           0       -4.712615   -0.606893   -0.075752
     16          6           0       -5.573959    0.592073    0.322434
     17          6           0       -7.011832    0.199708    0.663551
     18          1           0       -5.171427   -1.109635   -0.938124
     19          1           0       -4.709496   -1.336325    0.746023
     20          1           0       -5.574329    1.319652   -0.499300
     21          1           0       -5.112941    1.092133    1.183839
     22          1           0       -7.030209   -0.508458    1.498276
     23          1           0       -7.494219   -0.279645   -0.194426
     24          1           0       -7.609883    1.071924    0.945394
     25          6           0       -3.272504   -0.230689   -0.419667
     26          6           0       -2.411161   -1.429655   -0.817853
     27          6           0       -0.973286   -1.037290   -1.158970
     28          1           0       -3.275624    0.498744   -1.241442
     29          1           0       -2.813692    0.272053    0.442706
     30          1           0       -2.872179   -1.929714   -1.679258
     31          1           0       -2.410790   -2.157233    0.003881
     32          1           0       -0.490901   -0.557936   -0.300993
     33          1           0       -0.954910   -0.329124   -1.993694
     34          1           0       -0.375237   -1.909506   -1.440811
 ---------------------------------------------------------------------

 SCF Done:  E(RHF) =  -669.536318760     A.U. after   15 cycles
 E2 =    -0.2091429474D+01 EUMP2 =    -0.67162774823441D+03

 The electronic state is 1-A.
 Alpha  occ. eigenvalues --  -20.60911 -20.60893 -15.85917 -11.31230 -11.27798
 Alpha  occ. eigenvalues --  -11.27791 -11.27535 -11.26805 -11.26795 -11.21042
 Alpha  occ. eigenvalues --  -11.21022 -11.20808 -11.20626 -11.20615 -11.20373
 Alpha  occ. eigenvalues --   -1.59950  -1.39512  -1.19398  -1.08806  -1.07809
 Alpha  occ. eigenvalues --   -1.04797  -1.02948  -0.95651  -0.95395  -0.86418
 Alpha  occ. eigenvalues --   -0.86198  -0.82489  -0.79021  -0.77608  -0.77536
 Alpha  occ. eigenvalues --   -0.72151  -0.71259  -0.70514  -0.65059  -0.64805
 Alpha  occ. eigenvalues --   -0.64440  -0.62149  -0.60348  -0.58768  -0.57000
 Alpha  occ. eigenvalues --   -0.55306  -0.54676  -0.53124  -0.52893  -0.52121
 Alpha  occ. eigenvalues --   -0.51811  -0.49348  -0.48904  -0.48903  -0.47342
 Alpha  occ. eigenvalues --   -0.46088  -0.45213  -0.45106  -0.44706  -0.43200
 Alpha  occ. eigenvalues --   -0.37373  -0.36394
 Alpha virt. eigenvalues --    0.04966   0.11230   0.16436   0.21347   0.23482
 Alpha virt. eigenvalues --    0.24862   0.27119   0.27362   0.27871   0.28299
 Alpha virt. eigenvalues --    0.28661   0.30732   0.31799   0.32249   0.32381

 Mulliken charges:
               1
     1  C   -0.170602
     2  C   -0.218577
     3  C   -0.170572
     4  C    0.159730
     5  C   -0.170950
     6  C   -0.218558
     7  H    0.225737
     8  H    0.223586
     9  H    0.275654
    10  H    0.275240
    11  H    0.223566
    12  N    0.489121
    13  O   -0.460039
    14  O   -0.457974
    15  C   -0.298013
    16  C   -0.299551
    17  C   -0.475379
    18  H    0.147248
    19  H    0.147064
    20  H    0.152620
    21  H    0.153998
    22  H    0.153794
    23  H    0.153833
    24  H    0.159514
    25  C   -0.299725
    26  C   -0.298119
    27  C   -0.485333
    28  H    0.151251
    29  H    0.158668
    30  H    0.148860
    31  H    0.147680
    32  H    0.165588
    33  H    0.158090
    34  H    0.152548
 Sum of Mulliken charges =  -0.00000

 Dipole moment (field-independent basis, Debye):
    X=              3.8685    Y=             -3.5092    Z=              0.2009  Tot=              5.2269
 Quadrupole moment (field-independent basis, Debye-Ang):
   XX=            -74.0385   YY=            -98.4241   ZZ=            -90.9574
   XY=             -8.6484   XZ=             -0.4131   YZ=             -2.8088

 Normal termination of Gaussian 16 at Wed May  5 20:39:16 2021.
