 Gaussian 16, Revision A.03,
 Gaussian 16:  EM64L-G16RevA.03 25-Dec-2016

 -------------
 #p 6-31g* mp2
 -------------

 ------------------------------------------------------
 Input file generated by CHIRIPA (05-May-2021 14:51:12)
 ------------------------------------------------------
 Symbolic Z-matrix:
 Charge =  0 Multiplicity = 1

                         Standard orientation:
 ---------------------------------------------------------------------
 Center     Atomic      Atomic             Coordinates (Angstroms)
 Number     Number       Type             X           Y           Z
 ---------------------------------------------------------------------
      1          6           0       -3.350390   -0.391985   -0.199436
      2          6           0       -4.766434   -0.794611   -0.612590
      3          6           0       -5.104258   -2.237564   -0.236352
      4          1           0       -2.629743   -1.073798   -0.671394
      5          1           0       -3.241070   -0.524089    0.885918
      6          1           0       -4.873482   -0.660474   -1.696640
      7          1           0       -5.483782   -0.111643   -0.139746
      8          1           0       -5.025265   -2.382048    0.846000
      9          1           0       -4.411497   -2.933997   -0.719740
     10          1           0       -6.121089   -2.504317   -0.540913
     11          6           0       -2.997846    1.047812   -0.568792
     12          6           0       -1.581802    1.450438   -0.155637
     13          6           0       -1.243979    2.893391   -0.531875
     14          1           0       -3.107166    1.179916   -1.654145
     15          1           0       -3.718493    1.729625   -0.096833
     16          1           0       -0.864454    0.767470   -0.628481
     17          1           0       -1.474754    1.316301    0.928413
     18          1           0       -1.936740    3.589825   -0.048487
     19          1           0       -1.322972    3.037875   -1.614227
     20          1           0       -0.227148    3.160144   -0.227314
     21          6           0        2.553192   -0.609350    0.728607
     22          6           0        1.891330    0.379992    1.688360
     23          6           0        0.650455   -0.197601    2.369834
     24          1           0        1.823404   -0.915118   -0.033537
     25          1           0        2.827133   -1.518499    1.281599
     26          1           0        1.619968    1.287557    1.134010
     27          1           0        2.622834    0.683587    2.448193
     28          1           0        0.908808   -1.091163    2.947242
     29          1           0       -0.099756   -0.483761    1.625592
     30          1           0        0.193168    0.526335    3.051500
     31          6           0        3.795045   -0.046477    0.039621
     32          6           0        4.456906   -1.035819   -0.920132
     33          6           0        5.697782   -0.458227   -1.601607
     34          1           0        3.521103    0.862671   -0.513372
     35          1           0        4.524832    0.259291    0.801763
     36          1           0        3.725403   -1.339413   -1.679967
     37          1           0        4.728269   -1.943384   -0.365783
     38          1           0        6.447993   -0.172065   -0.857364
     39          1           0        5.439429    0.435337   -2.179016
     40          1           0        6.155069   -1.182161   -2.283272
 ---------------------------------------------------------------------

 SCF Done:  E(RHF) =  -470.732364766     A.U. after   11 cycles
 E2 =    -0.1584008143D+01 EUMP2 =    -0.47231637290875D+03

 The electronic state is 1-A.
 Alpha  occ. eigenvalues --  -11.21623 -11.21598 -11.21572 -11.21557 -11.21430
 Alpha  occ. eigenvalues --  -11.21391 -11.21368 -11.21332 -11.21105 -11.21080
 Alpha  occ. eigenvalues --  -11.21068 -11.20938  -1.08476  -1.08391  -1.03603
 Alpha  occ. eigenvalues --   -1.03450  -0.96017  -0.95937  -0.87051  -0.86940
 Alpha  occ. eigenvalues --   -0.79688  -0.79514  -0.78300  -0.78204  -0.65091
 Alpha  occ. eigenvalues --   -0.65046  -0.61027  -0.60904  -0.59377  -0.59273
 Alpha  occ. eigenvalues --   -0.57648  -0.57517  -0.55315  -0.55218  -0.52715
 Alpha  occ. eigenvalues --   -0.52638  -0.52441  -0.52358  -0.50037  -0.49861
 Alpha  occ. eigenvalues --   -0.47985  -0.47813  -0.46719  -0.46547  -0.45904
 Alpha  occ. eigenvalues --   -0.45714  -0.45710  -0.45481  -0.43804  -0.43755
 Alpha virt. eigenvalues --    0.20540   0.23083   0.23624   0.24582   0.25578
 Alpha virt. eigenvalues --    0.25902   0.26379   0.27872   0.28540   0.29245
 Alpha virt. eigenvalues --    0.30362   0.30806   0.31667   0.31880   0.32442

 Mulliken charges:
               1
     1  C   -0.299829
     2  C   -0.299544
     3  C   -0.475773
     4  H    0.149108
     5  H    0.150686
     6  H    0.152001
     7  H    0.152104
     8  H    0.155442
     9  H    0.155193
    10  H    0.160310
    11  C   -0.297799
    12  C   -0.305416
    13  C   -0.477397
    14  H    0.149180
    15  H    0.149662
    16  H    0.151214
    17  H    0.160640
    18  H    0.155446
    19  H    0.155009
    20  H    0.160886
    21  C   -0.299133
    22  C   -0.302173
    23  C   -0.479871
    24  H    0.149755
    25  H    0.149667
    26  H    0.154598
    27  H    0.151776
    28  H    0.154272
    29  H    0.162297
    30  H    0.157979
    31  C   -0.298289
    32  C   -0.299590
    33  C   -0.475704
    34  H    0.149351
    35  H    0.149696
    36  H    0.151689
    37  H    0.151963
    38  H    0.155208
    39  H    0.155181
    40  H    0.160204
 Sum of Mulliken charges =  -0.00000

 Dipole moment (field-independent basis, Debye):
    X=             -0.0375    Y=              0.0037    Z=              0.0058  Tot=              0.0381
 Quadrupole moment (field-independent basis, Debye-Ang):
   XX=            -85.2936   YY=            -85.7164   ZZ=            -83.8456
   XY=             -0.9793   XZ=              0.6483   YZ=              0.4335

 Normal termination of Gaussian 16 at Thu May  6 03:55:15 2021.
