 Gaussian 16, Revision A.03,
 Gaussian 16:  EM64L-G16RevA.03 25-Dec-2016

 -------------
 #p 6-31g* mp2
 -------------

 ------------------------------------------------------
 Input file generated by CHIRIPA (05-May-2021 14:55:19)
 ------------------------------------------------------
 Symbolic Z-matrix:
 Charge =  0 Multiplicity = 1

                         Standard orientation:
 ---------------------------------------------------------------------
 Center     Atomic      Atomic             Coordinates (Angstroms)
 Number     Number       Type             X           Y           Z
 ---------------------------------------------------------------------
      1          6           0        1.722346    1.951305   -0.624289
      2          6           0        3.107575    2.017816   -0.806603
      3          6           0        3.917646    0.920590   -0.499314
      4          6           0        3.306375   -0.232528   -0.009458
      5          6           0        1.929137   -0.329639    0.183092
      6          6           0        1.138578    0.779855   -0.130893
      7          1           0        1.100642    2.808422   -0.865600
      8          1           0        3.563680    2.926283   -1.189621
      9          1           0        4.992602    0.944864   -0.630832
     10          1           0        1.503363   -1.248914    0.566587
     11          1           0        0.063059    0.725349    0.011703
     12          7           0        4.153633   -1.400606    0.319400
     13          8           0        3.590708   -2.404962    0.749542
     14          8           0        5.364595   -1.289672    0.140790
     15          6           0       -3.958757   -0.693238   -0.060837
     16          6           0       -5.273709   -1.438207   -0.293014
     17          6           0       -5.067876   -2.926520   -0.576481
     18          1           0       -3.315362   -0.814375   -0.943058
     19          1           0       -3.426038   -1.157471    0.780646
     20          1           0       -5.804435   -0.971841   -1.132923
     21          1           0       -5.914125   -1.315122    0.589785
     22          1           0       -4.560198   -3.412010    0.263259
     23          1           0       -4.449884   -3.066778   -1.469238
     24          1           0       -6.020741   -3.439704   -0.739415
     25          6           0       -4.148089    0.795675    0.223801
     26          6           0       -2.833136    1.540644    0.455977
     27          6           0       -3.038970    3.028955    0.739445
     28          1           0       -4.680807    1.259907   -0.617683
     29          1           0       -4.791484    0.916812    1.106022
     30          1           0       -2.192721    1.417559   -0.426822
     31          1           0       -2.302411    1.074278    1.295886
     32          1           0       -3.656961    3.169215    1.632202
     33          1           0       -3.546647    3.514446   -0.100295
     34          1           0       -2.086104    3.542140    0.902379
 ---------------------------------------------------------------------

 SCF Done:  E(RHF) =  -669.535546880     A.U. after   15 cycles
 E2 =    -0.2091372209D+01 EUMP2 =    -0.67162691908912D+03

 The electronic state is 1-A.
 Alpha  occ. eigenvalues --  -20.60700 -20.60695 -15.85751 -11.31098 -11.27666
 Alpha  occ. eigenvalues --  -11.27641 -11.27394 -11.26686 -11.26581 -11.22825
 Alpha  occ. eigenvalues --  -11.22256 -11.22156 -11.22121 -11.22092 -11.21472
 Alpha  occ. eigenvalues --   -1.59775  -1.39329  -1.19262  -1.09268  -1.08662
 Alpha  occ. eigenvalues --   -1.04661  -1.04340  -0.96749  -0.95503  -0.87771
 Alpha  occ. eigenvalues --   -0.86063  -0.82336  -0.80474  -0.79063  -0.77375
 Alpha  occ. eigenvalues --   -0.71970  -0.71098  -0.70378  -0.65894  -0.64912
 Alpha  occ. eigenvalues --   -0.64675  -0.62045  -0.61714  -0.60145  -0.58366
 Alpha  occ. eigenvalues --   -0.56009  -0.55169  -0.53474  -0.53185  -0.52996
 Alpha  occ. eigenvalues --   -0.52745  -0.50688  -0.48822  -0.48727  -0.48622
 Alpha  occ. eigenvalues --   -0.47493  -0.46570  -0.46482  -0.44739  -0.44584
 Alpha  occ. eigenvalues --   -0.37249  -0.36262
 Alpha virt. eigenvalues --    0.05143   0.11359   0.16635   0.19895   0.22465
 Alpha virt. eigenvalues --    0.23808   0.25372   0.25735   0.26715   0.28414
 Alpha virt. eigenvalues --    0.28859   0.30541   0.30613   0.31442   0.31939

 Mulliken charges:
               1
     1  C   -0.174173
     2  C   -0.218390
     3  C   -0.171638
     4  C    0.159079
     5  C   -0.173378
     6  C   -0.227650
     7  H    0.225092
     8  H    0.222914
     9  H    0.275187
    10  H    0.275734
    11  H    0.237907
    12  N    0.487985
    13  O   -0.460617
    14  O   -0.460779
    15  C   -0.300210
    16  C   -0.300185
    17  C   -0.476468
    18  H    0.148654
    19  H    0.149653
    20  H    0.153004
    21  H    0.153542
    22  H    0.156625
    23  H    0.156058
    24  H    0.162422
    25  C   -0.296866
    26  C   -0.308743
    27  C   -0.475376
    28  H    0.152157
    29  H    0.153549
    30  H    0.146303
    31  H    0.152842
    32  H    0.160901
    33  H    0.158186
    34  H    0.156676
 Sum of Mulliken charges =  -0.00000

 Dipole moment (field-independent basis, Debye):
    X=             -3.2861    Y=              4.1061    Z=             -1.1277  Tot=              5.3787
 Quadrupole moment (field-independent basis, Debye-Ang):
   XX=           -110.3870   YY=            -96.7829   ZZ=            -94.1623
   XY=             16.7620   XZ=             -5.3341   YZ=             -0.9826

 Normal termination of Gaussian 16 at Thu May  6 15:44:00 2021.
