 Gaussian 16, Revision A.03,
 Gaussian 16:  EM64L-G16RevA.03 25-Dec-2016

 -------------
 #p 6-31g* mp2
 -------------

 ------------------------------------------------------
 Input file generated by CHIRIPA (05-May-2021 14:53:14)
 ------------------------------------------------------
 Symbolic Z-matrix:
 Charge =  0 Multiplicity = 1

                         Standard orientation:
 ---------------------------------------------------------------------
 Center     Atomic      Atomic             Coordinates (Angstroms)
 Number     Number       Type             X           Y           Z
 ---------------------------------------------------------------------
      1          6           0       -3.969350   -0.146152    0.204497
      2          6           0       -3.409396   -1.564394    0.090370
      3          6           0       -1.902393   -1.626904    0.341022
      4          1           0       -3.449767    0.505100   -0.511639
      5          1           0       -3.746446    0.249154    1.205217
      6          1           0       -3.634501   -1.957423   -0.909367
      7          1           0       -3.930506   -2.212387    0.806726
      8          1           0       -1.663212   -1.260056    1.344424
      9          1           0       -1.365525   -1.003643   -0.381419
     10          1           0       -1.523106   -2.649893    0.254456
     11          6           0       -5.474689   -0.067397   -0.043455
     12          6           0       -6.034643    1.350846    0.070672
     13          6           0       -7.541646    1.413355   -0.179981
     14          1           0       -5.697593   -0.462703   -1.044176
     15          1           0       -5.994272   -0.718648    0.672680
     16          1           0       -5.513533    1.998838   -0.645685
     17          1           0       -5.809538    1.743874    1.070408
     18          1           0       -8.078513    0.790094    0.542460
     19          1           0       -7.780827    1.046507   -1.183383
     20          1           0       -7.920932    2.436345   -0.093414
     21          6           0        5.150675    2.129347    0.146446
     22          6           0        3.778125    2.270147   -0.083344
     23          6           0        2.958693    1.143548   -0.201044
     24          6           0        3.547776   -0.114376   -0.083147
     25          6           0        4.911951   -0.287333    0.145772
     26          6           0        5.712217    0.853306    0.260070
     27          1           0        5.779785    3.009970    0.236557
     28          1           0        3.339285    3.259895   -0.172019
     29          1           0        1.893171    1.223720   -0.378962
     30          1           0        5.320556   -1.287050    0.229596
     31          1           0        6.777849    0.740937    0.438524
     32          7           0        2.690425   -1.314487   -0.205949
     33          8           0        3.233766   -2.411671   -0.098222
     34          8           0        1.491326   -1.135227   -0.407605
 ---------------------------------------------------------------------

 SCF Done:  E(RHF) =  -669.535576149     A.U. after   15 cycles
 E2 =    -0.2090810913D+01 EUMP2 =    -0.67162638706119D+03

 The electronic state is 1-A.
 Alpha  occ. eigenvalues --  -20.60830 -20.60822 -15.85872 -11.31234 -11.27804
 Alpha  occ. eigenvalues --  -11.27800 -11.27547 -11.26820 -11.26810 -11.21233
 Alpha  occ. eigenvalues --  -11.20866 -11.20772 -11.20705 -11.20582 -11.19558
 Alpha  occ. eigenvalues --   -1.59896  -1.39452  -1.19407  -1.08803  -1.07791
 Alpha  occ. eigenvalues --   -1.04810  -1.02782  -0.95645  -0.95190  -0.86223
 Alpha  occ. eigenvalues --   -0.86187  -0.82473  -0.78873  -0.77602  -0.77490
 Alpha  occ. eigenvalues --   -0.72094  -0.71215  -0.70516  -0.65063  -0.64813
 Alpha  occ. eigenvalues --   -0.64432  -0.62157  -0.60185  -0.58636  -0.56805
 Alpha  occ. eigenvalues --   -0.55313  -0.54486  -0.53140  -0.52903  -0.51846
 Alpha  occ. eigenvalues --   -0.51619  -0.49181  -0.48848  -0.48811  -0.47162
 Alpha  occ. eigenvalues --   -0.45933  -0.45118  -0.45029  -0.44831  -0.43025
 Alpha  occ. eigenvalues --   -0.37388  -0.36414
 Alpha virt. eigenvalues --    0.05011   0.11241   0.16499   0.21328   0.23439
 Alpha virt. eigenvalues --    0.25049   0.27111   0.27315   0.27873   0.28154
 Alpha virt. eigenvalues --    0.29018   0.30855   0.31963   0.32295   0.32687

 Mulliken charges:
               1
     1  C   -0.296875
     2  C   -0.301829
     3  C   -0.470380
     4  H    0.146961
     5  H    0.146925
     6  H    0.149815
     7  H    0.147878
     8  H    0.148056
     9  H    0.165558
    10  H    0.166009
    11  C   -0.297434
    12  C   -0.298903
    13  C   -0.475280
    14  H    0.149002
    15  H    0.148979
    16  H    0.150249
    17  H    0.150580
    18  H    0.154945
    19  H    0.154913
    20  H    0.158417
    21  C   -0.170769
    22  C   -0.218537
    23  C   -0.170628
    24  C    0.157702
    25  C   -0.170805
    26  C   -0.218559
    27  H    0.225752
    28  H    0.223633
    29  H    0.275465
    30  H    0.275745
    31  H    0.223590
    32  N    0.494009
    33  O   -0.460008
    34  O   -0.464175
 Sum of Mulliken charges =  -0.00000

 Dipole moment (field-independent basis, Debye):
    X=              3.2982    Y=              4.1668    Z=              0.3943  Tot=              5.3288
 Quadrupole moment (field-independent basis, Debye-Ang):
   XX=            -72.6701   YY=            -94.4130   ZZ=            -94.7561
   XY=             12.5585   XZ=              1.7515   YZ=             -0.9541

 Normal termination of Gaussian 16 at Thu May  6 04:13:23 2021.
