 Gaussian 16, Revision A.03,
 Gaussian 16:  EM64L-G16RevA.03 25-Dec-2016

 -------------
 #p 6-31g* mp2
 -------------

 ------------------------------------------------------
 Input file generated by CHIRIPA (05-May-2021 14:55:25)
 ------------------------------------------------------
 Symbolic Z-matrix:
 Charge =  0 Multiplicity = 1

                         Standard orientation:
 ---------------------------------------------------------------------
 Center     Atomic      Atomic             Coordinates (Angstroms)
 Number     Number       Type             X           Y           Z
 ---------------------------------------------------------------------
      1          6           0       -4.986267    1.946097   -0.368876
      2          6           0       -4.257196    1.877507    0.822876
      3          6           0       -3.428320    0.782882    1.086136
      4          6           0       -3.351898   -0.229898    0.131293
      5          6           0       -4.065786   -0.190462   -1.065411
      6          6           0       -4.888408    0.913714   -1.307561
      7          1           0       -5.627729    2.800138   -0.565184
      8          1           0       -4.331246    2.677808    1.553684
      9          1           0       -2.852864    0.704279    2.000516
     10          1           0       -3.971428   -1.003649   -1.774806
     11          1           0       -5.453458    0.964309   -2.233953
     12          7           0       -2.477714   -1.393785    0.398820
     13          8           0       -2.427730   -2.273037   -0.458532
     14          8           0       -1.859066   -1.404748    1.460796
     15          6           0        4.998874    0.589095    0.018155
     16          6           0        6.431710    0.116149   -0.229406
     17          6           0        7.468659    1.208349    0.034470
     18          1           0        4.790252    1.457141   -0.622095
     19          1           0        4.909456    0.937757    1.056343
     20          1           0        6.518041   -0.232807   -1.266417
     21          1           0        6.636882   -0.750990    0.411368
     22          1           0        7.411580    1.550998    1.072706
     23          1           0        7.292064    2.072125   -0.614612
     24          1           0        8.486005    0.848727   -0.148660
     25          6           0        3.950820   -0.491621   -0.241388
     26          6           0        2.517984   -0.018675    0.006172
     27          6           0        1.481035   -1.110875   -0.257704
     28          1           0        4.040238   -0.840283   -1.279577
     29          1           0        4.159442   -1.359667    0.398862
     30          1           0        2.312811    0.848464   -0.634602
     31          1           0        2.431653    0.330281    1.043183
     32          1           0        1.657629   -1.974651    0.391378
     33          1           0        1.538114   -1.453524   -1.295941
     34          1           0        0.463688   -0.751254   -0.074575
 ---------------------------------------------------------------------

 SCF Done:  E(RHF) =  -669.535575803     A.U. after   15 cycles
 E2 =    -0.2091194244D+01 EUMP2 =    -0.67162677004684D+03

 The electronic state is 1-A.
 Alpha  occ. eigenvalues --  -20.60860 -20.60853 -15.85883 -11.31247 -11.27816
 Alpha  occ. eigenvalues --  -11.27812 -11.27558 -11.26828 -11.26819 -11.21207
 Alpha  occ. eigenvalues --  -11.20908 -11.20809 -11.20762 -11.20723 -11.19863
 Alpha  occ. eigenvalues --   -1.59925  -1.39477  -1.19420  -1.08818  -1.07849
 Alpha  occ. eigenvalues --   -1.04820  -1.02882  -0.95655  -0.95302  -0.86312
 Alpha  occ. eigenvalues --   -0.86219  -0.82486  -0.78962  -0.77652  -0.77535
 Alpha  occ. eigenvalues --   -0.72108  -0.71268  -0.70527  -0.65073  -0.64822
 Alpha  occ. eigenvalues --   -0.64486  -0.62167  -0.60281  -0.58711  -0.56921
 Alpha  occ. eigenvalues --   -0.55323  -0.54590  -0.53156  -0.52912  -0.51971
 Alpha  occ. eigenvalues --   -0.51730  -0.49254  -0.48868  -0.48852  -0.47273
 Alpha  occ. eigenvalues --   -0.46016  -0.45190  -0.45121  -0.44859  -0.43107
 Alpha  occ. eigenvalues --   -0.37401  -0.36422
 Alpha virt. eigenvalues --    0.04976   0.11231   0.16452   0.21365   0.23410
 Alpha virt. eigenvalues --    0.24970   0.27200   0.27281   0.28021   0.28186
 Alpha virt. eigenvalues --    0.28718   0.30812   0.32057   0.32336   0.32365

 Mulliken charges:
               1
     1  C   -0.170649
     2  C   -0.218539
     3  C   -0.171060
     4  C    0.157669
     5  C   -0.170784
     6  C   -0.218592
     7  H    0.225838
     8  H    0.223707
     9  H    0.275823
    10  H    0.275900
    11  H    0.223681
    12  N    0.486303
    13  O   -0.458009
    14  O   -0.458219
    15  C   -0.297534
    16  C   -0.299240
    17  C   -0.475336
    18  H    0.147534
    19  H    0.148566
    20  H    0.151386
    21  H    0.152189
    22  H    0.154579
    23  H    0.154033
    24  H    0.159247
    25  C   -0.297825
    26  C   -0.300788
    27  C   -0.470702
    28  H    0.148360
    29  H    0.150569
    30  H    0.145983
    31  H    0.150774
    32  H    0.161577
    33  H    0.151160
    34  H    0.162397
 Sum of Mulliken charges =  -0.00000

 Dipole moment (field-independent basis, Debye):
    X=             -3.2893    Y=              4.0019    Z=             -0.9018  Tot=              5.2581
 Quadrupole moment (field-independent basis, Debye-Ang):
   XX=            -75.8910   YY=            -96.7133   ZZ=            -90.4083
   XY=            -13.5984   XZ=              4.2666   YZ=              2.3651

 Normal termination of Gaussian 16 at Thu May  6 12:44:02 2021.
