 Gaussian 16, Revision A.03,
 Gaussian 16:  EM64L-G16RevA.03 25-Dec-2016

 -------------
 #p 6-31g* mp2
 -------------

 ------------------------------------------------------
 Input file generated by CHIRIPA (05-May-2021 14:51:07)
 ------------------------------------------------------
 Symbolic Z-matrix:
 Charge =  0 Multiplicity = 1

                         Standard orientation:
 ---------------------------------------------------------------------
 Center     Atomic      Atomic             Coordinates (Angstroms)
 Number     Number       Type             X           Y           Z
 ---------------------------------------------------------------------
      1          6           0        3.243771    0.810031    0.234567
      2          6           0        3.808838   -0.580999   -0.054780
      3          6           0        5.243141   -0.752410    0.446408
      4          1           0        3.889798    1.565765   -0.232830
      5          1           0        3.279411    0.994734    1.317161
      6          1           0        3.770865   -0.763569   -1.136372
      7          1           0        3.161285   -1.333519    0.413199
      8          1           0        5.294152   -0.596788    1.528896
      9          1           0        5.907195   -0.023601   -0.029479
     10          1           0        5.627326   -1.753943    0.229167
     11          6           0        1.810677    0.996776   -0.260505
     12          6           0        1.245610    2.387806    0.028841
     13          6           0       -0.188692    2.559217   -0.472347
     14          1           0        1.775038    0.812074   -1.343099
     15          1           0        1.164650    0.241042    0.206892
     16          1           0        1.893164    3.140326   -0.439138
     17          1           0        1.283584    2.570377    1.110433
     18          1           0       -0.852747    1.830408    0.003540
     19          1           0       -0.239703    2.403595   -1.554835
     20          1           0       -0.572878    3.560750   -0.255106
     21          6           0       -3.057907   -0.579255    0.456518
     22          6           0       -4.130615    0.172587   -0.332164
     23          6           0       -5.185184    0.815595    0.569069
     24          1           0       -3.538311   -1.352999    1.070909
     25          1           0       -2.570751    0.116022    1.154130
     26          1           0       -4.614659   -0.523584   -1.029060
     27          1           0       -3.647584    0.944504   -0.944894
     28          1           0       -4.720953    1.531433    1.255121
     29          1           0       -5.693523    0.055004    1.170477
     30          1           0       -5.942211    1.347778   -0.015355
     31          6           0       -1.996541   -1.227552   -0.430579
     32          6           0       -0.923834   -1.979394    0.358102
     33          6           0        0.130735   -2.622402   -0.543130
     34          1           0       -2.483698   -1.922830   -1.128191
     35          1           0       -1.516138   -0.453808   -1.044971
     36          1           0       -1.406865   -2.751311    0.970834
     37          1           0       -0.439790   -1.283224    1.054999
     38          1           0        0.639074   -1.861811   -1.144538
     39          1           0       -0.333495   -3.338240   -1.229182
     40          1           0        0.887762   -3.154585    0.041293
 ---------------------------------------------------------------------

 SCF Done:  E(RHF) =  -470.732039660     A.U. after   11 cycles
 E2 =    -0.1585979151D+01 EUMP2 =    -0.47231801881125D+03

 The electronic state is 1-A.
 Alpha  occ. eigenvalues --  -11.21665 -11.21602 -11.21583 -11.21569 -11.21424
 Alpha  occ. eigenvalues --  -11.21389 -11.21365 -11.21311 -11.21154 -11.21065
 Alpha  occ. eigenvalues --  -11.21045 -11.20989  -1.08522  -1.08373  -1.03570
 Alpha  occ. eigenvalues --   -1.03511  -0.96068  -0.95914  -0.87045  -0.86968
 Alpha  occ. eigenvalues --   -0.79643  -0.79571  -0.78325  -0.78218  -0.65433
 Alpha  occ. eigenvalues --   -0.64793  -0.61001  -0.60905  -0.59419  -0.59291
 Alpha  occ. eigenvalues --   -0.57697  -0.57534  -0.55531  -0.55034  -0.52728
 Alpha  occ. eigenvalues --   -0.52636  -0.52503  -0.52290  -0.50036  -0.49838
 Alpha  occ. eigenvalues --   -0.48025  -0.47843  -0.46747  -0.46589  -0.46051
 Alpha  occ. eigenvalues --   -0.45887  -0.45515  -0.45347  -0.43816  -0.43755
 Alpha virt. eigenvalues --    0.19817   0.22220   0.23932   0.24316   0.25254
 Alpha virt. eigenvalues --    0.26228   0.26740   0.27716   0.28813   0.30394
 Alpha virt. eigenvalues --    0.30433   0.31177   0.31581   0.31777   0.32589

 Mulliken charges:
               1
     1  C   -0.297498
     2  C   -0.302443
     3  C   -0.475788
     4  H    0.149606
     5  H    0.149144
     6  H    0.151812
     7  H    0.155780
     8  H    0.154999
     9  H    0.155080
    10  H    0.160384
    11  C   -0.309059
    12  C   -0.298943
    13  C   -0.482832
    14  H    0.148782
    15  H    0.161701
    16  H    0.152306
    17  H    0.151695
    18  H    0.161837
    19  H    0.155131
    20  H    0.160748
    21  C   -0.300052
    22  C   -0.300973
    23  C   -0.475636
    24  H    0.150108
    25  H    0.149240
    26  H    0.151895
    27  H    0.154069
    28  H    0.155214
    29  H    0.154933
    30  H    0.160274
    31  C   -0.303017
    32  C   -0.303228
    33  C   -0.480184
    34  H    0.150035
    35  H    0.154683
    36  H    0.153031
    37  H    0.151024
    38  H    0.161443
    39  H    0.154886
    40  H    0.159814
 Sum of Mulliken charges =  -0.00000

 Dipole moment (field-independent basis, Debye):
    X=              0.0116    Y=              0.0077    Z=             -0.0208  Tot=              0.0250
 Quadrupole moment (field-independent basis, Debye-Ang):
   XX=            -86.1664   YY=            -84.3709   ZZ=            -84.3284
   XY=              1.2685   XZ=             -0.1354   YZ=             -0.4228

 Normal termination of Gaussian 16 at Thu May  6 11:31:49 2021.
