 Gaussian 16, Revision A.03,
 Gaussian 16:  EM64L-G16RevA.03 25-Dec-2016

 -------------
 #p 6-31g* mp2
 -------------

 ------------------------------------------------------
 Input file generated by CHIRIPA (05-May-2021 14:55:24)
 ------------------------------------------------------
 Symbolic Z-matrix:
 Charge =  0 Multiplicity = 1

                         Standard orientation:
 ---------------------------------------------------------------------
 Center     Atomic      Atomic             Coordinates (Angstroms)
 Number     Number       Type             X           Y           Z
 ---------------------------------------------------------------------
      1          6           0       -2.842222   -2.263444    0.414913
      2          6           0       -3.641362   -1.686299   -0.577458
      3          6           0       -3.685357   -0.297885   -0.735319
      4          6           0       -2.913982    0.486909    0.120467
      5          6           0       -2.107907   -0.058248    1.118634
      6          6           0       -2.079390   -1.449013    1.258304
      7          1           0       -2.814057   -3.342911    0.530478
      8          1           0       -4.234837   -2.316333   -1.233880
      9          1           0       -4.295314    0.175276   -1.495246
     10          1           0       -1.527360    0.595768    1.757888
     11          1           0       -1.457854   -1.894469    2.029866
     12          7           0       -2.952365    1.958004   -0.037025
     13          8           0       -2.263448    2.627486    0.729671
     14          8           0       -3.670641    2.413713   -0.924182
     15          6           0        4.305879   -0.091726    0.252313
     16          6           0        5.363845    0.712351   -0.504095
     17          6           0        6.525960    1.147670    0.389089
     18          1           0        3.922884    0.511805    1.086585
     19          1           0        4.778407   -0.977709    0.698572
     20          1           0        4.889185    1.595823   -0.949955
     21          1           0        5.744226    0.106908   -1.336780
     22          1           0        7.025701    0.275714    0.823314
     23          1           0        6.165800    1.773089    1.212336
     24          1           0        7.270558    1.721018   -0.171899
     25          6           0        3.137722   -0.534076   -0.627156
     26          6           0        2.079756   -1.338154    0.129252
     27          6           0        0.917640   -1.773473   -0.763931
     28          1           0        2.665193    0.351905   -1.073416
     29          1           0        3.520717   -1.137607   -1.461429
     30          1           0        1.699374   -0.732711    0.961936
     31          1           0        2.554416   -2.221626    0.575112
     32          1           0        1.277800   -2.398891   -1.587180
     33          1           0        0.417900   -0.901516   -1.198157
     34          1           0        0.173043   -2.346821   -0.202944
 ---------------------------------------------------------------------

 SCF Done:  E(RHF) =  -669.534484101     A.U. after   15 cycles
 E2 =    -0.2092831515D+01 EUMP2 =    -0.67162731561614D+03

 The electronic state is 1-A.
 Alpha  occ. eigenvalues --  -20.60809 -20.60804 -15.85862 -11.31237 -11.27782
 Alpha  occ. eigenvalues --  -11.27773 -11.27512 -11.26810 -11.26792 -11.21907
 Alpha  occ. eigenvalues --  -11.21624 -11.21529 -11.21452 -11.21242 -11.21075
 Alpha  occ. eigenvalues --   -1.59885  -1.39438  -1.19399  -1.08802  -1.08559
 Alpha  occ. eigenvalues --   -1.04806  -1.03665  -0.96105  -0.95630  -0.87128
 Alpha  occ. eigenvalues --   -0.86200  -0.82460  -0.79742  -0.78371  -0.77509
 Alpha  occ. eigenvalues --   -0.72080  -0.71208  -0.70504  -0.65192  -0.65051
 Alpha  occ. eigenvalues --   -0.64816  -0.62157  -0.61068  -0.59531  -0.57745
 Alpha  occ. eigenvalues --   -0.55416  -0.55300  -0.53430  -0.52901  -0.52590
 Alpha  occ. eigenvalues --   -0.52395  -0.50014  -0.48839  -0.48834  -0.48062
 Alpha  occ. eigenvalues --   -0.46773  -0.45915  -0.45825  -0.44842  -0.43936
 Alpha  occ. eigenvalues --   -0.37320  -0.36334
 Alpha virt. eigenvalues --    0.04992   0.11177   0.16448   0.20815   0.22842
 Alpha virt. eigenvalues --    0.24213   0.26204   0.26870   0.27319   0.28203
 Alpha virt. eigenvalues --    0.28432   0.30824   0.31243   0.31624   0.32041

 Mulliken charges:
               1
     1  C   -0.170291
     2  C   -0.217411
     3  C   -0.171295
     4  C    0.158186
     5  C   -0.170351
     6  C   -0.215935
     7  H    0.225848
     8  H    0.223777
     9  H    0.275718
    10  H    0.275342
    11  H    0.224407
    12  N    0.487930
    13  O   -0.460554
    14  O   -0.460163
    15  C   -0.298465
    16  C   -0.300098
    17  C   -0.475889
    18  H    0.150259
    19  H    0.148224
    20  H    0.154234
    21  H    0.151604
    22  H    0.154317
    23  H    0.155979
    24  H    0.160953
    25  C   -0.298608
    26  C   -0.300078
    27  C   -0.474896
    28  H    0.153307
    29  H    0.149873
    30  H    0.146785
    31  H    0.149672
    32  H    0.153259
    33  H    0.158829
    34  H    0.155535
 Sum of Mulliken charges =  -0.00000

 Dipole moment (field-independent basis, Debye):
    X=              0.0898    Y=             -5.1400    Z=              0.5222  Tot=              5.1672
 Quadrupole moment (field-independent basis, Debye-Ang):
   XX=            -94.3683   YY=            -99.9476   ZZ=            -92.3488
   XY=             15.2137   XZ=              0.5955   YZ=              0.0314

 Normal termination of Gaussian 16 at Thu May  6 19:20:59 2021.
