 Gaussian 16, Revision A.03,
 Gaussian 16:  EM64L-G16RevA.03 25-Dec-2016

 -------------
 #p 6-31g* mp2
 -------------

 ------------------------------------------------------
 Input file generated by CHIRIPA (05-May-2021 14:53:18)
 ------------------------------------------------------
 Symbolic Z-matrix:
 Charge =  0 Multiplicity = 1

                         Standard orientation:
 ---------------------------------------------------------------------
 Center     Atomic      Atomic             Coordinates (Angstroms)
 Number     Number       Type             X           Y           Z
 ---------------------------------------------------------------------
      1          6           0        2.897089    1.200739   -0.401379
      2          6           0        1.429932    1.494540   -0.716203
      3          6           0        1.111780    2.990041   -0.709026
      4          1           0        3.146993    1.625522    0.580483
      5          1           0        3.532539    1.715267   -1.135449
      6          1           0        0.797391    0.978485    0.017416
      7          1           0        1.183440    1.068841   -1.697344
      8          1           0        1.718251    3.516492   -1.453098
      9          1           0        1.330009    3.425623    0.271405
     10          1           0        0.057716    3.177345   -0.936461
     11          6           0        3.230665   -0.290047   -0.404834
     12          6           0        4.697823   -0.583849   -0.090010
     13          6           0        5.015974   -2.079349   -0.097186
     14          1           0        2.595216   -0.804575    0.329237
     15          1           0        2.980761   -0.714831   -1.386695
     16          1           0        4.944315   -0.158150    0.891131
     17          1           0        5.330363   -0.067794   -0.823629
     18          1           0        4.797746   -2.514932   -1.077617
     19          1           0        4.409504   -2.605801    0.646886
     20          1           0        6.070038   -2.266654    0.130248
     21          6           0       -3.725165   -0.841068   -1.772526
     22          6           0       -2.886758   -1.822208   -1.233120
     23          6           0       -2.144340   -1.564351   -0.076888
     24          6           0       -2.264928   -0.308819    0.516734
     25          6           0       -3.091623    0.689341    0.003370
     26          6           0       -3.824746    0.409370   -1.153650
     27          1           0       -4.298282   -1.049967   -2.671022
     28          1           0       -2.807444   -2.794212   -1.711622
     29          1           0       -1.487657   -2.305718    0.361931
     30          1           0       -3.149857    1.648839    0.502759
     31          1           0       -4.475065    1.173245   -1.570334
     32          7           0       -1.483885   -0.024132    1.741203
     33          8           0       -1.607709    1.089966    2.245277
     34          8           0       -0.762667   -0.920483    2.173681
 ---------------------------------------------------------------------

 SCF Done:  E(RHF) =  -669.535968502     A.U. after   15 cycles
 E2 =    -0.2091919182D+01 EUMP2 =    -0.67162788768380D+03

 The electronic state is 1-A.
 Alpha  occ. eigenvalues --  -20.60870 -20.60863 -15.85908 -11.31230 -11.27796
 Alpha  occ. eigenvalues --  -11.27790 -11.27534 -11.26805 -11.26795 -11.21221
 Alpha  occ. eigenvalues --  -11.21180 -11.20930 -11.20867 -11.20715 -11.20680
 Alpha  occ. eigenvalues --   -1.59946  -1.39497  -1.19399  -1.08808  -1.07983
 Alpha  occ. eigenvalues --   -1.04796  -1.03123  -0.95649  -0.95565  -0.86587
 Alpha  occ. eigenvalues --   -0.86197  -0.82481  -0.79199  -0.77808  -0.77533
 Alpha  occ. eigenvalues --   -0.72130  -0.71283  -0.70511  -0.65055  -0.64802
 Alpha  occ. eigenvalues --   -0.64590  -0.62145  -0.60503  -0.58949  -0.57191
 Alpha  occ. eigenvalues --   -0.55304  -0.54834  -0.53123  -0.52891  -0.52286
 Alpha  occ. eigenvalues --   -0.52002  -0.49496  -0.48890  -0.48889  -0.47518
 Alpha  occ. eigenvalues --   -0.46214  -0.45356  -0.45254  -0.44888  -0.43370
 Alpha  occ. eigenvalues --   -0.37370  -0.36393
 Alpha virt. eigenvalues --    0.04986   0.11239   0.16475   0.21349   0.23269
 Alpha virt. eigenvalues --    0.24560   0.26854   0.27243   0.27668   0.28305
 Alpha virt. eigenvalues --    0.28458   0.30882   0.31685   0.31874   0.32154

 Mulliken charges:
               1
     1  C   -0.297658
     2  C   -0.300792
     3  C   -0.473884
     4  H    0.154441
     5  H    0.146734
     6  H    0.153973
     7  H    0.147238
     8  H    0.152209
     9  H    0.161794
    10  H    0.154761
    11  C   -0.301295
    12  C   -0.299301
    13  C   -0.475945
    14  H    0.158591
    15  H    0.144583
    16  H    0.154307
    17  H    0.149710
    18  H    0.152216
    19  H    0.157464
    20  H    0.159204
    21  C   -0.170566
    22  C   -0.218497
    23  C   -0.170651
    24  C    0.156880
    25  C   -0.171292
    26  C   -0.218575
    27  H    0.225744
    28  H    0.223645
    29  H    0.275765
    30  H    0.275881
    31  H    0.223594
    32  N    0.489794
    33  O   -0.459251
    34  O   -0.460819
 Sum of Mulliken charges =  -0.00000

 Dipole moment (field-independent basis, Debye):
    X=             -2.8136    Y=             -1.0062    Z=             -4.1922  Tot=              5.1482
 Quadrupole moment (field-independent basis, Debye-Ang):
   XX=            -82.4185   YY=            -91.1360   ZZ=            -99.0866
   XY=              1.6218   XZ=              8.6727   YZ=              1.1952

 Normal termination of Gaussian 16 at Thu May  6 18:59:56 2021.
