 Gaussian 16, Revision A.03,
 Gaussian 16:  EM64L-G16RevA.03 25-Dec-2016

 -------------
 #p 6-31g* mp2
 -------------

 ------------------------------------------------------
 Input file generated by CHIRIPA (05-May-2021 14:57:25)
 ------------------------------------------------------
 Symbolic Z-matrix:
 Charge =  0 Multiplicity = 1

                         Standard orientation:
 ---------------------------------------------------------------------
 Center     Atomic      Atomic             Coordinates (Angstroms)
 Number     Number       Type             X           Y           Z
 ---------------------------------------------------------------------
      1          6           0       -0.845627    2.557813   -0.162986
      2          6           0       -1.404540    1.892217   -1.258941
      3          6           0       -2.240887    0.788281   -1.068158
      4          6           0       -2.498210    0.375066    0.238107
      5          6           0       -1.956415    1.017333    1.350421
      6          6           0       -1.122860    2.119021    1.135907
      7          1           0       -0.197017    3.414504   -0.320408
      8          1           0       -1.190985    2.230772   -2.268802
      9          1           0       -2.686872    0.254571   -1.898621
     10          1           0       -2.187709    0.656488    2.345264
     11          1           0       -0.690194    2.634000    1.988926
     12          7           0       -3.382135   -0.792431    0.452641
     13          8           0       -3.593293   -1.136755    1.613456
     14          8           0       -3.847061   -1.341085   -0.544083
     15          6           0        4.355784    0.444881    0.949642
     16          6           0        3.915613    0.962872   -0.272837
     17          6           0        2.806783    0.409852   -0.920305
     18          6           0        2.158861   -0.665356   -0.314158
     19          6           0        2.573274   -1.203702    0.903108
     20          6           0        3.684394   -0.634849    1.532684
     21          1           0        5.218039    0.880629    1.445661
     22          1           0        4.435081    1.801353   -0.727971
     23          1           0        2.444716    0.791223   -1.867343
     24          1           0        2.034976   -2.040081    1.332203
     25          1           0        4.024004   -1.039187    2.482011
     26          7           0        0.983780   -1.259194   -0.990133
     27          8           0        0.430238   -2.205997   -0.435343
     28          8           0        0.638545   -0.766596   -2.061953
 ---------------------------------------------------------------------

 SCF Done:  E(RHF) =  -868.337697207     A.U. after   16 cycles
 E2 =    -0.2602822520D+01 EUMP2 =    -0.87094051972716D+03

 The electronic state is 1-A.
 Alpha  occ. eigenvalues --  -20.61083 -20.61077 -20.59857 -20.59812 -15.86096
 Alpha  occ. eigenvalues --  -15.84900 -11.31525 -11.30378 -11.28145 -11.28058
 Alpha  occ. eigenvalues --  -11.27858 -11.27164 -11.27101 -11.27038 -11.26877
 Alpha  occ. eigenvalues --  -11.26843 -11.26144 -11.25989  -1.60128  -1.58897
 Alpha  occ. eigenvalues --   -1.39689  -1.38452  -1.19703  -1.18596  -1.09088
 Alpha  occ. eigenvalues --   -1.07986  -1.05121  -1.04002  -0.95917  -0.94791
 Alpha  occ. eigenvalues --   -0.86513  -0.85409  -0.82760  -0.81614  -0.77796
 Alpha  occ. eigenvalues --   -0.76619  -0.72345  -0.71472  -0.71132  -0.70816
 Alpha  occ. eigenvalues --   -0.70179  -0.69745  -0.65362  -0.65127  -0.64250
 Alpha  occ. eigenvalues --   -0.64034  -0.62469  -0.61343  -0.55620  -0.54586
 Alpha  occ. eigenvalues --   -0.53446  -0.53215  -0.52348  -0.52111  -0.49120
 Alpha  occ. eigenvalues --   -0.49068  -0.47901  -0.47861  -0.45119  -0.43836
 Alpha  occ. eigenvalues --   -0.37740  -0.36819  -0.36503  -0.35481
 Alpha virt. eigenvalues --    0.04736   0.05949   0.10914   0.12058   0.16163
 Alpha virt. eigenvalues --    0.17436   0.21002   0.22025   0.26883   0.27666
 Alpha virt. eigenvalues --    0.28260   0.28927   0.30591   0.31499   0.32194

 Mulliken charges:
               1
     1  C   -0.177096
     2  C   -0.213075
     3  C   -0.156384
     4  C    0.158073
     5  C   -0.174337
     6  C   -0.220452
     7  H    0.218429
     8  H    0.222468
     9  H    0.280721
    10  H    0.272362
    11  H    0.217785
    12  N    0.491128
    13  O   -0.465445
    14  O   -0.455870
    15  C   -0.171539
    16  C   -0.220136
    17  C   -0.171257
    18  C    0.162101
    19  C   -0.171069
    20  C   -0.219179
    21  H    0.225860
    22  H    0.221915
    23  H    0.271463
    24  H    0.278848
    25  H    0.224905
    26  N    0.488721
    27  O   -0.455072
    28  O   -0.463867
 Sum of Mulliken charges =  -0.00000

 Dipole moment (field-independent basis, Debye):
    X=              7.1899    Y=              5.8714    Z=              1.4349  Tot=              9.3929
 Quadrupole moment (field-independent basis, Debye-Ang):
   XX=           -103.7796   YY=           -103.8693   ZZ=            -99.4054
   XY=             -6.7524   XZ=              7.5966   YZ=             -4.0794

 Normal termination of Gaussian 16 at Thu May  6 11:25:20 2021.
