 Gaussian 16, Revision A.03,
 Gaussian 16:  EM64L-G16RevA.03 25-Dec-2016

 -------------
 #p 6-31g* mp2
 -------------

 ------------------------------------------------------
 Input file generated by CHIRIPA (05-May-2021 14:53:17)
 ------------------------------------------------------
 Symbolic Z-matrix:
 Charge =  0 Multiplicity = 1

                         Standard orientation:
 ---------------------------------------------------------------------
 Center     Atomic      Atomic             Coordinates (Angstroms)
 Number     Number       Type             X           Y           Z
 ---------------------------------------------------------------------
      1          6           0        2.882018    1.319987    0.143377
      2          6           0        1.567993    1.810166   -0.465761
      3          6           0        1.123245    3.160666    0.096507
      4          1           0        2.768115    1.245345    1.233514
      5          1           0        3.664565    2.069604   -0.038530
      6          1           0        0.788481    1.059216   -0.283963
      7          1           0        1.684979    1.883467   -1.554594
      8          1           0        1.880449    3.927118   -0.097900
      9          1           0        0.978857    3.098184    1.179950
     10          1           0        0.181852    3.492171   -0.352651
     11          6           0        3.339710   -0.028885   -0.408702
     12          6           0        4.653735   -0.519064    0.200435
     13          6           0        5.098483   -1.869563   -0.361833
     14          1           0        2.557163   -0.778501   -0.226796
     15          1           0        3.453614    0.045758   -1.498840
     16          1           0        4.536750   -0.592365    1.289268
     17          1           0        5.433247    0.231886    0.018637
     18          1           0        5.242871   -1.807082   -1.445276
     19          1           0        4.341280   -2.636016   -0.167426
     20          1           0        6.039877   -2.201068    0.087325
     21          6           0       -3.430316    1.802730   -0.104824
     22          6           0       -2.259644    1.611577    0.636465
     23          6           0       -1.696734    0.337713    0.758746
     24          6           0       -2.333691   -0.727376    0.123797
     25          6           0       -3.500928   -0.569016   -0.621703
     26          6           0       -4.046136    0.713744   -0.730439
     27          1           0       -3.860722    2.795753   -0.194553
     28          1           0       -1.779226    2.455458    1.123402
     29          1           0       -0.791204    0.161412    1.326506
     30          1           0       -3.957028   -1.429629   -1.095769
     31          1           0       -4.955376    0.859228   -1.306774
     32          7           0       -1.747133   -2.080667    0.246080
     33          8           0       -2.327547   -3.002642   -0.322882
     34          8           0       -0.718082   -2.193777    0.908573
 ---------------------------------------------------------------------

 SCF Done:  E(RHF) =  -669.534607711     A.U. after   15 cycles
 E2 =    -0.2093655816D+01 EUMP2 =    -0.67162826352695D+03

 The electronic state is 1-A.
 Alpha  occ. eigenvalues --  -20.60856 -20.60848 -15.85902 -11.31240 -11.27795
 Alpha  occ. eigenvalues --  -11.27786 -11.27524 -11.26808 -11.26757 -11.21843
 Alpha  occ. eigenvalues --  -11.21713 -11.21444 -11.21314 -11.21111 -11.20665
 Alpha  occ. eigenvalues --   -1.59924  -1.39479  -1.19412  -1.08805  -1.08412
 Alpha  occ. eigenvalues --   -1.04820  -1.03558  -0.96032  -0.95649  -0.87065
 Alpha  occ. eigenvalues --   -0.86196  -0.82479  -0.79656  -0.78157  -0.77531
 Alpha  occ. eigenvalues --   -0.72121  -0.71244  -0.70533  -0.65145  -0.65006
 Alpha  occ. eigenvalues --   -0.64804  -0.62254  -0.60888  -0.59443  -0.57611
 Alpha  occ. eigenvalues --   -0.55397  -0.55232  -0.53142  -0.53018  -0.52663
 Alpha  occ. eigenvalues --   -0.52404  -0.49948  -0.48878  -0.48872  -0.47945
 Alpha  occ. eigenvalues --   -0.46679  -0.45715  -0.45587  -0.44864  -0.43785
 Alpha  occ. eigenvalues --   -0.37379  -0.36330
 Alpha virt. eigenvalues --    0.04963   0.11125   0.16417   0.20049   0.23106
 Alpha virt. eigenvalues --    0.24247   0.26254   0.26593   0.27642   0.28433
 Alpha virt. eigenvalues --    0.29375   0.30991   0.31140   0.31685   0.32238

 Mulliken charges:
               1
     1  C   -0.297853
     2  C   -0.305705
     3  C   -0.479298
     4  H    0.147706
     5  H    0.149079
     6  H    0.155451
     7  H    0.154812
     8  H    0.159914
     9  H    0.147787
    10  H    0.156174
    11  C   -0.302594
    12  C   -0.299321
    13  C   -0.476982
    14  H    0.161574
    15  H    0.148652
    16  H    0.152612
    17  H    0.149365
    18  H    0.153926
    19  H    0.161812
    20  H    0.159124
    21  C   -0.172214
    22  C   -0.217049
    23  C   -0.172888
    24  C    0.158271
    25  C   -0.171195
    26  C   -0.218033
    27  H    0.225922
    28  H    0.228591
    29  H    0.276032
    30  H    0.275671
    31  H    0.223599
    32  N    0.488770
    33  O   -0.459533
    34  O   -0.462180
 Sum of Mulliken charges =  -0.00000

 Dipole moment (field-independent basis, Debye):
    X=             -2.0834    Y=              4.6491    Z=             -0.4777  Tot=              5.1169
 Quadrupole moment (field-independent basis, Debye-Ang):
   XX=            -82.5675   YY=           -102.4232   ZZ=            -93.4796
   XY=             -7.7747   XZ=              2.9289   YZ=              1.3699

 Normal termination of Gaussian 16 at Wed May  5 17:14:25 2021.
