 Gaussian 16, Revision A.03,
 Gaussian 16:  EM64L-G16RevA.03 25-Dec-2016

 -------------
 #p 6-31g* mp2
 -------------

 ------------------------------------------------------
 Input file generated by CHIRIPA (05-May-2021 14:51:12)
 ------------------------------------------------------
 Symbolic Z-matrix:
 Charge =  0 Multiplicity = 1

                         Standard orientation:
 ---------------------------------------------------------------------
 Center     Atomic      Atomic             Coordinates (Angstroms)
 Number     Number       Type             X           Y           Z
 ---------------------------------------------------------------------
      1          6           0        3.237930   -0.599385   -0.550989
      2          6           0        2.068167   -1.503408   -0.160628
      3          6           0        2.053286   -2.819795   -0.938250
      4          1           0        3.187588   -0.389970   -1.628280
      5          1           0        4.180754   -1.137479   -0.380893
      6          1           0        1.127879   -0.963267   -0.330106
      7          1           0        2.121190   -1.710538    0.915895
      8          1           0        2.975520   -3.382476   -0.760835
      9          1           0        1.976564   -2.630959   -2.013915
     10          1           0        1.208917   -3.450678   -0.643482
     11          6           0        3.266411    0.720401    0.217829
     12          6           0        4.436174    1.624424   -0.172531
     13          6           0        4.451055    2.940812    0.605090
     14          1           0        2.323586    1.258495    0.047734
     15          1           0        3.316752    0.510987    1.295121
     16          1           0        4.383150    1.831555   -1.249054
     17          1           0        5.376462    1.084284   -0.003054
     18          1           0        4.527776    2.751976    1.680756
     19          1           0        3.528821    3.503492    0.427676
     20          1           0        5.295424    3.571695    0.310323
     21          6           0       -3.740390    0.283129   -0.309851
     22          6           0       -4.185963    1.664527    0.170972
     23          6           0       -5.162515    2.339322   -0.792765
     24          1           0       -3.273412    0.379414   -1.299601
     25          1           0       -4.625494   -0.354355   -0.442524
     26          1           0       -3.300172    2.298787    0.304025
     27          1           0       -4.651764    1.564967    1.159776
     28          1           0       -6.063285    1.729787   -0.917990
     29          1           0       -4.704014    2.467776   -1.778604
     30          1           0       -5.468021    3.325542   -0.429590
     31          6           0       -2.763950   -0.404145    0.643010
     32          6           0       -2.318377   -1.785543    0.162187
     33          6           0       -1.341825   -2.460340    1.125925
     34          1           0       -1.878847    0.233338    0.775684
     35          1           0       -3.230929   -0.500431    1.632761
     36          1           0       -1.852577   -1.685984   -0.826617
     37          1           0       -3.204169   -2.419804    0.029134
     38          1           0       -1.800327   -2.588793    2.111763
     39          1           0       -0.441056   -1.850804    1.251150
     40          1           0       -1.036319   -3.446559    0.762750
 ---------------------------------------------------------------------

 SCF Done:  E(RHF) =  -470.732370836     A.U. after   11 cycles
 E2 =    -0.1583718016D+01 EUMP2 =    -0.47231608885172D+03

 The electronic state is 1-A.
 Alpha  occ. eigenvalues --  -11.21628 -11.21623 -11.21606 -11.21577 -11.21433
 Alpha  occ. eigenvalues --  -11.21405 -11.21371 -11.21345 -11.21093 -11.21077
 Alpha  occ. eigenvalues --  -11.21050 -11.20932  -1.08475  -1.08410  -1.03610
 Alpha  occ. eigenvalues --   -1.03458  -0.96061  -0.95896  -0.87020  -0.86973
 Alpha  occ. eigenvalues --   -0.79703  -0.79518  -0.78313  -0.78205  -0.65151
 Alpha  occ. eigenvalues --   -0.65008  -0.61095  -0.60844  -0.59490  -0.59210
 Alpha  occ. eigenvalues --   -0.57652  -0.57563  -0.55303  -0.55161  -0.52837
 Alpha  occ. eigenvalues --   -0.52581  -0.52442  -0.52275  -0.49946  -0.49902
 Alpha  occ. eigenvalues --   -0.48129  -0.47702  -0.46658  -0.46619  -0.45898
 Alpha  occ. eigenvalues --   -0.45760  -0.45730  -0.45544  -0.43863  -0.43698
 Alpha virt. eigenvalues --    0.20745   0.23180   0.23398   0.25141   0.25927
 Alpha virt. eigenvalues --    0.26417   0.26916   0.27420   0.28226   0.29098
 Alpha virt. eigenvalues --    0.29916   0.30938   0.31276   0.31846   0.32647

 Mulliken charges:
               1
     1  C   -0.297431
     2  C   -0.302807
     3  C   -0.478930
     4  H    0.149517
     5  H    0.149695
     6  H    0.153576
     7  H    0.152827
     8  H    0.155128
     9  H    0.154654
    10  H    0.164800
    11  C   -0.298342
    12  C   -0.299626
    13  C   -0.475718
    14  H    0.148740
    15  H    0.149712
    16  H    0.151966
    17  H    0.152116
    18  H    0.155279
    19  H    0.155072
    20  H    0.160374
    21  C   -0.298214
    22  C   -0.299621
    23  C   -0.475692
    24  H    0.149311
    25  H    0.149659
    26  H    0.151760
    27  H    0.152049
    28  H    0.155240
    29  H    0.155065
    30  H    0.160273
    31  C   -0.298858
    32  C   -0.300821
    33  C   -0.482776
    34  H    0.149311
    35  H    0.149934
    36  H    0.152020
    37  H    0.151909
    38  H    0.154239
    39  H    0.165017
    40  H    0.159589
 Sum of Mulliken charges =  -0.00000

 Dipole moment (field-independent basis, Debye):
    X=              0.0292    Y=             -0.0045    Z=              0.0094  Tot=              0.0310
 Quadrupole moment (field-independent basis, Debye-Ang):
   XX=            -84.3977   YY=            -85.8249   ZZ=            -84.6189
   XY=              0.3032   XZ=             -0.4241   YZ=             -0.6361

 Normal termination of Gaussian 16 at Wed May  5 23:09:38 2021.
