 Gaussian 16, Revision A.03,
 Gaussian 16:  EM64L-G16RevA.03 25-Dec-2016

 -------------
 #p 6-31g* mp2
 -------------

 ------------------------------------------------------
 Input file generated by CHIRIPA (05-May-2021 14:53:12)
 ------------------------------------------------------
 Symbolic Z-matrix:
 Charge =  0 Multiplicity = 1

                         Standard orientation:
 ---------------------------------------------------------------------
 Center     Atomic      Atomic             Coordinates (Angstroms)
 Number     Number       Type             X           Y           Z
 ---------------------------------------------------------------------
      1          6           0       -4.464286   -0.290490   -0.294609
      2          6           0       -5.441202   -1.207412    0.442192
      3          6           0       -6.185567   -2.155786   -0.498180
      4          1           0       -5.014264    0.292666   -1.045874
      5          1           0       -3.739474   -0.905641   -0.845637
      6          1           0       -6.163112   -0.590716    0.992781
      7          1           0       -4.888866   -1.788314    1.191921
      8          1           0       -5.479874   -2.795323   -1.038172
      9          1           0       -6.761360   -1.590920   -1.238444
     10          1           0       -6.878579   -2.802093    0.049434
     11          6           0       -3.712552    0.663439    0.632021
     12          6           0       -2.735637    1.580360   -0.104781
     13          6           0       -1.991271    2.528734    0.835592
     14          1           0       -4.437364    1.278590    1.183049
     15          1           0       -3.162575    0.080283    1.383286
     16          1           0       -3.287973    2.161262   -0.854510
     17          1           0       -2.013727    0.963664   -0.655370
     18          1           0       -1.415478    1.963868    1.575856
     19          1           0       -2.696964    3.168271    1.375584
     20          1           0       -1.298259    3.175041    0.287978
     21          6           0        5.270092   -1.447036    0.470333
     22          6           0        5.350178   -0.070282    0.236544
     23          6           0        4.206390    0.660843   -0.097749
     24          6           0        2.993376   -0.019873   -0.190014
     25          6           0        2.881282   -1.390702    0.037037
     26          6           0        4.038072   -2.101698    0.370009
     27          1           0        6.163665   -2.007174    0.729506
     28          1           0        6.305642    0.440769    0.313746
     29          1           0        4.239887    1.727442   -0.283926
     30          1           0        1.914718   -1.872407   -0.047416
     31          1           0        3.972888   -3.170823    0.551028
     32          7           0        1.775616    0.743482   -0.543216
     33          8           0        0.718862    0.120353   -0.618173
     34          8           0        1.900950    1.950473   -0.738412
 ---------------------------------------------------------------------

 SCF Done:  E(RHF) =  -669.536496274     A.U. after   15 cycles
 E2 =    -0.2091403533D+01 EUMP2 =    -0.67162789980720D+03

 The electronic state is 1-A.
 Alpha  occ. eigenvalues --  -20.61040 -20.61032 -15.86058 -11.31352 -11.27910
 Alpha  occ. eigenvalues --  -11.27904 -11.27640 -11.26909 -11.26899 -11.20856
 Alpha  occ. eigenvalues --  -11.20477 -11.20384 -11.20131 -11.19800 -11.19399
 Alpha  occ. eigenvalues --   -1.60083  -1.39643  -1.19514  -1.08924  -1.07285
 Alpha  occ. eigenvalues --   -1.04906  -1.02319  -0.95771  -0.94815  -0.86308
 Alpha  occ. eigenvalues --   -0.85848  -0.82607  -0.78455  -0.77662  -0.77017
 Alpha  occ. eigenvalues --   -0.72280  -0.71393  -0.70623  -0.65172  -0.64910
 Alpha  occ. eigenvalues --   -0.63917  -0.62254  -0.59709  -0.58244  -0.56385
 Alpha  occ. eigenvalues --   -0.55409  -0.54129  -0.53238  -0.52997  -0.51510
 Alpha  occ. eigenvalues --   -0.51247  -0.49048  -0.49015  -0.48801  -0.46750
 Alpha  occ. eigenvalues --   -0.45491  -0.45062  -0.44593  -0.44363  -0.42583
 Alpha  occ. eigenvalues --   -0.37491  -0.36505
 Alpha virt. eigenvalues --    0.04864   0.11150   0.16368   0.21281   0.23916
 Alpha virt. eigenvalues --    0.25549   0.27208   0.27716   0.28183   0.28688
 Alpha virt. eigenvalues --    0.29103   0.30868   0.32329   0.32531   0.32825

 Mulliken charges:
               1
     1  C   -0.297734
     2  C   -0.298494
     3  C   -0.474922
     4  H    0.147716
     5  H    0.151042
     6  H    0.150197
     7  H    0.149589
     8  H    0.153954
     9  H    0.154479
    10  H    0.157202
    11  C   -0.296794
    12  C   -0.308074
    13  C   -0.472530
    14  H    0.143851
    15  H    0.146792
    16  H    0.144165
    17  H    0.179284
    18  H    0.150946
    19  H    0.144183
    20  H    0.169591
    21  C   -0.170473
    22  C   -0.218592
    23  C   -0.170397
    24  C    0.157731
    25  C   -0.170775
    26  C   -0.218530
    27  H    0.226213
    28  H    0.224047
    29  H    0.276059
    30  H    0.275540
    31  H    0.223992
    32  N    0.490852
    33  O   -0.461602
    34  O   -0.458505
 Sum of Mulliken charges =  -0.00000

 Dipole moment (field-independent basis, Debye):
    X=              4.7358    Y=             -2.6998    Z=              1.1201  Tot=              5.5652
 Quadrupole moment (field-independent basis, Debye-Ang):
   XX=            -69.2704   YY=            -91.6923   ZZ=            -96.6354
   XY=             -6.5656   XZ=              2.9460   YZ=             -0.5555

 Normal termination of Gaussian 16 at Thu May  6 11:59:22 2021.
