 Gaussian 16, Revision A.03,
 Gaussian 16:  EM64L-G16RevA.03 25-Dec-2016

 -------------
 #p 6-31g* mp2
 -------------

 ------------------------------------------------------
 Input file generated by CHIRIPA (05-May-2021 14:55:21)
 ------------------------------------------------------
 Symbolic Z-matrix:
 Charge =  0 Multiplicity = 1

                         Standard orientation:
 ---------------------------------------------------------------------
 Center     Atomic      Atomic             Coordinates (Angstroms)
 Number     Number       Type             X           Y           Z
 ---------------------------------------------------------------------
      1          6           0       -0.131208   -2.400954    0.376175
      2          6           0        0.411823   -1.722592    1.472287
      3          6           0        1.492312   -0.851526    1.303960
      4          6           0        2.007317   -0.681664    0.019745
      5          6           0        1.488225   -1.343177   -1.092116
      6          6           0        0.407776   -2.209419   -0.900278
      7          1           0       -0.970542   -3.075746    0.516067
      8          1           0       -0.004724   -1.869401    2.464749
      9          1           0        1.932071   -0.313692    2.135083
     10          1           0        1.924899   -1.176393   -2.069314
     11          1           0       -0.011919   -2.734916   -1.753363
     12          7           0        3.151161    0.237941   -0.170900
     13          8           0        3.586782    0.370335   -1.312541
     14          8           0        3.590428    0.808922    0.824923
     15          6           0       -2.171045    1.812968   -0.025391
     16          6           0       -0.672740    2.116817    0.001903
     17          6           0       -0.374605    3.614302    0.082224
     18          1           0       -2.627101    2.325617   -0.883383
     19          1           0       -2.639797    2.233313    0.875151
     20          1           0       -0.206724    1.694824   -0.897745
     21          1           0       -0.220165    1.603230    0.859819
     22          1           0       -0.813005    4.046360    0.987614
     23          1           0       -0.799486    4.138475   -0.779936
     24          1           0        0.702280    3.808828    0.100598
     25          6           0       -2.485078    0.320092   -0.105593
     26          6           0       -3.983383    0.016243   -0.132888
     27          6           0       -4.281518   -1.481241   -0.213209
     28          1           0       -2.016325   -0.100253   -1.006136
     29          1           0       -2.029023   -0.192557    0.752397
     30          1           0       -4.435957    0.529831   -0.990804
     31          1           0       -4.449399    0.438236    0.766759
     32          1           0       -3.856636   -2.005415    0.648950
     33          1           0       -3.843117   -1.913300   -1.118599
     34          1           0       -5.358402   -1.675768   -0.231583
 ---------------------------------------------------------------------

 SCF Done:  E(RHF) =  -669.533528155     A.U. after   15 cycles
 E2 =    -0.2096440925D+01 EUMP2 =    -0.67162996907974D+03

 The electronic state is 1-A.
 Alpha  occ. eigenvalues --  -20.60797 -20.60790 -15.85850 -11.31201 -11.27814
 Alpha  occ. eigenvalues --  -11.27797 -11.27518 -11.26792 -11.26781 -11.22030
 Alpha  occ. eigenvalues --  -11.21834 -11.21550 -11.21510 -11.21443 -11.20832
 Alpha  occ. eigenvalues --   -1.59871  -1.39425  -1.19407  -1.08817  -1.08606
 Alpha  occ. eigenvalues --   -1.04822  -1.03745  -0.96199  -0.95627  -0.87221
 Alpha  occ. eigenvalues --   -0.86215  -0.82465  -0.79831  -0.78439  -0.77509
 Alpha  occ. eigenvalues --   -0.72071  -0.71189  -0.70512  -0.65295  -0.65048
 Alpha  occ. eigenvalues --   -0.64822  -0.62167  -0.61158  -0.59601  -0.57808
 Alpha  occ. eigenvalues --   -0.55522  -0.55297  -0.53402  -0.52909  -0.52755
 Alpha  occ. eigenvalues --   -0.52616  -0.50176  -0.48829  -0.48825  -0.48192
 Alpha  occ. eigenvalues --   -0.46876  -0.45940  -0.45779  -0.44823  -0.43950
 Alpha  occ. eigenvalues --   -0.37213  -0.36339
 Alpha virt. eigenvalues --    0.04994   0.11032   0.16417   0.20348   0.23063
 Alpha virt. eigenvalues --    0.23918   0.25788   0.26560   0.27296   0.27919
 Alpha virt. eigenvalues --    0.28968   0.30171   0.31349   0.31596   0.32230

 Mulliken charges:
               1
     1  C   -0.164826
     2  C   -0.220231
     3  C   -0.172312
     4  C    0.165025
     5  C   -0.172267
     6  C   -0.218090
     7  H    0.228142
     8  H    0.223164
     9  H    0.275569
    10  H    0.275630
    11  H    0.223429
    12  N    0.487795
    13  O   -0.460771
    14  O   -0.460876
    15  C   -0.298259
    16  C   -0.302961
    17  C   -0.476843
    18  H    0.149517
    19  H    0.148103
    20  H    0.151752
    21  H    0.151942
    22  H    0.153248
    23  H    0.154437
    24  H    0.168311
    25  C   -0.300083
    26  C   -0.299146
    27  C   -0.475180
    28  H    0.148507
    29  H    0.149699
    30  H    0.153630
    31  H    0.152432
    32  H    0.146885
    33  H    0.151111
    34  H    0.163515
 Sum of Mulliken charges =  -0.00000

 Dipole moment (field-independent basis, Debye):
    X=             -3.9240    Y=             -3.2334    Z=              0.6592  Tot=              5.1271
 Quadrupole moment (field-independent basis, Debye-Ang):
   XX=           -112.1887   YY=            -91.8594   ZZ=            -88.9576
   XY=             -4.1407   XZ=              1.3030   YZ=              0.4781

 Normal termination of Gaussian 16 at Thu May  6 20:45:12 2021.
