 Gaussian 16, Revision A.03,
 Gaussian 16:  EM64L-G16RevA.03 25-Dec-2016

 -------------
 #p 6-31g* mp2
 -------------

 ------------------------------------------------------
 Input file generated by CHIRIPA (05-May-2021 14:51:11)
 ------------------------------------------------------
 Symbolic Z-matrix:
 Charge =  0 Multiplicity = 1

                         Standard orientation:
 ---------------------------------------------------------------------
 Center     Atomic      Atomic             Coordinates (Angstroms)
 Number     Number       Type             X           Y           Z
 ---------------------------------------------------------------------
      1          6           0        2.773046    0.852837    0.217436
      2          6           0        3.748062    2.008734   -0.008904
      3          6           0        3.353895    3.272892    0.755513
      4          1           0        1.764982    1.167115   -0.085851
      5          1           0        2.721180    0.631234    1.292423
      6          1           0        3.799122    2.227178   -1.083283
      7          1           0        4.753956    1.691605    0.294778
      8          1           0        3.321614    3.077657    1.832287
      9          1           0        2.361355    3.616273    0.446395
     10          1           0        4.064441    4.086505    0.579394
     11          6           0        3.153661   -0.417949   -0.540167
     12          6           0        2.178644   -1.573846   -0.313827
     13          6           0        2.572811   -2.838003   -1.078244
     14          1           0        3.205526   -0.196346   -1.615154
     15          1           0        4.161724   -0.732226   -0.236880
     16          1           0        1.172751   -1.256716   -0.617509
     17          1           0        2.127584   -1.792290    0.760552
     18          1           0        3.565352   -3.181385   -0.769126
     19          1           0        2.605093   -2.642768   -2.155017
     20          1           0        1.862266   -3.651617   -0.902125
     21          6           0       -2.633990   -0.891811    0.019307
     22          6           0       -1.916423   -1.483788    1.232833
     23          6           0       -1.262524   -2.832953    0.932888
     24          1           0       -3.396903   -1.601149   -0.329619
     25          1           0       -1.914572   -0.776842   -0.803259
     26          1           0       -2.636677   -1.596317    2.053313
     27          1           0       -1.155260   -0.772877    1.579027
     28          1           0       -0.523139   -2.733053    0.131682
     29          1           0       -2.012974   -3.561172    0.608662
     30          1           0       -0.755270   -3.237982    1.814083
     31          6           0       -3.292717    0.456923    0.303424
     32          6           0       -4.010283    1.048900   -0.910102
     33          6           0       -4.664182    2.398064   -0.610157
     34          1           0       -4.012135    0.341955    1.125990
     35          1           0       -2.529804    1.166260    0.652349
     36          1           0       -4.771447    0.337988   -1.256296
     37          1           0       -3.290029    1.161430   -1.730582
     38          1           0       -3.913732    3.126284   -0.285932
     39          1           0       -5.403567    2.298165    0.191048
     40          1           0       -5.171436    2.803094   -1.491351
 ---------------------------------------------------------------------

 SCF Done:  E(RHF) =  -470.732851144     A.U. after   11 cycles
 E2 =    -0.1583522285D+01 EUMP2 =    -0.47231637342871D+03

 The electronic state is 1-A.
 Alpha  occ. eigenvalues --  -11.21642 -11.21637 -11.21608 -11.21552 -11.21452
 Alpha  occ. eigenvalues --  -11.21403 -11.21391 -11.21344 -11.21108 -11.21102
 Alpha  occ. eigenvalues --  -11.21076 -11.20948  -1.08487  -1.08409  -1.03608
 Alpha  occ. eigenvalues --   -1.03474  -0.96049  -0.95927  -0.87035  -0.86972
 Alpha  occ. eigenvalues --   -0.79688  -0.79530  -0.78312  -0.78217  -0.65166
 Alpha  occ. eigenvalues --   -0.65003  -0.61085  -0.60853  -0.59383  -0.59320
 Alpha  occ. eigenvalues --   -0.57732  -0.57500  -0.55326  -0.55180  -0.52729
 Alpha  occ. eigenvalues --   -0.52638  -0.52479  -0.52326  -0.49972  -0.49881
 Alpha  occ. eigenvalues --   -0.48004  -0.47838  -0.46748  -0.46531  -0.45923
 Alpha  occ. eigenvalues --   -0.45780  -0.45717  -0.45555  -0.43828  -0.43762
 Alpha virt. eigenvalues --    0.20625   0.23296   0.23354   0.24777   0.25758
 Alpha virt. eigenvalues --    0.26441   0.26609   0.27656   0.28774   0.29085
 Alpha virt. eigenvalues --    0.30524   0.30910   0.31525   0.31909   0.32170

 Mulliken charges:
               1
     1  C   -0.298385
     2  C   -0.299661
     3  C   -0.475719
     4  H    0.148880
     5  H    0.149613
     6  H    0.152026
     7  H    0.152187
     8  H    0.155287
     9  H    0.154971
    10  H    0.160469
    11  C   -0.297744
    12  C   -0.303122
    13  C   -0.478811
    14  H    0.149477
    15  H    0.149884
    16  H    0.152964
    17  H    0.154099
    18  H    0.155809
    19  H    0.155188
    20  H    0.162801
    21  C   -0.299433
    22  C   -0.300139
    23  C   -0.481984
    24  H    0.149826
    25  H    0.149012
    26  H    0.151763
    27  H    0.152978
    28  H    0.164665
    29  H    0.153970
    30  H    0.159164
    31  C   -0.298295
    32  C   -0.299600
    33  C   -0.475690
    34  H    0.149719
    35  H    0.149647
    36  H    0.152016
    37  H    0.151529
    38  H    0.155126
    39  H    0.155286
    40  H    0.160227
 Sum of Mulliken charges =  -0.00000

 Dipole moment (field-independent basis, Debye):
    X=              0.0387    Y=             -0.0063    Z=              0.0018  Tot=              0.0393
 Quadrupole moment (field-independent basis, Debye-Ang):
   XX=            -83.9927   YY=            -86.4188   ZZ=            -84.3364
   XY=              0.8186   XZ=              0.3485   YZ=             -0.8946

 Normal termination of Gaussian 16 at Thu May  6 02:16:22 2021.
