 Gaussian 16, Revision A.03,
 Gaussian 16:  EM64L-G16RevA.03 25-Dec-2016

 -------------
 #p 6-31g* mp2
 -------------

 ------------------------------------------------------
 Input file generated by CHIRIPA (05-May-2021 14:53:14)
 ------------------------------------------------------
 Symbolic Z-matrix:
 Charge =  0 Multiplicity = 1

                         Standard orientation:
 ---------------------------------------------------------------------
 Center     Atomic      Atomic             Coordinates (Angstroms)
 Number     Number       Type             X           Y           Z
 ---------------------------------------------------------------------
      1          6           0       -2.709524   -0.900325   -0.276826
      2          6           0       -1.664192   -1.237748    0.786853
      3          6           0       -0.443778   -1.955488    0.209591
      4          1           0       -3.028464   -1.826075   -0.775032
      5          1           0       -2.245871   -0.272763   -1.050510
      6          1           0       -2.130039   -1.863342    1.559015
      7          1           0       -1.347844   -0.311108    1.282715
      8          1           0        0.046909   -1.333848   -0.546313
      9          1           0       -0.739730   -2.894901   -0.268442
     10          1           0        0.290730   -2.187203    0.987195
     11          6           0       -3.935513   -0.182551    0.284849
     12          6           0       -4.980844    0.154872   -0.778830
     13          6           0       -6.201259    0.872612   -0.201569
     14          1           0       -4.399166   -0.810113    1.058532
     15          1           0       -3.616572    0.743200    0.783054
     16          1           0       -5.297193   -0.771768   -1.274692
     17          1           0       -4.514997    0.780466   -1.550993
     18          1           0       -5.905307    1.812025    0.276465
     19          1           0       -6.691946    0.250972    0.554335
     20          1           0       -6.935766    1.104327   -0.979173
     21          6           0        1.720129    2.759566    0.370659
     22          6           0        1.668972    1.819087    1.404778
     23          6           0        2.151209    0.521534    1.208940
     24          6           0        2.680366    0.197107   -0.039271
     25          6           0        2.745195    1.111774   -1.089258
     26          6           0        2.257130    2.403535   -0.870870
     27          1           0        1.343252    3.765287    0.531549
     28          1           0        1.252474    2.092783    2.370006
     29          1           0        2.123835   -0.226280    1.992167
     30          1           0        3.166103    0.809415   -2.040485
     31          1           0        2.298140    3.131856   -1.675800
     32          7           0        3.193974   -1.173488   -0.258532
     33          8           0        3.655331   -1.434381   -1.367459
     34          8           0        3.125455   -1.960915    0.682691
 ---------------------------------------------------------------------

 SCF Done:  E(RHF) =  -669.535270480     A.U. after   15 cycles
 E2 =    -0.2093573050D+01 EUMP2 =    -0.67162884352978D+03

 The electronic state is 1-A.
 Alpha  occ. eigenvalues --  -20.60844 -20.60834 -15.85863 -11.31220 -11.27814
 Alpha  occ. eigenvalues --  -11.27807 -11.27558 -11.26833 -11.26820 -11.21698
 Alpha  occ. eigenvalues --  -11.21507 -11.21460 -11.21333 -11.21202 -11.20650
 Alpha  occ. eigenvalues --   -1.59895  -1.39454  -1.19418  -1.08810  -1.08434
 Alpha  occ. eigenvalues --   -1.04823  -1.03492  -0.95931  -0.95640  -0.86946
 Alpha  occ. eigenvalues --   -0.86212  -0.82481  -0.79572  -0.78256  -0.77527
 Alpha  occ. eigenvalues --   -0.72101  -0.71216  -0.70526  -0.65077  -0.65069
 Alpha  occ. eigenvalues --   -0.64826  -0.62180  -0.60909  -0.59289  -0.57538
 Alpha  occ. eigenvalues --   -0.55351  -0.55249  -0.53108  -0.52927  -0.52572
 Alpha  occ. eigenvalues --   -0.52336  -0.49867  -0.48862  -0.48853  -0.47868
 Alpha  occ. eigenvalues --   -0.46628  -0.45788  -0.45732  -0.44896  -0.43632
 Alpha  occ. eigenvalues --   -0.37359  -0.36406
 Alpha virt. eigenvalues --    0.04966   0.11196   0.16430   0.21164   0.22832
 Alpha virt. eigenvalues --    0.24210   0.26504   0.26896   0.27488   0.27745
 Alpha virt. eigenvalues --    0.28523   0.30456   0.31196   0.31639   0.31888

 Mulliken charges:
               1
     1  C   -0.297744
     2  C   -0.300427
     3  C   -0.482801
     4  H    0.151422
     5  H    0.148662
     6  H    0.151656
     7  H    0.144562
     8  H    0.150287
     9  H    0.158186
    10  H    0.172637
    11  C   -0.297539
    12  C   -0.299447
    13  C   -0.475470
    14  H    0.149862
    15  H    0.145992
    16  H    0.153250
    17  H    0.150792
    18  H    0.153352
    19  H    0.155694
    20  H    0.160384
    21  C   -0.170977
    22  C   -0.219562
    23  C   -0.167105
    24  C    0.158562
    25  C   -0.172531
    26  C   -0.218556
    27  H    0.225790
    28  H    0.223873
    29  H    0.275430
    30  H    0.275927
    31  H    0.223628
    32  N    0.491299
    33  O   -0.459625
    34  O   -0.459463
 Sum of Mulliken charges =  -0.00000

 Dipole moment (field-independent basis, Debye):
    X=             -1.6845    Y=              4.7539    Z=              0.7623  Tot=              5.1008
 Quadrupole moment (field-independent basis, Debye-Ang):
   XX=           -105.7682   YY=            -92.3707   ZZ=            -90.5687
   XY=             13.9568   XZ=              1.0839   YZ=             -1.6509

 Normal termination of Gaussian 16 at Thu May  6 13:45:10 2021.
