 Gaussian 16, Revision A.03,
 Gaussian 16:  EM64L-G16RevA.03 25-Dec-2016

 -------------
 #p 6-31g* mp2
 -------------

 ------------------------------------------------------
 Input file generated by CHIRIPA (05-May-2021 14:51:13)
 ------------------------------------------------------
 Symbolic Z-matrix:
 Charge =  0 Multiplicity = 1

                         Standard orientation:
 ---------------------------------------------------------------------
 Center     Atomic      Atomic             Coordinates (Angstroms)
 Number     Number       Type             X           Y           Z
 ---------------------------------------------------------------------
      1          6           0       -2.735972    0.777588   -0.268921
      2          6           0       -3.214055    2.224263   -0.140262
      3          6           0       -2.059510    3.223125   -0.056027
      4          1           0       -2.097993    0.531113    0.590833
      5          1           0       -2.104371    0.685655   -1.163361
      6          1           0       -3.845696    2.313134    0.752905
      7          1           0       -3.851126    2.467262   -1.000325
      8          1           0       -1.432606    3.163728   -0.951607
      9          1           0       -1.427146    3.008725    0.811584
     10          1           0       -2.423875    4.251097    0.035472
     11          6           0       -3.878633   -0.232750   -0.354202
     12          6           0       -3.400550   -1.679425   -0.482861
     13          6           0       -4.555095   -2.678287   -0.567096
     14          1           0       -4.510234   -0.140816    0.540238
     15          1           0       -4.516612    0.013725   -1.213956
     16          1           0       -2.763479   -1.922424    0.377202
     17          1           0       -2.768909   -1.768296   -1.376028
     18          1           0       -5.187459   -2.463886   -1.434707
     19          1           0       -5.181999   -2.618890    0.328484
     20          1           0       -4.190730   -3.706259   -0.658595
     21          6           0        4.069834   -0.273522    0.267102
     22          6           0        4.594747   -0.058741   -1.152870
     23          6           0        6.121995   -0.063486   -1.225580
     24          1           0        4.471980    0.511163    0.922458
     25          1           0        4.453183   -1.228793    0.651676
     26          1           0        4.209399    0.895184   -1.535165
     27          1           0        4.191152   -0.843918   -1.804962
     28          1           0        6.521651   -1.018543   -0.869572
     29          1           0        6.540002    0.730441   -0.598242
     30          1           0        6.475644    0.091674   -2.249648
     31          6           0        2.544771   -0.271315    0.356022
     32          6           0        2.019857   -0.486097    1.775993
     33          6           0        0.492610   -0.481353    1.848702
     34          1           0        2.161422    0.683954   -0.028552
     35          1           0        2.142625   -1.056002   -0.299336
     36          1           0        2.423453    0.299079    2.428085
     37          1           0        2.405206   -1.440023    2.158287
     38          1           0        0.074604   -1.275278    1.221364
     39          1           0        0.092954    0.473705    1.492696
     40          1           0        0.138961   -0.636512    2.872772
 ---------------------------------------------------------------------

 SCF Done:  E(RHF) =  -470.732958281     A.U. after   11 cycles
 E2 =    -0.1583220431D+01 EUMP2 =    -0.47231617871237D+03

 The electronic state is 1-A.
 Alpha  occ. eigenvalues --  -11.21606 -11.21597 -11.21558 -11.21557 -11.21396
 Alpha  occ. eigenvalues --  -11.21337 -11.21322 -11.21225 -11.21086 -11.21075
 Alpha  occ. eigenvalues --  -11.21067 -11.21042  -1.08431  -1.08366  -1.03537
 Alpha  occ. eigenvalues --   -1.03492  -0.96001  -0.95930  -0.87027  -0.86946
 Alpha  occ. eigenvalues --   -0.79640  -0.79537  -0.78294  -0.78111  -0.65070
 Alpha  occ. eigenvalues --   -0.64996  -0.60997  -0.60836  -0.59358  -0.59307
 Alpha  occ. eigenvalues --   -0.57653  -0.57506  -0.55299  -0.55213  -0.52704
 Alpha  occ. eigenvalues --   -0.52653  -0.52497  -0.52291  -0.49986  -0.49850
 Alpha  occ. eigenvalues --   -0.48041  -0.47832  -0.46730  -0.46479  -0.45963
 Alpha  occ. eigenvalues --   -0.45705  -0.45674  -0.45314  -0.43786  -0.43733
 Alpha virt. eigenvalues --    0.21612   0.22974   0.23422   0.24282   0.25423
 Alpha virt. eigenvalues --    0.26492   0.26982   0.27554   0.27888   0.29592
 Alpha virt. eigenvalues --    0.29783   0.31429   0.31839   0.31897   0.32420

 Mulliken charges:
               1
     1  C   -0.306735
     2  C   -0.299189
     3  C   -0.477247
     4  H    0.161434
     5  H    0.148596
     6  H    0.151652
     7  H    0.151659
     8  H    0.155091
     9  H    0.155223
    10  H    0.160455
    11  C   -0.297606
    12  C   -0.301592
    13  C   -0.475609
    14  H    0.149153
    15  H    0.149158
    16  H    0.153940
    17  H    0.151520
    18  H    0.155139
    19  H    0.155169
    20  H    0.159905
    21  C   -0.298298
    22  C   -0.299653
    23  C   -0.475701
    24  H    0.149653
    25  H    0.149463
    26  H    0.151995
    27  H    0.151885
    28  H    0.155158
    29  H    0.155203
    30  H    0.160223
    31  C   -0.298382
    32  C   -0.299938
    33  C   -0.481668
    34  H    0.150071
    35  H    0.149786
    36  H    0.151863
    37  H    0.151836
    38  H    0.157687
    39  H    0.159211
    40  H    0.159490
 Sum of Mulliken charges =  -0.00000

 Dipole moment (field-independent basis, Debye):
    X=              0.0172    Y=             -0.0041    Z=              0.0129  Tot=              0.0219
 Quadrupole moment (field-independent basis, Debye-Ang):
   XX=            -86.6554   YY=            -84.5217   ZZ=            -83.8095
   XY=             -0.6112   XZ=              0.1173   YZ=              0.0228

 Normal termination of Gaussian 16 at Wed May  5 21:34:24 2021.
