 Gaussian 16, Revision A.03,
 Gaussian 16:  EM64L-G16RevA.03 25-Dec-2016

 -------------
 #p 6-31g* mp2
 -------------

 ------------------------------------------------------
 Input file generated by CHIRIPA (05-May-2021 14:55:21)
 ------------------------------------------------------
 Symbolic Z-matrix:
 Charge =  0 Multiplicity = 1

                         Standard orientation:
 ---------------------------------------------------------------------
 Center     Atomic      Atomic             Coordinates (Angstroms)
 Number     Number       Type             X           Y           Z
 ---------------------------------------------------------------------
      1          6           0       -3.131213   -2.369976    0.423320
      2          6           0       -3.231759   -1.515779    1.526388
      3          6           0       -3.164828   -0.129373    1.359216
      4          6           0       -2.996097    0.370923    0.069052
      5          6           0       -2.892703   -0.454160   -1.049804
      6          6           0       -2.962303   -1.837379   -0.858995
      7          1           0       -3.184243   -3.445732    0.562365
      8          1           0       -3.362977   -1.926594    2.523413
      9          1           0       -3.239827    0.554837    2.195667
     10          1           0       -2.762329   -0.015067   -2.031444
     11          1           0       -2.883921   -2.498357   -1.717487
     12          7           0       -2.923827    1.836962   -0.120437
     13          8           0       -2.774812    2.252757   -1.267410
     14          8           0       -3.017566    2.542489    0.881601
     15          6           0        3.326264   -0.438656   -0.612365
     16          6           0        1.897255   -0.341342   -0.077157
     17          6           0        0.860342   -0.891778   -1.056763
     18          1           0        3.392668    0.106822   -1.563675
     19          1           0        3.555130   -1.489433   -0.837934
     20          1           0        1.671629    0.708765    0.148638
     21          1           0        1.834291   -0.886952    0.873086
     22          1           0        1.057583   -1.946493   -1.274186
     23          1           0        0.893997   -0.341709   -2.002750
     24          1           0       -0.154242   -0.812374   -0.654056
     25          6           0        4.374237    0.107642    0.355643
     26          6           0        5.803246    0.010329   -0.179566
     27          6           0        6.840158    0.560765    0.800041
     28          1           0        4.145371    1.158420    0.581212
     29          1           0        4.307833   -0.437834    1.306952
     30          1           0        5.866210    0.555940   -1.129808
     31          1           0        6.028872   -1.039779   -0.405359
     32          1           0        6.806504    0.010695    1.746029
     33          1           0        6.642917    1.615480    1.017464
     34          1           0        7.854743    0.481361    0.397334
 ---------------------------------------------------------------------

 SCF Done:  E(RHF) =  -669.534639684     A.U. after   15 cycles
 E2 =    -0.2092555012D+01 EUMP2 =    -0.67162719469614D+03

 The electronic state is 1-A.
 Alpha  occ. eigenvalues --  -20.60798 -20.60793 -15.85853 -11.31229 -11.27817
 Alpha  occ. eigenvalues --  -11.27780 -11.27553 -11.26827 -11.26795 -11.21541
 Alpha  occ. eigenvalues --  -11.21537 -11.21338 -11.21277 -11.21007 -11.20980
 Alpha  occ. eigenvalues --   -1.59874  -1.39427  -1.19430  -1.08805  -1.08367
 Alpha  occ. eigenvalues --   -1.04830  -1.03472  -0.95937  -0.95634  -0.86957
 Alpha  occ. eigenvalues --   -0.86212  -0.82465  -0.79546  -0.78181  -0.77509
 Alpha  occ. eigenvalues --   -0.72070  -0.71203  -0.70517  -0.65064  -0.64996
 Alpha  occ. eigenvalues --   -0.64810  -0.62161  -0.60870  -0.59367  -0.57585
 Alpha  occ. eigenvalues --   -0.55316  -0.55217  -0.53603  -0.52900  -0.52433
 Alpha  occ. eigenvalues --   -0.52071  -0.49875  -0.48831  -0.48824  -0.47849
 Alpha  occ. eigenvalues --   -0.46573  -0.45725  -0.45645  -0.44829  -0.43732
 Alpha  occ. eigenvalues --   -0.37406  -0.36336
 Alpha virt. eigenvalues --    0.05016   0.11206   0.16488   0.21356   0.22928
 Alpha virt. eigenvalues --    0.24360   0.26696   0.27105   0.27600   0.28042
 Alpha virt. eigenvalues --    0.28401   0.30869   0.31450   0.31943   0.32112

 Mulliken charges:
               1
     1  C   -0.170767
     2  C   -0.218163
     3  C   -0.171542
     4  C    0.161669
     5  C   -0.176896
     6  C   -0.214841
     7  H    0.226007
     8  H    0.223766
     9  H    0.275967
    10  H    0.276441
    11  H    0.224564
    12  N    0.488207
    13  O   -0.460293
    14  O   -0.460489
    15  C   -0.298363
    16  C   -0.298974
    17  C   -0.484615
    18  H    0.150900
    19  H    0.147329
    20  H    0.156128
    21  H    0.149350
    22  H    0.149227
    23  H    0.155415
    24  H    0.169622
    25  C   -0.298464
    26  C   -0.299594
    27  C   -0.475723
    28  H    0.151683
    29  H    0.148373
    30  H    0.152593
    31  H    0.150771
    32  H    0.154506
    33  H    0.156210
    34  H    0.159996
 Sum of Mulliken charges =  -0.00000

 Dipole moment (field-independent basis, Debye):
    X=             -0.3461    Y=             -5.1339    Z=              0.6773  Tot=              5.1899
 Quadrupole moment (field-independent basis, Debye-Ang):
   XX=            -94.8094   YY=            -98.4326   ZZ=            -90.0168
   XY=             15.3573   XZ=             -3.1079   YZ=             -0.0355

 Normal termination of Gaussian 16 at Thu May  6 04:34:10 2021.
