 Gaussian 16, Revision A.03,
 Gaussian 16:  EM64L-G16RevA.03 25-Dec-2016

 -------------
 #p 6-31g* mp2
 -------------

 ------------------------------------------------------
 Input file generated by CHIRIPA (05-May-2021 14:57:26)
 ------------------------------------------------------
 Symbolic Z-matrix:
 Charge =  0 Multiplicity = 1

                         Standard orientation:
 ---------------------------------------------------------------------
 Center     Atomic      Atomic             Coordinates (Angstroms)
 Number     Number       Type             X           Y           Z
 ---------------------------------------------------------------------
      1          6           0        5.711857    0.429538    1.082017
      2          6           0        4.666773   -0.125424    1.827897
      3          6           0        3.463552   -0.479324    1.210189
      4          6           0        3.339099   -0.263474   -0.161383
      5          6           0        4.362008    0.287486   -0.931702
      6          6           0        5.556413    0.633862   -0.292977
      7          1           0        6.643123    0.701534    1.570031
      8          1           0        4.784679   -0.285240    2.895887
      9          1           0        2.638305   -0.910689    1.763641
     10          1           0        4.214828    0.434834   -1.994737
     11          1           0        6.366344    1.064671   -0.874751
     12          7           0        2.069970   -0.634149   -0.826448
     13          8           0        1.985356   -0.433884   -2.036146
     14          8           0        1.183871   -1.117931   -0.125433
     15          6           0       -2.856508    2.621809   -0.131981
     16          6           0       -4.052094    2.282405    0.509813
     17          6           0       -4.445333    0.945125    0.617482
     18          6           0       -3.615144   -0.031519    0.069538
     19          6           0       -2.418112    0.274871   -0.575854
     20          6           0       -2.044764    1.618728   -0.671815
     21          1           0       -2.558756    3.663195   -0.211074
     22          1           0       -4.684486    3.059306    0.929988
     23          1           0       -5.365762    0.654338    1.109084
     24          1           0       -1.808595   -0.521757   -0.984865
     25          1           0       -1.115716    1.879376   -1.170791
     26          7           0       -4.020920   -1.450718    0.177325
     27          8           0       -3.271891   -2.292423   -0.313722
     28          8           0       -5.080312   -1.694511    0.750815
 ---------------------------------------------------------------------

 SCF Done:  E(RHF) =  -868.339399199     A.U. after   16 cycles
 E2 =    -0.2598872947D+01 EUMP2 =    -0.87093827214547D+03

 The electronic state is 1-A.
 Alpha  occ. eigenvalues --  -20.61452 -20.61406 -20.59773 -20.59727 -15.86441
 Alpha  occ. eigenvalues --  -15.84802 -11.31631 -11.30102 -11.28188 -11.28155
 Alpha  occ. eigenvalues --  -11.27888 -11.27156 -11.27132 -11.26801 -11.26550
 Alpha  occ. eigenvalues --  -11.26499 -11.25826 -11.25642  -1.60499  -1.58833
 Alpha  occ. eigenvalues --   -1.40049  -1.38382  -1.19788  -1.18313  -1.09219
 Alpha  occ. eigenvalues --   -1.07747  -1.05159  -1.03687  -0.96079  -0.94569
 Alpha  occ. eigenvalues --   -0.86565  -0.85107  -0.82909  -0.81387  -0.77981
 Alpha  occ. eigenvalues --   -0.76413  -0.72654  -0.71811  -0.71025  -0.70888
 Alpha  occ. eigenvalues --   -0.70158  -0.69438  -0.65438  -0.65157  -0.63968
 Alpha  occ. eigenvalues --   -0.63705  -0.62502  -0.60998  -0.55667  -0.54272
 Alpha  occ. eigenvalues --   -0.53504  -0.53244  -0.52065  -0.51776  -0.49430
 Alpha  occ. eigenvalues --   -0.49410  -0.47799  -0.47761  -0.45485  -0.43800
 Alpha  occ. eigenvalues --   -0.37762  -0.36755  -0.36364  -0.35288
 Alpha virt. eigenvalues --    0.04520   0.06093   0.10902   0.12344   0.16054
 Alpha virt. eigenvalues --    0.17553   0.21072   0.22437   0.27004   0.27918
 Alpha virt. eigenvalues --    0.28378   0.29396   0.30686   0.31904   0.32195

 Mulliken charges:
               1
     1  C   -0.170154
     2  C   -0.218739
     3  C   -0.170719
     4  C    0.156934
     5  C   -0.171321
     6  C   -0.218726
     7  H    0.227125
     8  H    0.225428
     9  H    0.278173
    10  H    0.275435
    11  H    0.224504
    12  N    0.487189
    13  O   -0.463025
    14  O   -0.459102
    15  C   -0.171798
    16  C   -0.220191
    17  C   -0.172092
    18  C    0.155264
    19  C   -0.169598
    20  C   -0.222805
    21  H    0.220606
    22  H    0.218585
    23  H    0.271994
    24  H    0.295421
    25  H    0.225763
    26  N    0.487500
    27  O   -0.455113
    28  O   -0.466539
 Sum of Mulliken charges =  -0.00000

 Dipole moment (field-independent basis, Debye):
    X=              6.3635    Y=              6.1110    Z=              1.9229  Tot=              9.0297
 Quadrupole moment (field-independent basis, Debye-Ang):
   XX=            -82.7947   YY=           -106.7561   ZZ=           -101.3318
   XY=            -15.0942   XZ=              5.1375   YZ=             -1.3132

 Normal termination of Gaussian 16 at Wed May  5 16:30:21 2021.
