 Gaussian 16, Revision A.03,
 Gaussian 16:  EM64L-G16RevA.03 25-Dec-2016

 -------------
 #p 6-31g* mp2
 -------------

 ------------------------------------------------------
 Input file generated by CHIRIPA (05-May-2021 14:51:11)
 ------------------------------------------------------
 Symbolic Z-matrix:
 Charge =  0 Multiplicity = 1

                         Standard orientation:
 ---------------------------------------------------------------------
 Center     Atomic      Atomic             Coordinates (Angstroms)
 Number     Number       Type             X           Y           Z
 ---------------------------------------------------------------------
      1          6           0        2.840470    0.719930   -0.514719
      2          6           0        3.670013   -0.426151    0.065230
      3          6           0        4.685643   -0.984391   -0.932095
      4          1           0        2.317470    0.367007   -1.414086
      5          1           0        3.515401    1.523425   -0.840693
      6          1           0        2.993633   -1.226662    0.391281
      7          1           0        4.190948   -0.070512    0.963431
      8          1           0        5.383527   -0.202833   -1.249468
      9          1           0        4.179409   -1.365552   -1.824869
     10          1           0        5.267742   -1.802638   -0.496788
     11          6           0        1.820673    1.288532    0.470388
     12          6           0        0.991130    2.434613   -0.109562
     13          6           0       -0.024500    2.992853    0.887764
     14          1           0        1.145741    0.485037    0.796362
     15          1           0        2.343673    1.641455    1.369755
     16          1           0        0.470195    2.078974   -1.007762
     17          1           0        1.667509    3.235124   -0.435612
     18          1           0        0.481733    3.374014    1.780537
     19          1           0       -0.722384    2.211295    1.205137
     20          1           0       -0.606599    3.811100    0.452457
     21          6           0       -2.888937   -0.797994   -0.456505
     22          6           0       -3.723933    0.376040    0.055757
     23          6           0       -4.836966    0.776968   -0.912854
     24          1           0       -2.452529   -0.532515   -1.429137
     25          1           0       -3.548965   -1.658290   -0.634414
     26          1           0       -3.062321    1.233437    0.233960
     27          1           0       -4.158248    0.107807    1.027372
     28          1           0       -5.520212   -0.061407   -1.082864
     29          1           0       -4.418057    1.070618   -1.880783
     30          1           0       -5.421385    1.618012   -0.526898
     31          6           0       -1.772205   -1.210468    0.500836
     32          6           0       -0.937210   -2.384502   -0.011426
     33          6           0        0.175823   -2.785430    0.957185
     34          1           0       -1.112178   -0.350173    0.678745
     35          1           0       -2.208613   -1.475945    1.473469
     36          1           0       -0.502895   -2.116270   -0.983041
     37          1           0       -1.598821   -3.241899   -0.189629
     38          1           0       -0.243085   -3.079080    1.925115
     39          1           0        0.859069   -1.947055    1.127195
     40          1           0        0.760243   -3.626473    0.571230
 ---------------------------------------------------------------------

 SCF Done:  E(RHF) =  -470.732038865     A.U. after   11 cycles
 E2 =    -0.1585722079D+01 EUMP2 =    -0.47231776094413D+03

 The electronic state is 1-A.
 Alpha  occ. eigenvalues --  -11.21677 -11.21670 -11.21615 -11.21578 -11.21456
 Alpha  occ. eigenvalues --  -11.21443 -11.21395 -11.21383 -11.21125 -11.21115
 Alpha  occ. eigenvalues --  -11.21084 -11.21067  -1.08539  -1.08430  -1.03590
 Alpha  occ. eigenvalues --   -1.03558  -0.96039  -0.96010  -0.87080  -0.87005
 Alpha  occ. eigenvalues --   -0.79688  -0.79603  -0.78454  -0.78155  -0.65544
 Alpha  occ. eigenvalues --   -0.64748  -0.61101  -0.60867  -0.59425  -0.59373
 Alpha  occ. eigenvalues --   -0.57683  -0.57581  -0.55368  -0.55270  -0.52729
 Alpha  occ. eigenvalues --   -0.52701  -0.52476  -0.52427  -0.50134  -0.49860
 Alpha  occ. eigenvalues --   -0.48011  -0.47944  -0.46926  -0.46799  -0.46084
 Alpha  occ. eigenvalues --   -0.45836  -0.45773  -0.44910  -0.43830  -0.43816
 Alpha virt. eigenvalues --    0.19453   0.21906   0.24080   0.24449   0.25643
 Alpha virt. eigenvalues --    0.26317   0.26724   0.28070   0.28442   0.30161
 Alpha virt. eigenvalues --    0.30765   0.31443   0.31664   0.31888   0.32093

 Mulliken charges:
               1
     1  C   -0.297476
     2  C   -0.307107
     3  C   -0.475237
     4  H    0.148969
     5  H    0.149839
     6  H    0.159714
     7  H    0.151795
     8  H    0.155042
     9  H    0.154989
    10  H    0.160401
    11  C   -0.309572
    12  C   -0.299221
    13  C   -0.482202
    14  H    0.158559
    15  H    0.150261
    16  H    0.151289
    17  H    0.152729
    18  H    0.155841
    19  H    0.160501
    20  H    0.160507
    21  C   -0.297370
    22  C   -0.304396
    23  C   -0.475571
    24  H    0.149165
    25  H    0.149834
    26  H    0.156708
    27  H    0.151949
    28  H    0.155194
    29  H    0.155128
    30  H    0.160509
    31  C   -0.308992
    32  C   -0.299177
    33  C   -0.485379
    34  H    0.158463
    35  H    0.150086
    36  H    0.151341
    37  H    0.152731
    38  H    0.155932
    39  H    0.163762
    40  H    0.160460
 Sum of Mulliken charges =  -0.00000

 Dipole moment (field-independent basis, Debye):
    X=             -0.0046    Y=             -0.0031    Z=              0.0242  Tot=              0.0249
 Quadrupole moment (field-independent basis, Debye-Ang):
   XX=            -85.2241   YY=            -84.3017   ZZ=            -85.1744
   XY=              1.6048   XZ=             -0.0746   YZ=             -0.1455

 Normal termination of Gaussian 16 at Thu May  6 03:53:04 2021.
