 Gaussian 16, Revision A.03,
 Gaussian 16:  EM64L-G16RevA.03 25-Dec-2016

 -------------
 #p 6-31g* mp2
 -------------

 ------------------------------------------------------
 Input file generated by CHIRIPA (05-May-2021 14:57:25)
 ------------------------------------------------------
 Symbolic Z-matrix:
 Charge =  0 Multiplicity = 1

                         Standard orientation:
 ---------------------------------------------------------------------
 Center     Atomic      Atomic             Coordinates (Angstroms)
 Number     Number       Type             X           Y           Z
 ---------------------------------------------------------------------
      1          6           0       -2.083031    1.084659    0.823200
      2          6           0       -2.048404    0.075633   -0.144885
      3          6           0       -3.227922   -0.546923   -0.564063
      4          6           0       -4.429922   -0.133794    0.008484
      5          6           0       -4.497069    0.868526    0.974991
      6          6           0       -3.305098    1.477193    1.379068
      7          1           0       -1.161916    1.562881    1.142962
      8          1           0       -1.100771   -0.231253   -0.578311
      9          1           0       -3.229922   -1.330723   -1.311773
     10          1           0       -5.456896    1.152967    1.388807
     11          1           0       -3.335009    2.260539    2.131078
     12          7           0       -5.685217   -0.785514   -0.427288
     13          8           0       -6.731365   -0.403414    0.092530
     14          8           0       -5.599199   -1.666092   -1.280412
     15          6           0        2.237694    1.451353   -0.707842
     16          6           0        2.088430    0.409869    0.213870
     17          6           0        3.181542   -0.386089    0.568988
     18          6           0        4.414970   -0.111378   -0.019636
     19          6           0        4.595564    0.919000   -0.941046
     20          6           0        3.488578    1.702152   -1.281347
     21          1           0        1.383150    2.064698   -0.977951
     22          1           0        1.118167    0.212799    0.660855
     23          1           0        3.094116   -1.198791    1.279824
     24          1           0        5.575302    1.091249   -1.369835
     25          1           0        3.607446    2.510309   -1.997446
     26          7           0        5.579541   -0.947245    0.348468
     27          8           0        6.655614   -0.684793   -0.184283
     28          8           0        5.394209   -1.849021    1.162770
 ---------------------------------------------------------------------

 SCF Done:  E(RHF) =  -868.336339550     A.U. after   16 cycles
 E2 =    -0.2600436707D+01 EUMP2 =    -0.87093677625677D+03

 The electronic state is 1-A.
 Alpha  occ. eigenvalues --  -20.61387 -20.61380 -20.61340 -20.61335 -15.86448
 Alpha  occ. eigenvalues --  -15.86399 -11.31993 -11.31945 -11.28641 -11.28567
 Alpha  occ. eigenvalues --  -11.28544 -11.28504 -11.28458 -11.28433 -11.27789
 Alpha  occ. eigenvalues --  -11.27680 -11.27604 -11.27586  -1.60458  -1.60411
 Alpha  occ. eigenvalues --   -1.40006  -1.39959  -1.20211  -1.20149  -1.09601
 Alpha  occ. eigenvalues --   -1.09531  -1.05651  -1.05565  -0.96388  -0.96331
 Alpha  occ. eigenvalues --   -0.87120  -0.86927  -0.83207  -0.83155  -0.78244
 Alpha  occ. eigenvalues --   -0.78120  -0.72666  -0.72615  -0.71784  -0.71736
 Alpha  occ. eigenvalues --   -0.71419  -0.71257  -0.66023  -0.65858  -0.65777
 Alpha  occ. eigenvalues --   -0.65349  -0.63074  -0.62790  -0.56182  -0.56170
 Alpha  occ. eigenvalues --   -0.53974  -0.53919  -0.53799  -0.53574  -0.49441
 Alpha  occ. eigenvalues --   -0.49405  -0.49388  -0.49357  -0.45371  -0.45324
 Alpha  occ. eigenvalues --   -0.38224  -0.38185  -0.37240  -0.37160
 Alpha virt. eigenvalues --    0.04341   0.04375   0.10260   0.10409   0.15747
 Alpha virt. eigenvalues --    0.15826   0.17583   0.22107   0.24908   0.26697
 Alpha virt. eigenvalues --    0.27138   0.29460   0.29981   0.30281   0.31346

 Mulliken charges:
               1
     1  C   -0.175588
     2  C   -0.223291
     3  C   -0.169431
     4  C    0.159475
     5  C   -0.169855
     6  C   -0.217429
     7  H    0.219608
     8  H    0.221078
     9  H    0.278661
    10  H    0.278427
    11  H    0.226126
    12  N    0.487867
    13  O   -0.458145
    14  O   -0.458252
    15  C   -0.172739
    16  C   -0.226805
    17  C   -0.169514
    18  C    0.159288
    19  C   -0.169212
    20  C   -0.217973
    21  H    0.223331
    22  H    0.218835
    23  H    0.278627
    24  H    0.278762
    25  H    0.226671
    26  N    0.487895
    27  O   -0.457935
    28  O   -0.458483
 Sum of Mulliken charges =  -0.00000

 Dipole moment (field-independent basis, Debye):
    X=              0.3390    Y=              5.1962    Z=              0.1947  Tot=              5.2109
 Quadrupole moment (field-independent basis, Debye-Ang):
   XX=           -175.3780   YY=           -103.8957   ZZ=           -101.7028
   XY=              2.8154   XZ=            -16.6408   YZ=              0.0620

 Normal termination of Gaussian 16 at Thu May  6 06:43:00 2021.
