 Gaussian 16, Revision A.03,
 Gaussian 16:  EM64L-G16RevA.03 25-Dec-2016

 -------------
 #p 6-31g* mp2
 -------------

 ------------------------------------------------------
 Input file generated by CHIRIPA (05-May-2021 14:51:13)
 ------------------------------------------------------
 Symbolic Z-matrix:
 Charge =  0 Multiplicity = 1

                         Standard orientation:
 ---------------------------------------------------------------------
 Center     Atomic      Atomic             Coordinates (Angstroms)
 Number     Number       Type             X           Y           Z
 ---------------------------------------------------------------------
      1          6           0       -3.451159   -0.142340   -0.071979
      2          6           0       -4.495368   -0.487796   -1.134181
      3          6           0       -5.055828   -1.901360   -0.974454
      4          1           0       -2.630897   -0.871420   -0.122535
      5          1           0       -3.902647   -0.248375    0.924169
      6          1           0       -4.042446   -0.379802   -2.128070
      7          1           0       -5.313148    0.242305   -1.081218
      8          1           0       -5.532792   -2.018378    0.004021
      9          1           0       -4.254870   -2.644020   -1.048779
     10          1           0       -5.800483   -2.127322   -1.744058
     11          6           0       -2.881541    1.267561   -0.218413
     12          6           0       -1.837333    1.613017    0.843789
     13          6           0       -1.276872    3.026582    0.684062
     14          1           0       -2.430054    1.373596   -1.214561
     15          1           0       -3.701804    1.996642   -0.167857
     16          1           0       -1.019553    0.882916    0.790826
     17          1           0       -2.290255    1.505023    1.837678
     18          1           0       -2.077831    3.769241    0.758387
     19          1           0       -0.799909    3.143599   -0.294413
     20          1           0       -0.532218    3.252543    1.453666
     21          6           0        2.823336   -1.092916    0.574788
     22          6           0        1.358033   -0.775402    0.874884
     23          6           0        0.685477   -1.845558    1.735247
     24          1           0        2.884692   -2.065366    0.067322
     25          1           0        3.369593   -1.199732    1.522201
     26          1           0        0.814998   -0.667850   -0.072829
     27          1           0        1.300144    0.196494    1.381523
     28          1           0        1.201595   -1.948514    2.695259
     29          1           0        0.713693   -2.817769    1.232643
     30          1           0       -0.361362   -1.598531    1.937642
     31          6           0        3.509365   -0.032305   -0.284396
     32          6           0        4.974667   -0.349820   -0.584492
     33          6           0        5.647224    0.720337   -1.444855
     34          1           0        2.963108    0.074510   -1.231808
     35          1           0        3.448008    0.940145    0.223070
     36          1           0        5.032557   -1.321716   -1.091131
     37          1           0        5.517704   -0.457371    0.363222
     38          1           0        5.619008    1.692548   -0.942252
     39          1           0        5.131106    0.823292   -2.404868
     40          1           0        6.694063    0.473310   -1.647250
 ---------------------------------------------------------------------

 SCF Done:  E(RHF) =  -470.732938051     A.U. after   11 cycles
 E2 =    -0.1583591968D+01 EUMP2 =    -0.47231653001931D+03

 The electronic state is 1-A.
 Alpha  occ. eigenvalues --  -11.21668 -11.21628 -11.21593 -11.21461 -11.21444
 Alpha  occ. eigenvalues --  -11.21384 -11.21380 -11.21311 -11.21103 -11.21091
 Alpha  occ. eigenvalues --  -11.21063 -11.21025  -1.08486  -1.08386  -1.03600
 Alpha  occ. eigenvalues --   -1.03468  -0.96018  -0.95946  -0.87030  -0.86962
 Alpha  occ. eigenvalues --   -0.79743  -0.79483  -0.78367  -0.78132  -0.65109
 Alpha  occ. eigenvalues --   -0.65034  -0.60978  -0.60919  -0.59473  -0.59226
 Alpha  occ. eigenvalues --   -0.57664  -0.57521  -0.55307  -0.55227  -0.52727
 Alpha  occ. eigenvalues --   -0.52626  -0.52439  -0.52368  -0.49956  -0.49894
 Alpha  occ. eigenvalues --   -0.48096  -0.47784  -0.46682  -0.46594  -0.45965
 Alpha  occ. eigenvalues --   -0.45756  -0.45718  -0.45423  -0.43819  -0.43746
 Alpha virt. eigenvalues --    0.20977   0.23114   0.23759   0.24328   0.25910
 Alpha virt. eigenvalues --    0.26415   0.26784   0.27481   0.28308   0.29327
 Alpha virt. eigenvalues --    0.30919   0.31178   0.31609   0.31842   0.32056

 Mulliken charges:
               1
     1  C   -0.300223
     2  C   -0.299549
     3  C   -0.475716
     4  H    0.150770
     5  H    0.149367
     6  H    0.151752
     7  H    0.152095
     8  H    0.155213
     9  H    0.155174
    10  H    0.160185
    11  C   -0.297338
    12  C   -0.312915
    13  C   -0.475046
    14  H    0.148819
    15  H    0.149344
    16  H    0.168545
    17  H    0.150586
    18  H    0.154912
    19  H    0.155034
    20  H    0.159255
    21  C   -0.296913
    22  C   -0.303949
    23  C   -0.479108
    24  H    0.149670
    25  H    0.149805
    26  H    0.151325
    27  H    0.154139
    28  H    0.155650
    29  H    0.155195
    30  H    0.163786
    31  C   -0.298447
    32  C   -0.299702
    33  C   -0.475722
    34  H    0.149237
    35  H    0.149949
    36  H    0.151960
    37  H    0.152036
    38  H    0.155322
    39  H    0.155148
    40  H    0.160355
 Sum of Mulliken charges =  -0.00000

 Dipole moment (field-independent basis, Debye):
    X=              0.0411    Y=             -0.0209    Z=              0.0107  Tot=              0.0474
 Quadrupole moment (field-independent basis, Debye-Ang):
   XX=            -84.8671   YY=            -85.9540   ZZ=            -84.0650
   XY=             -0.9917   XZ=              0.1941   YZ=              1.0300

 Normal termination of Gaussian 16 at Wed May  5 23:11:40 2021.
