 Gaussian 16, Revision A.03,
 Gaussian 16:  EM64L-G16RevA.03 25-Dec-2016

 -------------
 #p 6-31g* mp2
 -------------

 ------------------------------------------------------
 Input file generated by CHIRIPA (05-May-2021 14:51:13)
 ------------------------------------------------------
 Symbolic Z-matrix:
 Charge =  0 Multiplicity = 1

                         Standard orientation:
 ---------------------------------------------------------------------
 Center     Atomic      Atomic             Coordinates (Angstroms)
 Number     Number       Type             X           Y           Z
 ---------------------------------------------------------------------
      1          6           0        2.575024    0.861066   -0.418975
      2          6           0        2.759028    2.267628    0.151737
      3          6           0        1.540038    3.162082   -0.075884
      4          1           0        2.367300    0.933272   -1.495349
      5          1           0        1.689669    0.399628    0.039956
      6          1           0        3.644573    2.725756   -0.307114
      7          1           0        2.966527    2.192055    1.226841
      8          1           0        0.651841    2.730417    0.396739
      9          1           0        1.333740    3.267150   -1.145932
     10          1           0        1.693137    4.162824    0.339972
     11          6           0        3.785217   -0.044963   -0.199269
     12          6           0        3.601213   -1.451524   -0.769981
     13          6           0        4.820202   -2.345978   -0.542360
     14          1           0        4.670572    0.416476   -0.658200
     15          1           0        3.992941   -0.117168    0.877106
     16          1           0        3.393713   -1.375952   -1.845085
     17          1           0        2.715668   -1.909652   -0.311130
     18          1           0        5.026501   -2.451046    0.527688
     19          1           0        5.708400   -1.914313   -1.014982
     20          1           0        4.667104   -3.346720   -0.958216
     21          6           0       -2.656105   -0.168902    0.810766
     22          6           0       -1.486795   -1.140244    0.975660
     23          6           0       -0.446770   -0.647901    1.982506
     24          1           0       -2.269951    0.809157    0.492597
     25          1           0       -3.134912   -0.013232    1.787447
     26          1           0       -1.011193   -1.295108   -0.001294
     27          1           0       -1.875795   -2.116158    1.293288
     28          1           0       -0.900594   -0.511047    2.969378
     29          1           0       -0.031079    0.314667    1.667441
     30          1           0        0.380250   -1.357424    2.084849
     31          6           0       -3.704137   -0.647202   -0.192522
     32          6           0       -4.873447    0.324140   -0.357416
     33          6           0       -5.913471   -0.168203   -1.364264
     34          1           0       -3.225328   -0.802871   -1.169203
     35          1           0       -4.090290   -1.625261    0.125648
     36          1           0       -4.484445    1.300054   -0.675046
     37          1           0       -5.349047    0.479005    0.619537
     38          1           0       -6.329162   -1.130770   -1.049197
     39          1           0       -5.459647   -0.305057   -2.351135
     40          1           0       -6.740491    0.541320   -1.466605
 ---------------------------------------------------------------------

 SCF Done:  E(RHF) =  -470.733092372     A.U. after   11 cycles
 E2 =    -0.1583454757D+01 EUMP2 =    -0.47231654712933D+03

 The electronic state is 1-A.
 Alpha  occ. eigenvalues --  -11.21661 -11.21609 -11.21598 -11.21593 -11.21435
 Alpha  occ. eigenvalues --  -11.21372 -11.21365 -11.21291 -11.21160 -11.21116
 Alpha  occ. eigenvalues --  -11.21075 -11.21064  -1.08471  -1.08406  -1.03581
 Alpha  occ. eigenvalues --   -1.03523  -0.96037  -0.95968  -0.87056  -0.86985
 Alpha  occ. eigenvalues --   -0.79653  -0.79573  -0.78280  -0.78220  -0.65230
 Alpha  occ. eigenvalues --   -0.64941  -0.61098  -0.60816  -0.59405  -0.59333
 Alpha  occ. eigenvalues --   -0.57637  -0.57581  -0.55418  -0.55180  -0.52725
 Alpha  occ. eigenvalues --   -0.52672  -0.52454  -0.52399  -0.50068  -0.49854
 Alpha  occ. eigenvalues --   -0.48018  -0.47858  -0.46790  -0.46527  -0.45889
 Alpha  occ. eigenvalues --   -0.45746  -0.45740  -0.45484  -0.43823  -0.43772
 Alpha virt. eigenvalues --    0.19795   0.22962   0.23318   0.24291   0.26107
 Alpha virt. eigenvalues --    0.26565   0.26877   0.27621   0.28311   0.29658
 Alpha virt. eigenvalues --    0.30196   0.31132   0.31664   0.31830   0.32126

 Mulliken charges:
               1
     1  C   -0.307174
     2  C   -0.299397
     3  C   -0.478385
     4  H    0.148767
     5  H    0.159886
     6  H    0.152098
     7  H    0.152280
     8  H    0.155790
     9  H    0.155277
    10  H    0.160781
    11  C   -0.297586
    12  C   -0.300470
    13  C   -0.475687
    14  H    0.149332
    15  H    0.149743
    16  H    0.151769
    17  H    0.152292
    18  H    0.155183
    19  H    0.155224
    20  H    0.160172
    21  C   -0.298835
    22  C   -0.301420
    23  C   -0.481776
    24  H    0.150099
    25  H    0.149676
    26  H    0.153438
    27  H    0.152531
    28  H    0.156362
    29  H    0.159253
    30  H    0.160184
    31  C   -0.298384
    32  C   -0.299772
    33  C   -0.475739
    34  H    0.149883
    35  H    0.149687
    36  H    0.152271
    37  H    0.151908
    38  H    0.155145
    39  H    0.155265
    40  H    0.160329
 Sum of Mulliken charges =  -0.00000

 Dipole moment (field-independent basis, Debye):
    X=             -0.0237    Y=             -0.0072    Z=              0.0094  Tot=              0.0265
 Quadrupole moment (field-independent basis, Debye-Ang):
   XX=            -85.7335   YY=            -85.1267   ZZ=            -83.9136
   XY=              0.8120   XZ=             -1.3578   YZ=             -0.7309

 Normal termination of Gaussian 16 at Wed May  5 15:22:10 2021.
