 Gaussian 16, Revision A.03,
 Gaussian 16:  EM64L-G16RevA.03 25-Dec-2016

 -------------
 #p 6-31g* mp2
 -------------

 ------------------------------------------------------
 Input file generated by CHIRIPA (05-May-2021 14:51:10)
 ------------------------------------------------------
 Symbolic Z-matrix:
 Charge =  0 Multiplicity = 1

                         Standard orientation:
 ---------------------------------------------------------------------
 Center     Atomic      Atomic             Coordinates (Angstroms)
 Number     Number       Type             X           Y           Z
 ---------------------------------------------------------------------
      1          6           0        3.627488    0.973713    0.141618
      2          6           0        2.191934    0.764497   -0.341495
      3          6           0        1.287760    1.961042   -0.043932
      4          1           0        3.619019    1.168812    1.222733
      5          1           0        4.039940    1.873677   -0.335186
      6          1           0        1.782784   -0.135584    0.135019
      7          1           0        2.203839    0.569684   -1.421551
      8          1           0        1.669579    2.863330   -0.532492
      9          1           0        1.246132    2.154055    1.032922
     10          1           0        0.266246    1.790113   -0.397699
     11          6           0        4.543524   -0.213864   -0.148673
     12          6           0        5.979078   -0.004649    0.334440
     13          6           0        6.883252   -1.201193    0.036877
     14          1           0        4.131072   -1.113828    0.328131
     15          1           0        4.551993   -0.408963   -1.229788
     16          1           0        5.967174    0.190165    1.414496
     17          1           0        6.388228    0.895433   -0.142074
     18          1           0        6.924880   -1.394206   -1.039977
     19          1           0        6.501434   -2.103482    0.525437
     20          1           0        7.904767   -1.030264    0.390644
     21          6           0       -3.434581   -0.584324    0.346965
     22          6           0       -2.264645   -0.753956   -0.622808
     23          6           0       -0.969418   -1.163002    0.079235
     24          1           0       -3.170884    0.169530    1.101360
     25          1           0       -3.592155   -1.527095    0.888952
     26          1           0       -2.110210    0.188431   -1.163799
     27          1           0       -2.531231   -1.507356   -1.375095
     28          1           0       -1.099965   -2.114570    0.604664
     29          1           0       -0.676553   -0.409147    0.817160
     30          1           0       -0.146183   -1.278691   -0.632637
     31          6           0       -4.736431   -0.175525   -0.339910
     32          6           0       -5.906368   -0.005892    0.629862
     33          6           0       -7.201594    0.403153   -0.072180
     34          1           0       -4.578857    0.767246   -0.881897
     35          1           0       -5.000128   -0.929379   -1.094304
     36          1           0       -5.639781    0.747508    1.382150
     37          1           0       -6.060802   -0.948280    1.170854
     38          1           0       -7.494459   -0.350702   -0.810106
     39          1           0       -7.071047    1.354722   -0.597609
     40          1           0       -8.024829    0.518842    0.639691
 ---------------------------------------------------------------------

 SCF Done:  E(RHF) =  -470.732050282     A.U. after   11 cycles
 E2 =    -0.1583599459D+01 EUMP2 =    -0.47231564974096D+03

 The electronic state is 1-A.
 Alpha  occ. eigenvalues --  -11.21612 -11.21601 -11.21571 -11.21464 -11.21406
 Alpha  occ. eigenvalues --  -11.21354 -11.21346 -11.21288 -11.21070 -11.21048
 Alpha  occ. eigenvalues --  -11.21035 -11.21000  -1.08442  -1.08371  -1.03591
 Alpha  occ. eigenvalues --   -1.03430  -0.96062  -0.95864  -0.87009  -0.86958
 Alpha  occ. eigenvalues --   -0.79701  -0.79466  -0.78262  -0.78173  -0.65113
 Alpha  occ. eigenvalues --   -0.64984  -0.61134  -0.60783  -0.59535  -0.59129
 Alpha  occ. eigenvalues --   -0.57681  -0.57456  -0.55388  -0.55067  -0.52714
 Alpha  occ. eigenvalues --   -0.52601  -0.52410  -0.52347  -0.49902  -0.49880
 Alpha  occ. eigenvalues --   -0.47987  -0.47789  -0.46715  -0.46495  -0.45799
 Alpha  occ. eigenvalues --   -0.45754  -0.45711  -0.45606  -0.43817  -0.43619
 Alpha virt. eigenvalues --    0.21224   0.23026   0.23537   0.25218   0.26475
 Alpha virt. eigenvalues --    0.26548   0.26923   0.27369   0.27739   0.29404
 Alpha virt. eigenvalues --    0.30287   0.30911   0.31209   0.31721   0.32492

 Mulliken charges:
               1
     1  C   -0.297601
     2  C   -0.304231
     3  C   -0.478945
     4  H    0.149177
     5  H    0.148837
     6  H    0.160031
     7  H    0.150183
     8  H    0.155091
     9  H    0.154069
    10  H    0.163035
    11  C   -0.298307
    12  C   -0.299547
    13  C   -0.475685
    14  H    0.149516
    15  H    0.149339
    16  H    0.151876
    17  H    0.151860
    18  H    0.155080
    19  H    0.155159
    20  H    0.160140
    21  C   -0.298576
    22  C   -0.301602
    23  C   -0.480674
    24  H    0.149873
    25  H    0.149573
    26  H    0.152339
    27  H    0.152101
    28  H    0.154330
    29  H    0.158448
    30  H    0.165087
    31  C   -0.298320
    32  C   -0.299652
    33  C   -0.475709
    34  H    0.149527
    35  H    0.149639
    36  H    0.152006
    37  H    0.151894
    38  H    0.155158
    39  H    0.155222
    40  H    0.160256
 Sum of Mulliken charges =  -0.00000

 Dipole moment (field-independent basis, Debye):
    X=             -0.0221    Y=             -0.0260    Z=              0.0064  Tot=              0.0347
 Quadrupole moment (field-independent basis, Debye-Ang):
   XX=            -86.5273   YY=            -84.4105   ZZ=            -84.1134
   XY=              1.1790   XZ=             -0.4308   YZ=             -0.2474

 Normal termination of Gaussian 16 at Wed May  5 21:24:07 2021.
