 Gaussian 16, Revision A.03,
 Gaussian 16:  EM64L-G16RevA.03 25-Dec-2016

 -------------
 #p 6-31g* mp2
 -------------

 ------------------------------------------------------
 Input file generated by CHIRIPA (05-May-2021 14:55:22)
 ------------------------------------------------------
 Symbolic Z-matrix:
 Charge =  0 Multiplicity = 1

                         Standard orientation:
 ---------------------------------------------------------------------
 Center     Atomic      Atomic             Coordinates (Angstroms)
 Number     Number       Type             X           Y           Z
 ---------------------------------------------------------------------
      1          6           0        3.358903    0.834211    0.983603
      2          6           0        3.065730    0.925616   -0.381027
      3          6           0        2.176142    0.027291   -0.977848
      4          6           0        1.595181   -0.954471   -0.176650
      5          6           0        1.867078   -1.071304    1.185595
      6          6           0        2.759698   -0.162200    1.761188
      7          1           0        4.051134    1.536238    1.438982
      8          1           0        3.529597    1.698426   -0.987358
      9          1           0        1.931354    0.075318   -2.031978
     10          1           0        1.389039   -1.852388    1.764219
     11          1           0        2.985513   -0.235569    2.821221
     12          7           0        0.651809   -1.911193   -0.797240
     13          8           0        0.153180   -2.767086   -0.069605
     14          8           0        0.428886   -1.787063   -1.999544
     15          6           0       -2.344225    0.268294    0.183751
     16          6           0       -3.791336   -0.111733    0.499091
     17          6           0       -3.982213   -1.618701    0.673469
     18          1           0       -2.026294   -0.251242   -0.730550
     19          1           0       -1.693071   -0.093683    0.991442
     20          1           0       -4.439736    0.252063   -0.308278
     21          1           0       -4.105921    0.408917    1.412642
     22          1           0       -3.359256   -1.993765    1.491914
     23          1           0       -3.694967   -2.151510   -0.238784
     24          1           0       -5.023915   -1.868073    0.898262
     25          6           0       -2.137463    1.771493    0.006634
     26          6           0       -0.690354    2.151520   -0.308706
     27          6           0       -0.499476    3.658487   -0.483084
     28          1           0       -2.788618    2.133469   -0.801058
     29          1           0       -2.455395    2.291029    0.920935
     30          1           0       -0.375768    1.630870   -1.222257
     31          1           0       -0.041953    1.787723    0.498664
     32          1           0       -0.786721    4.191297    0.429169
     33          1           0       -1.122433    4.033551   -1.301530
     34          1           0        0.542226    3.907861   -0.707877
 ---------------------------------------------------------------------

 SCF Done:  E(RHF) =  -669.535368045     A.U. after   15 cycles
 E2 =    -0.2095372675D+01 EUMP2 =    -0.67163074071911D+03

 The electronic state is 1-A.
 Alpha  occ. eigenvalues --  -20.60863 -20.60855 -15.85878 -11.31192 -11.27821
 Alpha  occ. eigenvalues --  -11.27780 -11.27566 -11.26829 -11.26795 -11.21438
 Alpha  occ. eigenvalues --  -11.21153 -11.21077 -11.21014 -11.20836 -11.20204
 Alpha  occ. eigenvalues --   -1.59912  -1.39471  -1.19408  -1.08804  -1.08055
 Alpha  occ. eigenvalues --   -1.04815  -1.03145  -0.95650  -0.95587  -0.86611
 Alpha  occ. eigenvalues --   -0.86207  -0.82482  -0.79251  -0.77882  -0.77523
 Alpha  occ. eigenvalues --   -0.72113  -0.71198  -0.70529  -0.65066  -0.64823
 Alpha  occ. eigenvalues --   -0.64680  -0.62166  -0.60543  -0.59051  -0.57206
 Alpha  occ. eigenvalues --   -0.55322  -0.54867  -0.53220  -0.52908  -0.52287
 Alpha  occ. eigenvalues --   -0.51982  -0.49521  -0.48878  -0.48871  -0.47502
 Alpha  occ. eigenvalues --   -0.46271  -0.45407  -0.45333  -0.44727  -0.43403
 Alpha  occ. eigenvalues --   -0.37357  -0.36354
 Alpha virt. eigenvalues --    0.04977   0.11149   0.16438   0.21154   0.23228
 Alpha virt. eigenvalues --    0.24587   0.26522   0.27028   0.27410   0.28304
 Alpha virt. eigenvalues --    0.28700   0.30668   0.31673   0.31804   0.32217

 Mulliken charges:
               1
     1  C   -0.170810
     2  C   -0.217937
     3  C   -0.167541
     4  C    0.162283
     5  C   -0.172389
     6  C   -0.219261
     7  H    0.226017
     8  H    0.223580
     9  H    0.275038
    10  H    0.275658
    11  H    0.223634
    12  N    0.489733
    13  O   -0.459091
    14  O   -0.461793
    15  C   -0.306833
    16  C   -0.299357
    17  C   -0.475687
    18  H    0.162029
    19  H    0.145863
    20  H    0.150957
    21  H    0.147650
    22  H    0.156242
    23  H    0.165820
    24  H    0.155714
    25  C   -0.296631
    26  C   -0.303987
    27  C   -0.474470
    28  H    0.149725
    29  H    0.146901
    30  H    0.151510
    31  H    0.154186
    32  H    0.154554
    33  H    0.156328
    34  H    0.152365
 Sum of Mulliken charges =  -0.00000

 Dipole moment (field-independent basis, Debye):
    X=              3.3862    Y=              3.1777    Z=              2.1251  Tot=              5.1069
 Quadrupole moment (field-independent basis, Debye-Ang):
   XX=            -84.9169   YY=           -102.2395   ZZ=            -90.8524
   XY=              2.6185   XZ=              2.8642   YZ=             -4.6884

 Normal termination of Gaussian 16 at Thu May  6 04:40:58 2021.
