 Gaussian 16, Revision A.03,
 Gaussian 16:  EM64L-G16RevA.03 25-Dec-2016

 -------------
 #p 6-31g* mp2
 -------------

 ------------------------------------------------------
 Input file generated by CHIRIPA (05-May-2021 14:57:22)
 ------------------------------------------------------
 Symbolic Z-matrix:
 Charge =  0 Multiplicity = 1

                         Standard orientation:
 ---------------------------------------------------------------------
 Center     Atomic      Atomic             Coordinates (Angstroms)
 Number     Number       Type             X           Y           Z
 ---------------------------------------------------------------------
      1          6           0        5.725619    0.897806   -0.882375
      2          6           0        4.955485    1.741083   -0.074725
      3          6           0        3.777737    1.275798    0.517700
      4          6           0        3.398110   -0.044326    0.280113
      5          6           0        4.143965   -0.908875   -0.519602
      6          6           0        5.318120   -0.422154   -1.101849
      7          1           0        6.639127    1.267577   -1.338632
      8          1           0        5.269515    2.766645    0.097472
      9          1           0        3.162599    1.907129    1.147338
     10          1           0        3.805220   -1.926321   -0.672818
     11          1           0        5.914232   -1.079308   -1.728621
     12          7           0        2.153183   -0.548249    0.901899
     13          8           0        1.840433   -1.715404    0.677018
     14          8           0        1.513733    0.233474    1.602363
     15          6           0       -5.333751    1.797000   -0.138492
     16          6           0       -3.972856    2.118476   -0.172256
     17          6           0       -3.005305    1.109560   -0.194171
     18          6           0       -3.435995   -0.216199   -0.181420
     19          6           0       -4.784356   -0.568461   -0.147910
     20          6           0       -5.734450    0.456920   -0.126448
     21          1           0       -6.078587    2.587147   -0.121644
     22          1           0       -3.658757    3.158331   -0.181678
     23          1           0       -1.945100    1.330228   -0.220425
     24          1           0       -5.066804   -1.614198   -0.139250
     25          1           0       -6.790643    0.204301   -0.100239
     26          7           0       -2.420933   -1.293009   -0.204380
     27          8           0       -2.826257   -2.453271   -0.192528
     28          8           0       -1.239222   -0.956361   -0.233795
 ---------------------------------------------------------------------

 SCF Done:  E(RHF) =  -868.335421777     A.U. after   16 cycles
 E2 =    -0.2600767512D+01 EUMP2 =    -0.87093618928848D+03

 The electronic state is 1-A.
 Alpha  occ. eigenvalues --  -20.59743 -20.59636 -20.59620 -20.59534 -15.84752
 Alpha  occ. eigenvalues --  -15.84652 -11.30519 -11.30344 -11.27167 -11.27098
 Alpha  occ. eigenvalues --  -11.26979 -11.26953 -11.26932 -11.26795 -11.26262
 Alpha  occ. eigenvalues --  -11.26217 -11.26071 -11.26054  -1.58727  -1.58654
 Alpha  occ. eigenvalues --   -1.38284  -1.38201  -1.18726  -1.18557  -1.08045
 Alpha  occ. eigenvalues --   -1.07895  -1.04191  -1.04012  -0.94821  -0.94663
 Alpha  occ. eigenvalues --   -0.85570  -0.85396  -0.81658  -0.81502  -0.76631
 Alpha  occ. eigenvalues --   -0.76493  -0.71013  -0.70896  -0.70042  -0.69942
 Alpha  occ. eigenvalues --   -0.69835  -0.69665  -0.64373  -0.64222  -0.64183
 Alpha  occ. eigenvalues --   -0.64027  -0.61537  -0.61354  -0.54681  -0.54520
 Alpha  occ. eigenvalues --   -0.52496  -0.52324  -0.52291  -0.52114  -0.47892
 Alpha  occ. eigenvalues --   -0.47743  -0.47592  -0.47430  -0.43594  -0.43504
 Alpha  occ. eigenvalues --   -0.36728  -0.36566  -0.35814  -0.35630
 Alpha virt. eigenvalues --    0.05887   0.06093   0.11835   0.12020   0.17325
 Alpha virt. eigenvalues --    0.17496   0.21907   0.22086   0.27789   0.27964
 Alpha virt. eigenvalues --    0.28823   0.29030   0.31405   0.31613   0.33086

 Mulliken charges:
               1
     1  C   -0.172254
     2  C   -0.218585
     3  C   -0.172605
     4  C    0.160673
     5  C   -0.170724
     6  C   -0.218595
     7  H    0.222895
     8  H    0.220090
     9  H    0.272153
    10  H    0.277786
    11  H    0.221915
    12  N    0.490047
    13  O   -0.445200
    14  O   -0.467033
    15  C   -0.171949
    16  C   -0.218865
    17  C   -0.169924
    18  C    0.159144
    19  C   -0.171554
    20  C   -0.218779
    21  H    0.222312
    22  H    0.220310
    23  H    0.278615
    24  H    0.274396
    25  H    0.220610
    26  N    0.487678
    27  O   -0.464840
    28  O   -0.447717
 Sum of Mulliken charges =  -0.00000

 Dipole moment (field-independent basis, Debye):
    X=              0.8896    Y=              5.3007    Z=             -2.0811  Tot=              5.7637
 Quadrupole moment (field-independent basis, Debye-Ang):
   XX=            -51.2085   YY=           -100.9493   ZZ=           -106.9710
   XY=             -4.7555   XZ=             -6.6018   YZ=              1.9335

 Normal termination of Gaussian 16 at Thu May  6 16:13:40 2021.
