 Gaussian 16, Revision A.03,
 Gaussian 16:  EM64L-G16RevA.03 25-Dec-2016

 -------------
 #p 6-31g* mp2
 -------------

 ------------------------------------------------------
 Input file generated by CHIRIPA (05-May-2021 14:53:17)
 ------------------------------------------------------
 Symbolic Z-matrix:
 Charge =  0 Multiplicity = 1

                         Standard orientation:
 ---------------------------------------------------------------------
 Center     Atomic      Atomic             Coordinates (Angstroms)
 Number     Number       Type             X           Y           Z
 ---------------------------------------------------------------------
      1          6           0        5.278280   -0.492902    0.216956
      2          6           0        6.422913    0.285741   -0.432285
      3          6           0        7.746539   -0.479267   -0.408415
      4          1           0        5.547458   -0.730451    1.255252
      5          1           0        5.156932   -1.453741   -0.302137
      6          1           0        6.541159    1.245419    0.086995
      7          1           0        6.150898    0.521630   -1.469098
      8          1           0        7.651908   -1.429650   -0.943597
      9          1           0        8.044387   -0.701748    0.621338
     10          1           0        8.551032    0.095647   -0.877589
     11          6           0        3.948481    0.258831    0.200808
     12          6           0        2.803848   -0.519813    0.850050
     13          6           0        1.480222    0.245196    0.826179
     14          1           0        4.069829    1.219670    0.719902
     15          1           0        3.679302    0.496379   -0.837488
     16          1           0        3.075862   -0.755702    1.886863
     17          1           0        2.685601   -1.479491    0.330770
     18          1           0        1.182374    0.467676   -0.203573
     19          1           0        1.574852    1.195578    1.361361
     20          1           0        0.675729   -0.329718    1.295354
     21          6           0       -2.415214    2.310934   -0.324585
     22          6           0       -3.680567    2.236048    0.266851
     23          6           0       -4.348638    1.011616    0.361694
     24          6           0       -3.719150   -0.123139   -0.147586
     25          6           0       -2.459136   -0.080883   -0.742455
     26          6           0       -1.809605    1.154269   -0.826465
     27          1           0       -1.903442    3.266267   -0.394053
     28          1           0       -4.153306    3.132696    0.657473
     29          1           0       -5.328839    0.925093    0.814615
     30          1           0       -2.013328   -0.991916   -1.122837
     31          1           0       -0.826979    1.209435   -1.286300
     32          7           0       -4.416593   -1.425065   -0.052914
     33          8           0       -3.840536   -2.410255   -0.509197
     34          8           0       -5.526101   -1.435671    0.475780
 ---------------------------------------------------------------------

 SCF Done:  E(RHF) =  -669.535149854     A.U. after   15 cycles
 E2 =    -0.2091281551D+01 EUMP2 =    -0.67162643140573D+03

 The electronic state is 1-A.
 Alpha  occ. eigenvalues --  -20.60734 -20.60728 -15.85786 -11.31141 -11.27702
 Alpha  occ. eigenvalues --  -11.27694 -11.27435 -11.26724 -11.26690 -11.22088
 Alpha  occ. eigenvalues --  -11.21923 -11.21861 -11.21768 -11.21725 -11.21324
 Alpha  occ. eigenvalues --   -1.59809  -1.39363  -1.19309  -1.08855  -1.08705
 Alpha  occ. eigenvalues --   -1.04713  -1.03964  -0.96432  -0.95543  -0.87459
 Alpha  occ. eigenvalues --   -0.86105  -0.82378  -0.80034  -0.78658  -0.77424
 Alpha  occ. eigenvalues --   -0.72005  -0.71132  -0.70414  -0.65497  -0.64960
 Alpha  occ. eigenvalues --   -0.64732  -0.62107  -0.61337  -0.59786  -0.58028
 Alpha  occ. eigenvalues --   -0.55759  -0.55200  -0.53275  -0.53000  -0.52907
 Alpha  occ. eigenvalues --   -0.52630  -0.50363  -0.48766  -0.48760  -0.48337
 Alpha  occ. eigenvalues --   -0.47057  -0.46203  -0.46116  -0.44771  -0.44207
 Alpha  occ. eigenvalues --   -0.37283  -0.36282
 Alpha virt. eigenvalues --    0.05100   0.11305   0.16558   0.20544   0.22572
 Alpha virt. eigenvalues --    0.23896   0.25545   0.26499   0.27222   0.28331
 Alpha virt. eigenvalues --    0.28708   0.29872   0.31235   0.31615   0.32145

 Mulliken charges:
               1
     1  C   -0.298636
     2  C   -0.299825
     3  C   -0.475954
     4  H    0.151038
     5  H    0.150821
     6  H    0.151751
     7  H    0.151442
     8  H    0.155996
     9  H    0.155910
    10  H    0.160837
    11  C   -0.298282
    12  C   -0.300507
    13  C   -0.475944
    14  H    0.149183
    15  H    0.146965
    16  H    0.155096
    17  H    0.154041
    18  H    0.143127
    19  H    0.155261
    20  H    0.166595
    21  C   -0.172313
    22  C   -0.218486
    23  C   -0.171258
    24  C    0.158311
    25  C   -0.172607
    26  C   -0.214477
    27  H    0.225602
    28  H    0.223156
    29  H    0.275336
    30  H    0.275323
    31  H    0.225622
    32  N    0.488100
    33  O   -0.460632
    34  O   -0.460590
 Sum of Mulliken charges =  -0.00000

 Dipole moment (field-independent basis, Debye):
    X=              2.5651    Y=              4.5658    Z=             -0.2685  Tot=              5.2439
 Quadrupole moment (field-independent basis, Debye-Ang):
   XX=           -111.0838   YY=            -95.4110   ZZ=            -93.4757
   XY=            -19.1309   XZ=             -0.7612   YZ=              0.8796

 Normal termination of Gaussian 16 at Thu May  6 18:57:18 2021.
