 Gaussian 16, Revision A.03,
 Gaussian 16:  EM64L-G16RevA.03 25-Dec-2016

 -------------
 #p 6-31g* mp2
 -------------

 ------------------------------------------------------
 Input file generated by CHIRIPA (05-May-2021 14:57:23)
 ------------------------------------------------------
 Symbolic Z-matrix:
 Charge =  0 Multiplicity = 1

                         Standard orientation:
 ---------------------------------------------------------------------
 Center     Atomic      Atomic             Coordinates (Angstroms)
 Number     Number       Type             X           Y           Z
 ---------------------------------------------------------------------
      1          6           0       -3.554477    1.770145    1.305517
      2          6           0       -2.658591    0.867622    1.888065
      3          6           0       -2.232823   -0.263611    1.185511
      4          6           0       -2.725229   -0.462230   -0.103432
      5          6           0       -3.618623    0.418629   -0.711070
      6          6           0       -4.030794    1.543168    0.010093
      7          1           0       -3.879942    2.646313    1.858505
      8          1           0       -2.287026    1.041350    2.893949
      9          1           0       -1.539964   -0.978502    1.612473
     10          1           0       -3.971631    0.218625   -1.715462
     11          1           0       -4.726625    2.242382   -0.444840
     12          7           0       -2.281685   -1.656273   -0.857045
     13          8           0       -2.730174   -1.808611   -1.991191
     14          8           0       -1.493944   -2.417216   -0.299310
     15          6           0        3.431445   -2.005743    0.877463
     16          6           0        2.086831   -1.624068    0.824020
     17          6           0        1.724448   -0.368102    0.328261
     18          6           0        2.737123    0.485008   -0.107610
     19          6           0        4.085543    0.133699   -0.067142
     20          6           0        4.424759   -1.127191    0.432497
     21          1           0        3.703955   -2.983319    1.264088
     22          1           0        1.313282   -2.304308    1.168897
     23          1           0        0.691209   -0.047064    0.275610
     24          1           0        4.834226    0.833446   -0.418204
     25          1           0        5.469813   -1.420926    0.472820
     26          7           0        2.365747    1.817248   -0.634502
     27          8           0        3.276850    2.550560   -1.012365
     28          8           0        1.170592    2.102919   -0.659639
 ---------------------------------------------------------------------

 SCF Done:  E(RHF) =  -868.339235456     A.U. after   16 cycles
 E2 =    -0.2600881658D+01 EUMP2 =    -0.87094011711362D+03

 The electronic state is 1-A.
 Alpha  occ. eigenvalues --  -20.61285 -20.61215 -20.60557 -20.60547 -15.86277
 Alpha  occ. eigenvalues --  -15.85598 -11.31429 -11.30802 -11.28035 -11.27863
 Alpha  occ. eigenvalues --  -11.27566 -11.27360 -11.27286 -11.27027 -11.26936
 Alpha  occ. eigenvalues --  -11.26843 -11.26365 -11.26207  -1.60305  -1.59632
 Alpha  occ. eigenvalues --   -1.39875  -1.39190  -1.19542  -1.18944  -1.08965
 Alpha  occ. eigenvalues --   -1.08371  -1.04923  -1.04309  -0.95854  -0.95239
 Alpha  occ. eigenvalues --   -0.86339  -0.85719  -0.82706  -0.82064  -0.77819
 Alpha  occ. eigenvalues --   -0.77123  -0.72508  -0.71832  -0.71609  -0.70950
 Alpha  occ. eigenvalues --   -0.70666  -0.70051  -0.65206  -0.64930  -0.64587
 Alpha  occ. eigenvalues --   -0.64296  -0.62339  -0.61611  -0.55397  -0.54831
 Alpha  occ. eigenvalues --   -0.53237  -0.53017  -0.52660  -0.52355  -0.49285
 Alpha  occ. eigenvalues --   -0.49219  -0.48587  -0.48565  -0.45316  -0.44632
 Alpha  occ. eigenvalues --   -0.37450  -0.36923  -0.36485  -0.35893
 Alpha virt. eigenvalues --    0.04711   0.05364   0.11015   0.11744   0.16294
 Alpha virt. eigenvalues --    0.16911   0.20475   0.22178   0.25681   0.27613
 Alpha virt. eigenvalues --    0.28619   0.28969   0.30523   0.31560   0.32424

 Mulliken charges:
               1
     1  C   -0.167317
     2  C   -0.213787
     3  C   -0.179887
     4  C    0.162577
     5  C   -0.167574
     6  C   -0.214906
     7  H    0.228321
     8  H    0.224482
     9  H    0.267076
    10  H    0.277073
    11  H    0.226234
    12  N    0.490637
    13  O   -0.453413
    14  O   -0.473493
    15  C   -0.171248
    16  C   -0.220238
    17  C   -0.175059
    18  C    0.157652
    19  C   -0.171619
    20  C   -0.218678
    21  H    0.225608
    22  H    0.234892
    23  H    0.274285
    24  H    0.273717
    25  H    0.221940
    26  N    0.487677
    27  O   -0.461645
    28  O   -0.463308
 Sum of Mulliken charges =  -0.00000

 Dipole moment (field-independent basis, Debye):
    X=             -0.6283    Y=             -0.3940    Z=              4.4308  Tot=              4.4924
 Quadrupole moment (field-independent basis, Debye-Ang):
   XX=            -82.6038   YY=           -113.7530   ZZ=           -103.5314
   XY=            -23.9289   XZ=             -0.3452   YZ=             -1.4566

 Normal termination of Gaussian 16 at Wed May  5 21:02:19 2021.
