 Gaussian 16, Revision A.03,
 Gaussian 16:  EM64L-G16RevA.03 25-Dec-2016

 -------------
 #p 6-31g* mp2
 -------------

 ------------------------------------------------------
 Input file generated by CHIRIPA (05-May-2021 14:57:26)
 ------------------------------------------------------
 Symbolic Z-matrix:
 Charge =  0 Multiplicity = 1

                         Standard orientation:
 ---------------------------------------------------------------------
 Center     Atomic      Atomic             Coordinates (Angstroms)
 Number     Number       Type             X           Y           Z
 ---------------------------------------------------------------------
      1          6           0       -1.082921   -1.554605    1.849814
      2          6           0       -1.245635   -2.112815    0.577632
      3          6           0       -1.982055   -1.441880   -0.403225
      4          6           0       -2.544545   -0.209029   -0.076158
      5          6           0       -2.400257    0.373161    1.182224
      6          6           0       -1.659734   -0.315583    2.147525
      7          1           0       -0.509258   -2.082721    2.605725
      8          1           0       -0.798803   -3.074906    0.343609
      9          1           0       -2.123755   -1.851058   -1.396156
     10          1           0       -2.857575    1.333797    1.385834
     11          1           0       -1.535017    0.120337    3.134674
     12          7           0       -3.326331    0.510687   -1.106313
     13          8           0       -3.811844    1.595500   -0.793113
     14          8           0       -3.438779   -0.023641   -2.207443
     15          6           0        3.068509   -1.946865   -0.969040
     16          6           0        3.306385   -0.804963   -1.741048
     17          6           0        2.948823    0.460373   -1.266049
     18          6           0        2.352585    0.547538   -0.008992
     19          6           0        2.102538   -0.571481    0.783828
     20          6           0        2.468403   -1.826691    0.288716
     21          1           0        3.349498   -2.925876   -1.345843
     22          1           0        3.772281   -0.895279   -2.718200
     23          1           0        3.121466    1.360885   -1.842843
     24          1           0        1.636487   -0.449712    1.754079
     25          1           0        2.282459   -2.711780    0.890454
     26          7           0        1.969655    1.881732    0.504515
     27          8           0        1.445738    1.931730    1.615213
     28          8           0        2.200682    2.852214   -0.213419
 ---------------------------------------------------------------------

 SCF Done:  E(RHF) =  -868.335878160     A.U. after   16 cycles
 E2 =    -0.2603744350D+01 EUMP2 =    -0.87093962250977D+03

 The electronic state is 1-A.
 Alpha  occ. eigenvalues --  -20.61101 -20.61071 -20.60690 -20.60665 -15.86142
 Alpha  occ. eigenvalues --  -15.85734 -11.31513 -11.31194 -11.28172 -11.28088
 Alpha  occ. eigenvalues --  -11.27918 -11.27781 -11.27662 -11.27603 -11.27229
 Alpha  occ. eigenvalues --  -11.27088 -11.26924 -11.26751  -1.60154  -1.59752
 Alpha  occ. eigenvalues --   -1.39710  -1.39302  -1.19734  -1.19374  -1.09122
 Alpha  occ. eigenvalues --   -1.08806  -1.05157  -1.04762  -0.95957  -0.95606
 Alpha  occ. eigenvalues --   -0.86563  -0.86185  -0.82804  -0.82410  -0.77844
 Alpha  occ. eigenvalues --   -0.77412  -0.72373  -0.71955  -0.71473  -0.71072
 Alpha  occ. eigenvalues --   -0.70916  -0.70523  -0.65398  -0.65224  -0.65024
 Alpha  occ. eigenvalues --   -0.64781  -0.62533  -0.62098  -0.55687  -0.55384
 Alpha  occ. eigenvalues --   -0.53780  -0.53310  -0.52862  -0.52763  -0.49129
 Alpha  occ. eigenvalues --   -0.49109  -0.48723  -0.48697  -0.45113  -0.44685
 Alpha  occ. eigenvalues --   -0.37841  -0.37728  -0.36619  -0.35944
 Alpha virt. eigenvalues --    0.04687   0.05099   0.10703   0.11345   0.16163
 Alpha virt. eigenvalues --    0.16531   0.19534   0.22177   0.25970   0.26562
 Alpha virt. eigenvalues --    0.28108   0.29749   0.30439   0.30821   0.32133

 Mulliken charges:
               1
     1  C   -0.184444
     2  C   -0.210889
     3  C   -0.172252
     4  C    0.157808
     5  C   -0.167081
     6  C   -0.209481
     7  H    0.218582
     8  H    0.216502
     9  H    0.274203
    10  H    0.280660
    11  H    0.229753
    12  N    0.488086
    13  O   -0.456507
    14  O   -0.462154
    15  C   -0.171479
    16  C   -0.218844
    17  C   -0.169036
    18  C    0.156063
    19  C   -0.158397
    20  C   -0.220854
    21  H    0.225219
    22  H    0.225447
    23  H    0.278165
    24  H    0.269161
    25  H    0.214291
    26  N    0.488895
    27  O   -0.464930
    28  O   -0.456488
 Sum of Mulliken charges =  -0.00000

 Dipole moment (field-independent basis, Debye):
    X=              3.9991    Y=             -6.8949    Z=              1.7428  Tot=              8.1590
 Quadrupole moment (field-independent basis, Debye-Ang):
   XX=           -112.8889   YY=           -106.5314   ZZ=           -100.2739
   XY=             -4.5316   XZ=            -16.6830   YZ=             -0.5120

 Normal termination of Gaussian 16 at Wed May  5 21:14:07 2021.
