 Gaussian 16, Revision A.03,
 Gaussian 16:  EM64L-G16RevA.03 25-Dec-2016

 -------------
 #p 6-31g* mp2
 -------------

 ------------------------------------------------------
 Input file generated by CHIRIPA (05-May-2021 14:57:24)
 ------------------------------------------------------
 Symbolic Z-matrix:
 Charge =  0 Multiplicity = 1

                         Standard orientation:
 ---------------------------------------------------------------------
 Center     Atomic      Atomic             Coordinates (Angstroms)
 Number     Number       Type             X           Y           Z
 ---------------------------------------------------------------------
      1          6           0        1.063912    1.562958    1.272420
      2          6           0        2.092133    2.135342    0.516338
      3          6           0        3.134544    1.345422    0.022422
      4          6           0        3.117132   -0.019574    0.304862
      5          6           0        2.106873   -0.619327    1.055170
      6          6           0        1.074545    0.189871    1.538953
      7          1           0        0.258059    2.184075    1.652170
      8          1           0        2.086466    3.201418    0.307783
      9          1           0        3.943073    1.762537   -0.565554
     10          1           0        2.139816   -1.685011    1.246611
     11          1           0        0.277327   -0.257375    2.125859
     12          7           0        4.215349   -0.866032   -0.212661
     13          8           0        4.176965   -2.066090    0.050062
     14          8           0        5.093719   -0.313399   -0.871220
     15          6           0       -0.727244    0.391584   -1.496992
     16          6           0       -1.030970   -0.918687   -1.112983
     17          6           0       -2.251819   -1.213687   -0.498939
     18          6           0       -3.149680   -0.169384   -0.283151
     19          6           0       -2.876157    1.146179   -0.654323
     20          6           0       -1.649182    1.418026   -1.266842
     21          1           0        0.223520    0.611754   -1.973403
     22          1           0       -0.316894   -1.717836   -1.290471
     23          1           0       -2.512619   -2.219137   -0.191571
     24          1           0       -3.608146    1.921726   -0.464222
     25          1           0       -1.415995    2.436534   -1.564011
     26          7           0       -4.445381   -0.469431    0.366103
     27          8           0       -5.219375    0.468403    0.545092
     28          8           0       -4.662423   -1.636761    0.683704
 ---------------------------------------------------------------------

 SCF Done:  E(RHF) =  -868.336207140     A.U. after   16 cycles
 E2 =    -0.2604358296D+01 EUMP2 =    -0.87094056543540D+03

 The electronic state is 1-A.
 Alpha  occ. eigenvalues --  -20.61514 -20.61509 -20.61282 -20.61275 -15.86570
 Alpha  occ. eigenvalues --  -15.86340 -11.31996 -11.31726 -11.28560 -11.28482
 Alpha  occ. eigenvalues --  -11.28350 -11.28293 -11.28155 -11.27939 -11.27558
 Alpha  occ. eigenvalues --  -11.27409 -11.27295 -11.27189  -1.60595  -1.60362
 Alpha  occ. eigenvalues --   -1.40144  -1.39914  -1.20167  -1.19895  -1.09538
 Alpha  occ. eigenvalues --   -1.09237  -1.05550  -1.05304  -0.96340  -0.96099
 Alpha  occ. eigenvalues --   -0.86916  -0.86690  -0.83159  -0.82936  -0.78225
 Alpha  occ. eigenvalues --   -0.78000  -0.72772  -0.72548  -0.71938  -0.71700
 Alpha  occ. eigenvalues --   -0.71188  -0.70954  -0.65765  -0.65537  -0.65496
 Alpha  occ. eigenvalues --   -0.65289  -0.62870  -0.62652  -0.55968  -0.55781
 Alpha  occ. eigenvalues --   -0.54549  -0.53597  -0.53379  -0.52996  -0.49539
 Alpha  occ. eigenvalues --   -0.49533  -0.49310  -0.49307  -0.45537  -0.45316
 Alpha  occ. eigenvalues --   -0.38819  -0.37791  -0.36945  -0.36380
 Alpha virt. eigenvalues --    0.04170   0.04593   0.10287   0.10834   0.15741
 Alpha virt. eigenvalues --    0.16189   0.20422   0.21272   0.26020   0.27012
 Alpha virt. eigenvalues --    0.27765   0.27934   0.30141   0.30413   0.31841

 Mulliken charges:
               1
     1  C   -0.167172
     2  C   -0.224937
     3  C   -0.176186
     4  C    0.155623
     5  C   -0.178001
     6  C   -0.210919
     7  H    0.228670
     8  H    0.223704
     9  H    0.276706
    10  H    0.275856
    11  H    0.228655
    12  N    0.487693
    13  O   -0.459489
    14  O   -0.458910
    15  C   -0.161814
    16  C   -0.219604
    17  C   -0.176058
    18  C    0.156097
    19  C   -0.174417
    20  C   -0.224393
    21  H    0.230380
    22  H    0.227270
    23  H    0.276656
    24  H    0.275392
    25  H    0.221072
    26  N    0.487952
    27  O   -0.460390
    28  O   -0.459441
 Sum of Mulliken charges =  -0.00000

 Dipole moment (field-independent basis, Debye):
    X=              0.7423    Y=              4.0028    Z=             -0.4147  Tot=              4.0921
 Quadrupole moment (field-independent basis, Debye-Ang):
   XX=           -158.2962   YY=            -97.7144   ZZ=           -102.6882
   XY=              5.8614   XZ=              9.5922   YZ=             -1.2274

 Normal termination of Gaussian 16 at Thu May  6 16:20:14 2021.
