 Gaussian 16, Revision A.03,
 Gaussian 16:  EM64L-G16RevA.03 25-Dec-2016

 -------------
 #p 6-31g* mp2
 -------------

 ------------------------------------------------------
 Input file generated by CHIRIPA (05-May-2021 14:55:20)
 ------------------------------------------------------
 Symbolic Z-matrix:
 Charge =  0 Multiplicity = 1

                         Standard orientation:
 ---------------------------------------------------------------------
 Center     Atomic      Atomic             Coordinates (Angstroms)
 Number     Number       Type             X           Y           Z
 ---------------------------------------------------------------------
      1          6           0        3.232371   -1.293146   -1.807064
      2          6           0        1.997887   -1.646172   -1.252138
      3          6           0        1.486368   -0.946404   -0.155224
      4          6           0        2.239228    0.105740    0.363897
      5          6           0        3.472328    0.481443   -0.166764
      6          6           0        3.964361   -0.232335   -1.263565
      7          1           0        3.622163   -1.842185   -2.659129
      8          1           0        1.427235   -2.469571   -1.672157
      9          1           0        0.533455   -1.198550    0.293993
     10          1           0        4.018221    1.306895    0.273744
     11          1           0        4.923369    0.044047   -1.692472
     12          7           0        1.708020    0.853970    1.525090
     13          8           0        2.390675    1.776986    1.964021
     14          8           0        0.619063    0.503248    1.974316
     15          6           0       -3.126386    0.529130   -0.772929
     16          6           0       -2.662589    1.946546   -0.435574
     17          6           0       -2.965889    2.948693   -1.549803
     18          1           0       -2.641404    0.203150   -1.703238
     19          1           0       -4.207006    0.541967   -0.971652
     20          1           0       -1.583416    1.930798   -0.236192
     21          1           0       -3.148584    2.269117    0.494142
     22          1           0       -4.042247    2.993928   -1.744761
     23          1           0       -2.468185    2.653687   -2.479246
     24          1           0       -2.625973    3.955484   -1.287719
     25          6           0       -2.830164   -0.484132    0.331283
     26          6           0       -3.293961   -1.901547   -0.006072
     27          6           0       -2.990661   -2.903695    1.108157
     28          1           0       -1.749544   -0.496969    0.530006
     29          1           0       -3.315146   -0.158152    1.261591
     30          1           0       -2.807965   -2.224119   -0.935788
     31          1           0       -4.373134   -1.885800   -0.205453
     32          1           0       -3.488364   -2.608689    2.037599
     33          1           0       -1.914303   -2.948930    1.303115
     34          1           0       -3.330577   -3.910485    0.846073
 ---------------------------------------------------------------------

 SCF Done:  E(RHF) =  -669.535592059     A.U. after   15 cycles
 E2 =    -0.2092637719D+01 EUMP2 =    -0.67162822977771D+03

 The electronic state is 1-A.
 Alpha  occ. eigenvalues --  -20.60924 -20.60914 -15.85948 -11.31290 -11.27850
 Alpha  occ. eigenvalues --  -11.27846 -11.27586 -11.26864 -11.26854 -11.21563
 Alpha  occ. eigenvalues --  -11.21134 -11.21084 -11.21077 -11.21009 -11.20720
 Alpha  occ. eigenvalues --   -1.59981  -1.39537  -1.19459  -1.08858  -1.08166
 Alpha  occ. eigenvalues --   -1.04858  -1.03303  -0.95763  -0.95691  -0.86776
 Alpha  occ. eigenvalues --   -0.86260  -0.82530  -0.79349  -0.77983  -0.77531
 Alpha  occ. eigenvalues --   -0.72169  -0.71294  -0.70575  -0.65118  -0.65005
 Alpha  occ. eigenvalues --   -0.64696  -0.62209  -0.60713  -0.59124  -0.57340
 Alpha  occ. eigenvalues --   -0.55367  -0.55062  -0.53185  -0.52961  -0.52465
 Alpha  occ. eigenvalues --   -0.52162  -0.49729  -0.48949  -0.48925  -0.47654
 Alpha  occ. eigenvalues --   -0.46391  -0.45535  -0.45450  -0.44771  -0.43533
 Alpha  occ. eigenvalues --   -0.37436  -0.36456
 Alpha virt. eigenvalues --    0.04918   0.11144   0.16422   0.19786   0.22966
 Alpha virt. eigenvalues --    0.24130   0.26004   0.27281   0.27742   0.28197
 Alpha virt. eigenvalues --    0.29281   0.30898   0.31420   0.31895   0.32212

 Mulliken charges:
               1
     1  C   -0.170380
     2  C   -0.221235
     3  C   -0.174388
     4  C    0.155671
     5  C   -0.170164
     6  C   -0.218691
     7  H    0.226080
     8  H    0.224412
     9  H    0.284706
    10  H    0.275885
    11  H    0.223882
    12  N    0.488416
    13  O   -0.458931
    14  O   -0.462252
    15  C   -0.298090
    16  C   -0.299045
    17  C   -0.475935
    18  H    0.143379
    19  H    0.148233
    20  H    0.156541
    21  H    0.155818
    22  H    0.153572
    23  H    0.151573
    24  H    0.161523
    25  C   -0.308728
    26  C   -0.300318
    27  C   -0.474510
    28  H    0.161765
    29  H    0.155656
    30  H    0.143506
    31  H    0.152928
    32  H    0.160416
    33  H    0.150341
    34  H    0.158362
 Sum of Mulliken charges =  -0.00000

 Dipole moment (field-independent basis, Debye):
    X=              1.9461    Y=             -2.5329    Z=             -3.9293  Tot=              5.0638
 Quadrupole moment (field-independent basis, Debye-Ang):
   XX=            -82.3128   YY=            -95.0341   ZZ=            -98.8323
   XY=             -3.2336   XZ=             -9.7550   YZ=             -0.5194

 Normal termination of Gaussian 16 at Thu May  6 15:46:27 2021.
