 Gaussian 16, Revision A.03,
 Gaussian 16:  EM64L-G16RevA.03 25-Dec-2016

 -------------
 #p 6-31g* mp2
 -------------

 ------------------------------------------------------
 Input file generated by CHIRIPA (05-May-2021 14:53:14)
 ------------------------------------------------------
 Symbolic Z-matrix:
 Charge =  0 Multiplicity = 1

                         Standard orientation:
 ---------------------------------------------------------------------
 Center     Atomic      Atomic             Coordinates (Angstroms)
 Number     Number       Type             X           Y           Z
 ---------------------------------------------------------------------
      1          6           0       -3.244740   -0.547971    0.192974
      2          6           0       -2.621205   -1.502227   -0.826136
      3          6           0       -1.434433   -2.280931   -0.257819
      4          1           0       -2.477435    0.155286    0.544569
      5          1           0       -3.568834   -1.122122    1.072012
      6          1           0       -2.299637   -0.926636   -1.703578
      7          1           0       -3.390130   -2.203172   -1.175487
      8          1           0       -1.744102   -2.879695    0.604845
      9          1           0       -0.647412   -1.595906    0.073754
     10          1           0       -1.003922   -2.957013   -1.003093
     11          6           0       -4.432336    0.237650   -0.360326
     12          6           0       -5.055871    1.191906    0.658784
     13          6           0       -6.242643    1.970611    0.090467
     14          1           0       -4.108242    0.811802   -1.239364
     15          1           0       -5.199641   -0.465607   -0.711921
     16          1           0       -4.286946    1.892851    1.008135
     17          1           0       -5.377439    0.616315    1.536226
     18          1           0       -7.029663    1.285585   -0.241106
     19          1           0       -5.932974    2.569375   -0.772197
     20          1           0       -6.673154    2.646692    0.835741
     21          6           0        3.928465    2.421532   -0.393225
     22          6           0        3.742694    1.991580    0.924785
     23          6           0        3.228328    0.719075    1.190687
     24          6           0        2.908987   -0.101167    0.109707
     25          6           0        3.082621    0.298459   -1.214468
     26          6           0        3.598417    1.575092   -1.456770
     27          1           0        4.328593    3.411649   -0.590618
     28          1           0        3.998136    2.646802    1.752722
     29          1           0        3.074404    0.360855    2.201332
     30          1           0        2.818731   -0.377199   -2.018997
     31          1           0        3.741630    1.906340   -2.481373
     32          7           0        2.363693   -1.450496    0.378714
     33          8           0        2.090165   -2.154133   -0.591191
     34          8           0        2.220146   -1.778915    1.554371
 ---------------------------------------------------------------------

 SCF Done:  E(RHF) =  -669.535271646     A.U. after   15 cycles
 E2 =    -0.2091532196D+01 EUMP2 =    -0.67162680384174D+03

 The electronic state is 1-A.
 Alpha  occ. eigenvalues --  -20.60846 -20.60835 -15.85866 -11.31253 -11.27822
 Alpha  occ. eigenvalues --  -11.27818 -11.27566 -11.26837 -11.26828 -11.21309
 Alpha  occ. eigenvalues --  -11.20979 -11.20859 -11.20819 -11.20759 -11.19768
 Alpha  occ. eigenvalues --   -1.59910  -1.39462  -1.19426  -1.08820  -1.07908
 Alpha  occ. eigenvalues --   -1.04828  -1.02918  -0.95657  -0.95327  -0.86335
 Alpha  occ. eigenvalues --   -0.86225  -0.82485  -0.79001  -0.77699  -0.77532
 Alpha  occ. eigenvalues --   -0.72095  -0.71255  -0.70532  -0.65078  -0.64830
 Alpha  occ. eigenvalues --   -0.64552  -0.62174  -0.60326  -0.58750  -0.56936
 Alpha  occ. eigenvalues --   -0.55331  -0.54634  -0.53161  -0.52919  -0.51979
 Alpha  occ. eigenvalues --   -0.51750  -0.49333  -0.48854  -0.48815  -0.47292
 Alpha  occ. eigenvalues --   -0.46084  -0.45238  -0.45190  -0.44782  -0.43139
 Alpha  occ. eigenvalues --   -0.37408  -0.36432
 Alpha virt. eigenvalues --    0.04979   0.11221   0.16457   0.21357   0.23321
 Alpha virt. eigenvalues --    0.24926   0.27099   0.27275   0.27939   0.28161
 Alpha virt. eigenvalues --    0.28717   0.30880   0.31940   0.32253   0.32473

 Mulliken charges:
               1
     1  C   -0.296966
     2  C   -0.301812
     3  C   -0.467143
     4  H    0.146762
     5  H    0.150065
     6  H    0.146895
     7  H    0.149063
     8  H    0.154094
     9  H    0.153144
    10  H    0.168243
    11  C   -0.297410
    12  C   -0.298988
    13  C   -0.475281
    14  H    0.147144
    15  H    0.149283
    16  H    0.150138
    17  H    0.152208
    18  H    0.155206
    19  H    0.153823
    20  H    0.158921
    21  C   -0.170727
    22  C   -0.218599
    23  C   -0.171033
    24  C    0.157429
    25  C   -0.170986
    26  C   -0.218617
    27  H    0.225844
    28  H    0.223717
    29  H    0.275925
    30  H    0.275842
    31  H    0.223677
    32  N    0.486170
    33  O   -0.456898
    34  O   -0.459134
 Sum of Mulliken charges =  -0.00000

 Dipole moment (field-independent basis, Debye):
    X=              2.1288    Y=              4.6389    Z=             -0.9355  Tot=              5.1890
 Quadrupole moment (field-independent basis, Debye-Ang):
   XX=            -85.4285   YY=            -95.7887   ZZ=            -90.1590
   XY=             15.1753   XZ=             -2.7861   YZ=              1.5330

 Normal termination of Gaussian 16 at Thu May  6 17:06:48 2021.
