 Gaussian 16, Revision A.03,
 Gaussian 16:  EM64L-G16RevA.03 25-Dec-2016

 -------------
 #p 6-31g* mp2
 -------------

 ------------------------------------------------------
 Input file generated by CHIRIPA (05-May-2021 14:53:17)
 ------------------------------------------------------
 Symbolic Z-matrix:
 Charge =  0 Multiplicity = 1

                         Standard orientation:
 ---------------------------------------------------------------------
 Center     Atomic      Atomic             Coordinates (Angstroms)
 Number     Number       Type             X           Y           Z
 ---------------------------------------------------------------------
      1          6           0       -3.732838    0.893466    0.118638
      2          6           0       -2.393159    1.616948   -0.022141
      3          6           0       -2.540213    3.138844   -0.020995
      4          1           0       -4.395794    1.199829   -0.702079
      5          1           0       -4.219219    1.215070    1.049980
      6          1           0       -1.908817    1.293035   -0.952253
      7          1           0       -1.733248    1.308681    0.798898
      8          1           0       -3.000687    3.480679    0.911589
      9          1           0       -3.177253    3.464944   -0.849512
     10          1           0       -1.570470    3.635958   -0.122663
     11          6           0       -3.602254   -0.628597    0.119145
     12          6           0       -4.941933   -1.352080    0.259924
     13          6           0       -4.794879   -2.873976    0.258779
     14          1           0       -3.115872   -0.950202   -0.812197
     15          1           0       -2.939298   -0.934960    0.939862
     16          1           0       -5.601843   -1.043813   -0.561115
     17          1           0       -5.426275   -1.028167    1.190037
     18          1           0       -4.157839   -3.200076    1.087295
     19          1           0       -4.334405   -3.215811   -0.673806
     20          1           0       -5.764622   -3.371089    0.360446
     21          6           0        5.192073   -0.941122    0.407358
     22          6           0        4.846823    0.382573    0.699170
     23          6           0        3.560552    0.857521    0.426261
     24          6           0        2.640324   -0.022482   -0.141246
     25          6           0        2.954009   -1.346700   -0.443472
     26          6           0        4.246232   -1.800020   -0.162028
     27          1           0        6.193591   -1.301673    0.622675
     28          1           0        5.579329    1.051848    1.141382
     29          1           0        3.266540    1.877528    0.642037
     30          1           0        2.202237   -1.990222   -0.884082
     31          1           0        4.511555   -2.828517   -0.389716
     32          7           0        1.275455    0.468875   -0.434680
     33          8           0        0.482947   -0.326372   -0.934829
     34          8           0        1.024025    1.639944   -0.158968
 ---------------------------------------------------------------------

 SCF Done:  E(RHF) =  -669.535997185     A.U. after   15 cycles
 E2 =    -0.2092754112D+01 EUMP2 =    -0.67162875129653D+03

 The electronic state is 1-A.
 Alpha  occ. eigenvalues --  -20.61079 -20.61074 -15.86081 -11.31377 -11.27930
 Alpha  occ. eigenvalues --  -11.27926 -11.27659 -11.26927 -11.26917 -11.20543
 Alpha  occ. eigenvalues --  -11.20243 -11.19947 -11.19737 -11.19288 -11.19205
 Alpha  occ. eigenvalues --   -1.60116  -1.39674  -1.19536  -1.08948  -1.06906
 Alpha  occ. eigenvalues --   -1.04925  -1.01991  -0.95794  -0.94523  -0.86327
 Alpha  occ. eigenvalues --   -0.85566  -0.82630  -0.78110  -0.77684  -0.76569
 Alpha  occ. eigenvalues --   -0.72294  -0.71423  -0.70643  -0.65191  -0.64927
 Alpha  occ. eigenvalues --   -0.63566  -0.62272  -0.59415  -0.57952  -0.56086
 Alpha  occ. eigenvalues --   -0.55410  -0.53865  -0.53260  -0.53015  -0.51262
 Alpha  occ. eigenvalues --   -0.50937  -0.49147  -0.49045  -0.48537  -0.46337
 Alpha  occ. eigenvalues --   -0.45198  -0.45051  -0.44089  -0.43922  -0.42242
 Alpha  occ. eigenvalues --   -0.37511  -0.36524
 Alpha virt. eigenvalues --    0.04825   0.11132   0.16334   0.21268   0.24210
 Alpha virt. eigenvalues --    0.25783   0.27195   0.28091   0.28130   0.29103
 Alpha virt. eigenvalues --    0.29320   0.30859   0.32369   0.32760   0.33096

 Mulliken charges:
               1
     1  C   -0.300067
     2  C   -0.290975
     3  C   -0.478506
     4  H    0.143234
     5  H    0.141427
     6  H    0.170511
     7  H    0.150981
     8  H    0.144728
     9  H    0.146366
    10  H    0.167764
    11  C   -0.295496
    12  C   -0.298417
    13  C   -0.474311
    14  H    0.155774
    15  H    0.146794
    16  H    0.149448
    17  H    0.148480
    18  H    0.152673
    19  H    0.154335
    20  H    0.156078
    21  C   -0.170434
    22  C   -0.218583
    23  C   -0.170784
    24  C    0.159364
    25  C   -0.170703
    26  C   -0.218593
    27  H    0.226298
    28  H    0.224111
    29  H    0.275895
    30  H    0.276067
    31  H    0.224149
    32  N    0.488457
    33  O   -0.457875
    34  O   -0.458191
 Sum of Mulliken charges =  -0.00000

 Dipole moment (field-independent basis, Debye):
    X=              5.3681    Y=             -1.7682    Z=              0.9060  Tot=              5.7240
 Quadrupole moment (field-independent basis, Debye-Ang):
   XX=            -71.5970   YY=            -92.7473   ZZ=            -94.2558
   XY=             -3.3772   XZ=              3.1735   YZ=              2.0937

 Normal termination of Gaussian 16 at Thu May  6 09:06:33 2021.
