 Gaussian 16, Revision A.03,
 Gaussian 16:  EM64L-G16RevA.03 25-Dec-2016

 -------------
 #p 6-31g* mp2
 -------------

 ------------------------------------------------------
 Input file generated by CHIRIPA (05-May-2021 14:51:14)
 ------------------------------------------------------
 Symbolic Z-matrix:
 Charge =  0 Multiplicity = 1

                         Standard orientation:
 ---------------------------------------------------------------------
 Center     Atomic      Atomic             Coordinates (Angstroms)
 Number     Number       Type             X           Y           Z
 ---------------------------------------------------------------------
      1          6           0        2.187177   -1.222813    0.620208
      2          6           0        1.264473   -2.392837    0.277211
      3          6           0        0.928770   -3.257063    1.493028
      4          1           0        3.114412   -1.612669    1.062014
      5          1           0        1.710057   -0.602583    1.391614
      6          1           0        1.742586   -3.009904   -0.494315
      7          1           0        0.339406   -2.000161   -0.164006
      8          1           0        0.429141   -2.660796    2.263376
      9          1           0        1.840294   -3.676277    1.931190
     10          1           0        0.268116   -4.087518    1.225183
     11          6           0        2.531841   -0.349612   -0.584971
     12          6           0        3.454545    0.820412   -0.241974
     13          6           0        3.790248    1.684638   -1.457790
     14          1           0        3.008961   -0.969842   -1.356377
     15          1           0        1.604606    0.040244   -1.026776
     16          1           0        4.379612    0.427736    0.199243
     17          1           0        2.976432    1.437479    0.529552
     18          1           0        2.878724    2.103852   -1.895953
     19          1           0        4.289877    1.088371   -2.228139
     20          1           0        4.450902    2.515093   -1.189945
     21          6           0       -1.741201    1.228404    0.057171
     22          6           0       -1.964448    2.433304    0.971699
     23          6           0       -0.718430    3.308364    1.111343
     24          1           0       -0.910787    0.626320    0.450686
     25          1           0       -1.427825    1.582742   -0.934613
     26          1           0       -2.278647    2.076855    1.961061
     27          1           0       -2.794552    3.032487    0.576066
     28          1           0       -0.405582    3.691854    0.134786
     29          1           0        0.113255    2.730794    1.527651
     30          1           0       -0.900313    4.163822    1.769350
     31          6           0       -2.977817    0.344021   -0.092409
     32          6           0       -2.754570   -0.860879   -1.006936
     33          6           0       -4.000589   -1.735940   -1.146580
     34          1           0       -3.291193   -0.010316    0.899376
     35          1           0       -3.808231    0.946105   -0.485923
     36          1           0       -1.924466   -1.460062   -0.611304
     37          1           0       -2.440371   -0.504430   -1.996299
     38          1           0       -4.832274   -1.158368   -1.562888
     39          1           0       -4.313437   -2.119429   -0.170025
     40          1           0       -3.818705   -2.591397   -1.804587
 ---------------------------------------------------------------------

 SCF Done:  E(RHF) =  -470.733342714     A.U. after   11 cycles
 E2 =    -0.1584255354D+01 EUMP2 =    -0.47231759806807D+03

 The electronic state is 1-A.
 Alpha  occ. eigenvalues --  -11.21683 -11.21646 -11.21594 -11.21569 -11.21492
 Alpha  occ. eigenvalues --  -11.21425 -11.21399 -11.21316 -11.21155 -11.21106
 Alpha  occ. eigenvalues --  -11.21104 -11.21037  -1.08520  -1.08408  -1.03601
 Alpha  occ. eigenvalues --   -1.03518  -0.96047  -0.95970  -0.87062  -0.86987
 Alpha  occ. eigenvalues --   -0.79699  -0.79556  -0.78384  -0.78177  -0.65319
 Alpha  occ. eigenvalues --   -0.64888  -0.61089  -0.60842  -0.59426  -0.59324
 Alpha  occ. eigenvalues --   -0.57669  -0.57570  -0.55357  -0.55237  -0.52739
 Alpha  occ. eigenvalues --   -0.52664  -0.52485  -0.52380  -0.49994  -0.49925
 Alpha  occ. eigenvalues --   -0.48118  -0.47813  -0.46887  -0.46511  -0.46173
 Alpha  occ. eigenvalues --   -0.45800  -0.45693  -0.45262  -0.43852  -0.43770
 Alpha virt. eigenvalues --    0.19223   0.22292   0.23756   0.24815   0.25458
 Alpha virt. eigenvalues --    0.25904   0.27108   0.27360   0.28378   0.30077
 Alpha virt. eigenvalues --    0.31009   0.31464   0.31679   0.31790   0.32188

 Mulliken charges:
               1
     1  C   -0.298103
     2  C   -0.310334
     3  C   -0.475318
     4  H    0.149880
     5  H    0.148643
     6  H    0.152409
     7  H    0.160918
     8  H    0.154289
     9  H    0.155605
    10  H    0.160241
    11  C   -0.300708
    12  C   -0.300316
    13  C   -0.475558
    14  H    0.149320
    15  H    0.152922
    16  H    0.151661
    17  H    0.152660
    18  H    0.155309
    19  H    0.154934
    20  H    0.160222
    21  C   -0.303399
    22  C   -0.299705
    23  C   -0.476678
    24  H    0.153693
    25  H    0.149562
    26  H    0.152162
    27  H    0.152554
    28  H    0.155435
    29  H    0.155225
    30  H    0.160889
    31  C   -0.297740
    32  C   -0.308658
    33  C   -0.475100
    34  H    0.149598
    35  H    0.150105
    36  H    0.160326
    37  H    0.151913
    38  H    0.155302
    39  H    0.155314
    40  H    0.160527
 Sum of Mulliken charges =  -0.00000

 Dipole moment (field-independent basis, Debye):
    X=             -0.0342    Y=              0.0095    Z=             -0.0133  Tot=              0.0379
 Quadrupole moment (field-independent basis, Debye-Ang):
   XX=            -84.7742   YY=            -85.1279   ZZ=            -84.7609
   XY=             -1.5081   XZ=              0.1696   YZ=              0.1090

 Normal termination of Gaussian 16 at Thu May  6 05:38:03 2021.
