 Gaussian 16, Revision A.03,
 Gaussian 16:  EM64L-G16RevA.03 25-Dec-2016

 -------------
 #p 6-31g* mp2
 -------------

 ------------------------------------------------------
 Input file generated by CHIRIPA (05-May-2021 14:51:11)
 ------------------------------------------------------
 Symbolic Z-matrix:
 Charge =  0 Multiplicity = 1

                         Standard orientation:
 ---------------------------------------------------------------------
 Center     Atomic      Atomic             Coordinates (Angstroms)
 Number     Number       Type             X           Y           Z
 ---------------------------------------------------------------------
      1          6           0       -3.574095    0.224128   -0.544019
      2          6           0       -3.208849    1.706841   -0.465641
      3          6           0       -1.829567    2.007741   -1.052866
      4          1           0       -2.812099   -0.363207   -0.013600
      5          1           0       -3.543057   -0.098989   -1.593794
      6          1           0       -3.241916    2.027404    0.583532
      7          1           0       -3.971906    2.290731   -0.996144
      8          1           0       -1.787544    1.715313   -2.107058
      9          1           0       -1.053406    1.450489   -0.518408
     10          1           0       -1.588747    3.073322   -0.986523
     11          6           0       -4.950131   -0.092473    0.039090
     12          6           0       -5.315377   -1.575185   -0.039289
     13          6           0       -6.694659   -1.876085    0.547937
     14          1           0       -4.981170    0.230644    1.088864
     15          1           0       -5.712128    0.494863   -0.491329
     16          1           0       -4.552321   -2.159075    0.491214
     17          1           0       -5.282311   -1.895748   -1.088461
     18          1           0       -7.470820   -1.318834    0.013478
     19          1           0       -6.736683   -1.583657    1.602129
     20          1           0       -6.935479   -2.941667    0.481594
     21          6           0        3.512174    0.055477    0.173037
     22          6           0        2.921492    0.940733    1.270945
     23          6           0        1.420341    1.174263    1.098309
     24          1           0        3.321777    0.518739   -0.804758
     25          1           0        2.988025   -0.910258    0.168741
     26          1           0        3.447530    1.904003    1.274078
     27          1           0        3.113485    0.475406    2.246253
     28          1           0        0.877908    0.223461    1.116918
     29          1           0        1.213851    1.660176    0.139220
     30          1           0        1.018769    1.809574    1.893908
     31          6           0        5.012053   -0.187132    0.331893
     32          6           0        5.602735   -1.072388   -0.766015
     33          6           0        7.103886   -1.305918   -0.593379
     34          1           0        5.536201    0.778603    0.336188
     35          1           0        5.202450   -0.650395    1.309687
     36          1           0        5.410742   -0.607062   -1.741323
     37          1           0        5.076697   -2.035659   -0.769149
     38          1           0        7.310375   -1.791832    0.365709
     39          1           0        7.646319   -0.355117   -0.611989
     40          1           0        7.505457   -1.941230   -1.388980
 ---------------------------------------------------------------------

 SCF Done:  E(RHF) =  -470.732923205     A.U. after   11 cycles
 E2 =    -0.1582485799D+01 EUMP2 =    -0.47231540900346D+03

 The electronic state is 1-A.
 Alpha  occ. eigenvalues --  -11.21611 -11.21602 -11.21573 -11.21515 -11.21409
 Alpha  occ. eigenvalues --  -11.21357 -11.21350 -11.21295 -11.21086 -11.21072
 Alpha  occ. eigenvalues --  -11.21050 -11.20896  -1.08438  -1.08373  -1.03551
 Alpha  occ. eigenvalues --   -1.03457  -0.96028  -0.95885  -0.87080  -0.86875
 Alpha  occ. eigenvalues --   -0.79673  -0.79474  -0.78257  -0.78180  -0.65069
 Alpha  occ. eigenvalues --   -0.65004  -0.60972  -0.60843  -0.59360  -0.59283
 Alpha  occ. eigenvalues --   -0.57679  -0.57473  -0.55381  -0.55135  -0.52733
 Alpha  occ. eigenvalues --   -0.52617  -0.52544  -0.52187  -0.50038  -0.49742
 Alpha  occ. eigenvalues --   -0.48046  -0.47714  -0.46676  -0.46494  -0.45832
 Alpha  occ. eigenvalues --   -0.45718  -0.45690  -0.45587  -0.43792  -0.43723
 Alpha virt. eigenvalues --    0.22510   0.22919   0.23756   0.24621   0.26194
 Alpha virt. eigenvalues --    0.26500   0.27102   0.27615   0.27668   0.29048
 Alpha virt. eigenvalues --    0.30826   0.31000   0.31664   0.31798   0.32262

 Mulliken charges:
               1
     1  C   -0.298319
     2  C   -0.299014
     3  C   -0.484264
     4  H    0.149469
     5  H    0.149320
     6  H    0.151699
     7  H    0.151257
     8  H    0.153867
     9  H    0.167128
    10  H    0.158951
    11  C   -0.298248
    12  C   -0.299585
    13  C   -0.475669
    14  H    0.149455
    15  H    0.149576
    16  H    0.151759
    17  H    0.151854
    18  H    0.155152
    19  H    0.155132
    20  H    0.160113
    21  C   -0.298413
    22  C   -0.300101
    23  C   -0.478866
    24  H    0.150011
    25  H    0.149416
    26  H    0.152120
    27  H    0.151731
    28  H    0.153960
    29  H    0.159800
    30  H    0.160600
    31  C   -0.298291
    32  C   -0.299657
    33  C   -0.475712
    34  H    0.149571
    35  H    0.149608
    36  H    0.152043
    37  H    0.151924
    38  H    0.155152
    39  H    0.155197
    40  H    0.160275
 Sum of Mulliken charges =  -0.00000

 Dipole moment (field-independent basis, Debye):
    X=              0.0434    Y=              0.0031    Z=              0.0093  Tot=              0.0445
 Quadrupole moment (field-independent basis, Debye-Ang):
   XX=            -86.8595   YY=            -84.3285   ZZ=            -83.8121
   XY=              0.0833   XZ=              0.6135   YZ=             -0.4414

 Normal termination of Gaussian 16 at Thu May  6 00:41:42 2021.
