 Gaussian 16, Revision A.03,
 Gaussian 16:  EM64L-G16RevA.03 25-Dec-2016

 -------------
 #p 6-31g* mp2
 -------------

 ------------------------------------------------------
 Input file generated by CHIRIPA (05-May-2021 14:53:13)
 ------------------------------------------------------
 Symbolic Z-matrix:
 Charge =  0 Multiplicity = 1

                         Standard orientation:
 ---------------------------------------------------------------------
 Center     Atomic      Atomic             Coordinates (Angstroms)
 Number     Number       Type             X           Y           Z
 ---------------------------------------------------------------------
      1          6           0        3.642593    0.826055   -0.074790
      2          6           0        4.666473    1.630784    0.726499
      3          6           0        4.393879    3.134885    0.692316
      4          1           0        3.643630    1.176761   -1.115919
      5          1           0        2.637572    1.026591    0.321585
      6          1           0        5.669404    1.427723    0.329622
      7          1           0        4.663134    1.277992    1.765798
      8          1           0        3.405424    3.356787    1.107428
      9          1           0        4.417411    3.507368   -0.336909
     10          1           0        5.137687    3.690957    1.271446
     11          6           0        3.901727   -0.679259   -0.050164
     12          6           0        2.877846   -1.483989   -0.851454
     13          6           0        3.150441   -2.988089   -0.817270
     14          1           0        4.906748   -0.879795   -0.446539
     15          1           0        3.900689   -1.029965    0.990965
     16          1           0        2.881185   -1.131196   -1.890753
     17          1           0        1.874916   -1.280927   -0.454576
     18          1           0        3.126909   -3.360573    0.211954
     19          1           0        4.138896   -3.209991   -1.232382
     20          1           0        2.406632   -3.544162   -1.396401
     21          6           0       -1.711939   -2.071539    0.933998
     22          6           0       -2.817625   -1.568043    1.627158
     23          6           0       -3.509515   -0.452555    1.145990
     24          6           0       -3.066401    0.137383   -0.036767
     25          6           0       -1.968328   -0.340817   -0.750104
     26          6           0       -1.291560   -1.457403   -0.250333
     27          1           0       -1.180336   -2.938503    1.315006
     28          1           0       -3.146342   -2.042961    2.547181
     29          1           0       -4.368633   -0.042077    1.662558
     30          1           0       -1.664311    0.153988   -1.664521
     31          1           0       -0.433198   -1.846256   -0.790751
     32          7           0       -3.790869    1.318881   -0.556004
     33          8           0       -3.380507    1.820563   -1.600300
     34          8           0       -4.755352    1.720886    0.091146
 ---------------------------------------------------------------------

 SCF Done:  E(RHF) =  -669.535562254     A.U. after   15 cycles
 E2 =    -0.2091241501D+01 EUMP2 =    -0.67162680375550D+03

 The electronic state is 1-A.
 Alpha  occ. eigenvalues --  -20.60764 -20.60758 -15.85817 -11.31190 -11.27768
 Alpha  occ. eigenvalues --  -11.27756 -11.27507 -11.26778 -11.26737 -11.22462
 Alpha  occ. eigenvalues --  -11.21992 -11.21971 -11.21915 -11.21790 -11.21258
 Alpha  occ. eigenvalues --   -1.59839  -1.39392  -1.19366  -1.08987  -1.08758
 Alpha  occ. eigenvalues --   -1.04769  -1.04096  -0.96525  -0.95591  -0.87539
 Alpha  occ. eigenvalues --   -0.86167  -0.82424  -0.80193  -0.78766  -0.77465
 Alpha  occ. eigenvalues --   -0.72035  -0.71163  -0.70471  -0.65652  -0.65015
 Alpha  occ. eigenvalues --   -0.64764  -0.62160  -0.61451  -0.59927  -0.58132
 Alpha  occ. eigenvalues --   -0.55799  -0.55266  -0.53244  -0.53101  -0.52945
 Alpha  occ. eigenvalues --   -0.52859  -0.50455  -0.48805  -0.48790  -0.48473
 Alpha  occ. eigenvalues --   -0.47209  -0.46301  -0.46200  -0.44796  -0.44332
 Alpha  occ. eigenvalues --   -0.37345  -0.36362
 Alpha virt. eigenvalues --    0.05064   0.11177   0.16498   0.20145   0.22642
 Alpha virt. eigenvalues --    0.23735   0.25789   0.26343   0.27120   0.28273
 Alpha virt. eigenvalues --    0.28770   0.30092   0.30922   0.31466   0.32054

 Mulliken charges:
               1
     1  C   -0.299584
     2  C   -0.300098
     3  C   -0.476247
     4  H    0.151018
     5  H    0.150849
     6  H    0.152394
     7  H    0.151844
     8  H    0.156842
     9  H    0.156452
    10  H    0.161258
    11  C   -0.297576
    12  C   -0.306300
    13  C   -0.477217
    14  H    0.151913
    15  H    0.149855
    16  H    0.154443
    17  H    0.147109
    18  H    0.154795
    19  H    0.160770
    20  H    0.156272
    21  C   -0.172344
    22  C   -0.218600
    23  C   -0.170814
    24  C    0.158507
    25  C   -0.172266
    26  C   -0.222107
    27  H    0.225955
    28  H    0.223394
    29  H    0.275650
    30  H    0.276149
    31  H    0.230365
    32  N    0.488092
    33  O   -0.460263
    34  O   -0.460510
 Sum of Mulliken charges =  -0.00000

 Dipole moment (field-independent basis, Debye):
    X=              2.6799    Y=             -4.1017    Z=              1.8421  Tot=              5.2344
 Quadrupole moment (field-independent basis, Debye-Ang):
   XX=           -107.9994   YY=            -97.7820   ZZ=            -91.4808
   XY=             13.5772   XZ=             -9.1367   YZ=             -0.0264

 Normal termination of Gaussian 16 at Thu May  6 12:02:41 2021.
