 Gaussian 16, Revision A.03,
 Gaussian 16:  EM64L-G16RevA.03 25-Dec-2016

 -------------
 #p 6-31g* mp2
 -------------

 ------------------------------------------------------
 Input file generated by CHIRIPA (05-May-2021 14:57:23)
 ------------------------------------------------------
 Symbolic Z-matrix:
 Charge =  0 Multiplicity = 1

                         Standard orientation:
 ---------------------------------------------------------------------
 Center     Atomic      Atomic             Coordinates (Angstroms)
 Number     Number       Type             X           Y           Z
 ---------------------------------------------------------------------
      1          6           0       -2.717710    2.493848   -0.442865
      2          6           0       -3.342879    1.701155    0.525290
      3          6           0       -3.135560    0.318842    0.553169
      4          6           0       -2.293005   -0.240122   -0.406493
      5          6           0       -1.655819    0.522942   -1.383743
      6          6           0       -1.877657    1.903253   -1.392617
      7          1           0       -2.884400    3.566884   -0.457140
      8          1           0       -3.995792    2.157094    1.264119
      9          1           0       -3.606913   -0.318407    1.291517
     10          1           0       -1.010410    0.039728   -2.107185
     11          1           0       -1.390819    2.516397   -2.145669
     12          7           0       -2.065841   -1.702455   -0.387039
     13          8           0       -1.318951   -2.170663   -1.243528
     14          8           0       -2.638981   -2.352735    0.484330
     15          6           0        0.987932   -0.147582    2.540911
     16          6           0        0.959349   -1.201468    1.621656
     17          6           0        1.699241   -1.131033    0.437533
     18          6           0        2.460234    0.013294    0.203662
     19          6           0        2.509286    1.079828    1.099982
     20          6           0        1.761445    0.987701    2.277604
     21          1           0        0.410078   -0.210724    3.458241
     22          1           0        0.359524   -2.084366    1.823511
     23          1           0        1.695268   -1.932338   -0.291379
     24          1           0        3.116653    1.947064    0.871019
     25          1           0        1.785545    1.807689    2.989701
     26          7           0        3.247732    0.099343   -1.046475
     27          8           0        3.910205    1.118371   -1.229093
     28          8           0        3.187589   -0.853870   -1.820043
 ---------------------------------------------------------------------

 SCF Done:  E(RHF) =  -868.339872783     A.U. after   16 cycles
 E2 =    -0.2601804699D+01 EUMP2 =    -0.87094167748226D+03

 The electronic state is 1-A.
 Alpha  occ. eigenvalues --  -20.61448 -20.61435 -20.60635 -20.60607 -15.86445
 Alpha  occ. eigenvalues --  -15.85670 -11.31552 -11.30924 -11.28143 -11.28034
 Alpha  occ. eigenvalues --  -11.27807 -11.27581 -11.27352 -11.27261 -11.27108
 Alpha  occ. eigenvalues --  -11.27010 -11.26564 -11.26334  -1.60510  -1.59709
 Alpha  occ. eigenvalues --   -1.40068  -1.39259  -1.19707  -1.19109  -1.09157
 Alpha  occ. eigenvalues --   -1.08532  -1.05074  -1.04473  -0.96034  -0.95372
 Alpha  occ. eigenvalues --   -0.86487  -0.85877  -0.82875  -0.82191  -0.77952
 Alpha  occ. eigenvalues --   -0.77245  -0.72679  -0.71893  -0.71828  -0.71045
 Alpha  occ. eigenvalues --   -0.70823  -0.70196  -0.65370  -0.65078  -0.64746
 Alpha  occ. eigenvalues --   -0.64439  -0.62422  -0.61766  -0.55597  -0.55000
 Alpha  occ. eigenvalues --   -0.53515  -0.53164  -0.52746  -0.52529  -0.49456
 Alpha  occ. eigenvalues --   -0.49418  -0.48652  -0.48632  -0.45529  -0.44685
 Alpha  occ. eigenvalues --   -0.37744  -0.37158  -0.36606  -0.36022
 Alpha virt. eigenvalues --    0.04502   0.05240   0.10848   0.11688   0.16057
 Alpha virt. eigenvalues --    0.16733   0.21107   0.21859   0.27071   0.27591
 Alpha virt. eigenvalues --    0.28179   0.28697   0.30755   0.31289   0.32043

 Mulliken charges:
               1
     1  C   -0.170367
     2  C   -0.219327
     3  C   -0.173267
     4  C    0.160371
     5  C   -0.170467
     6  C   -0.218827
     7  H    0.226690
     8  H    0.222702
     9  H    0.272807
    10  H    0.280596
    11  H    0.228050
    12  N    0.487551
    13  O   -0.459510
    14  O   -0.464769
    15  C   -0.169986
    16  C   -0.233655
    17  C   -0.171288
    18  C    0.154491
    19  C   -0.172255
    20  C   -0.219189
    21  H    0.224654
    22  H    0.238611
    23  H    0.288518
    24  H    0.272691
    25  H    0.220138
    26  N    0.486742
    27  O   -0.464397
    28  O   -0.457309
 Sum of Mulliken charges =  -0.00000

 Dipole moment (field-independent basis, Debye):
    X=             -3.6576    Y=              4.7496    Z=              4.1906  Tot=              7.3143
 Quadrupole moment (field-independent basis, Debye-Ang):
   XX=           -114.2219   YY=           -103.6835   ZZ=           -100.3157
   XY=            -11.1207   XZ=              8.6331   YZ=             -1.2547

 Normal termination of Gaussian 16 at Thu May  6 01:50:53 2021.
