 Gaussian 16, Revision A.03,
 Gaussian 16:  EM64L-G16RevA.03 25-Dec-2016

 -------------
 #p 6-31g* mp2
 -------------

 ------------------------------------------------------
 Input file generated by CHIRIPA (05-May-2021 14:55:21)
 ------------------------------------------------------
 Symbolic Z-matrix:
 Charge =  0 Multiplicity = 1

                         Standard orientation:
 ---------------------------------------------------------------------
 Center     Atomic      Atomic             Coordinates (Angstroms)
 Number     Number       Type             X           Y           Z
 ---------------------------------------------------------------------
      1          6           0       -5.003740   -1.039935   -0.462662
      2          6           0       -4.773417    0.331917   -0.609278
      3          6           0       -3.527451    0.880634   -0.291432
      4          6           0       -2.529897    0.024493    0.172462
      5          6           0       -2.728585   -1.346359    0.329238
      6          6           0       -3.982389   -1.873225    0.005303
      7          1           0       -5.974681   -1.457705   -0.711938
      8          1           0       -5.564757    0.981457   -0.972488
      9          1           0       -3.321976    1.939109   -0.395496
     10          1           0       -1.920204   -1.968599    0.693596
     11          1           0       -4.158413   -2.938997    0.120156
     12          7           0       -1.206699    0.593829    0.512175
     13          8           0       -0.344344   -0.181754    0.918932
     14          8           0       -1.056987    1.804877    0.365252
     15          6           0        3.631569    0.838540   -0.239774
     16          6           0        2.372714    1.675650   -0.010610
     17          6           0        2.617089    3.173591   -0.195674
     18          1           0        4.416811    1.171690    0.452576
     19          1           0        4.008995    1.026819   -1.254415
     20          1           0        1.996990    1.484797    1.002811
     21          1           0        1.590316    1.340339   -0.703456
     22          1           0        2.970047    3.383854   -1.210470
     23          1           0        3.379031    3.529132    0.505492
     24          1           0        1.704088    3.753145   -0.027136
     25          6           0        3.403249   -0.661027   -0.058398
     26          6           0        4.662103   -1.498138   -0.287563
     27          6           0        4.417729   -2.996079   -0.102498
     28          1           0        3.025822   -0.849307    0.956242
     29          1           0        2.618006   -0.994178   -0.750750
     30          1           0        5.444502   -1.162827    0.405283
     31          1           0        5.037828   -1.307285   -1.300984
     32          1           0        3.655786   -3.351621   -0.803664
     33          1           0        4.064771   -3.206342    0.912298
     34          1           0        5.330730   -3.575633   -0.271037
 ---------------------------------------------------------------------

 SCF Done:  E(RHF) =  -669.535588253     A.U. after   15 cycles
 E2 =    -0.2093127291D+01 EUMP2 =    -0.67162871554332D+03

 The electronic state is 1-A.
 Alpha  occ. eigenvalues --  -20.61067 -20.61058 -15.86062 -11.31370 -11.27924
 Alpha  occ. eigenvalues --  -11.27920 -11.27655 -11.26923 -11.26913 -11.20542
 Alpha  occ. eigenvalues --  -11.20267 -11.19909 -11.19747 -11.19314 -11.19242
 Alpha  occ. eigenvalues --   -1.60106  -1.39663  -1.19531  -1.08942  -1.06903
 Alpha  occ. eigenvalues --   -1.04921  -1.02011  -0.95786  -0.94541  -0.86323
 Alpha  occ. eigenvalues --   -0.85583  -0.82624  -0.78123  -0.77671  -0.76574
 Alpha  occ. eigenvalues --   -0.72278  -0.71416  -0.70637  -0.65185  -0.64922
 Alpha  occ. eigenvalues --   -0.63566  -0.62267  -0.59436  -0.57968  -0.56099
 Alpha  occ. eigenvalues --   -0.55407  -0.53883  -0.53256  -0.53011  -0.51287
 Alpha  occ. eigenvalues --   -0.50961  -0.49161  -0.49040  -0.48560  -0.46328
 Alpha  occ. eigenvalues --   -0.45197  -0.45048  -0.44057  -0.43926  -0.42253
 Alpha  occ. eigenvalues --   -0.37504  -0.36520
 Alpha virt. eigenvalues --    0.04820   0.11135   0.16325   0.21272   0.24199
 Alpha virt. eigenvalues --    0.25751   0.27199   0.28069   0.28124   0.29107
 Alpha virt. eigenvalues --    0.29301   0.30883   0.32389   0.32713   0.33082

 Mulliken charges:
               1
     1  C   -0.170454
     2  C   -0.218593
     3  C   -0.170806
     4  C    0.159882
     5  C   -0.170930
     6  C   -0.218595
     7  H    0.226282
     8  H    0.224090
     9  H    0.275912
    10  H    0.276152
    11  H    0.224158
    12  N    0.487115
    13  O   -0.457041
    14  O   -0.458216
    15  C   -0.300750
    16  C   -0.286890
    17  C   -0.478404
    18  H    0.142955
    19  H    0.141106
    20  H    0.167366
    21  H    0.151262
    22  H    0.144897
    23  H    0.146569
    24  H    0.166526
    25  C   -0.294007
    26  C   -0.298638
    27  C   -0.474047
    28  H    0.155774
    29  H    0.147689
    30  H    0.149254
    31  H    0.148097
    32  H    0.152028
    33  H    0.154286
    34  H    0.155972
 Sum of Mulliken charges =  -0.00000

 Dipole moment (field-independent basis, Debye):
    X=             -5.1950    Y=             -2.0179    Z=             -1.0277  Tot=              5.6671
 Quadrupole moment (field-independent basis, Debye-Ang):
   XX=            -73.0118   YY=            -92.8399   ZZ=            -94.8161
   XY=              3.2502   XZ=              3.5708   YZ=             -1.3939

 Normal termination of Gaussian 16 at Thu May  6 17:29:19 2021.
