 Gaussian 16, Revision A.03,
 Gaussian 16:  EM64L-G16RevA.03 25-Dec-2016

 -------------
 #p 6-31g* mp2
 -------------

 ------------------------------------------------------
 Input file generated by CHIRIPA (05-May-2021 14:53:11)
 ------------------------------------------------------
 Symbolic Z-matrix:
 Charge =  0 Multiplicity = 1

                         Standard orientation:
 ---------------------------------------------------------------------
 Center     Atomic      Atomic             Coordinates (Angstroms)
 Number     Number       Type             X           Y           Z
 ---------------------------------------------------------------------
      1          6           0       -3.224626   -0.950709    0.168236
      2          6           0       -1.921657   -0.978397   -0.631445
      3          6           0       -0.865091   -1.891396   -0.008631
      4          1           0       -3.010949   -0.620179    1.193924
      5          1           0       -3.621150   -1.972579    0.245351
      6          1           0       -1.528430    0.043413   -0.708210
      7          1           0       -2.138490   -1.308717   -1.655402
      8          1           0       -1.233384   -2.920538    0.053250
      9          1           0       -0.619858   -1.560726    1.005824
     10          1           0        0.058161   -1.896229   -0.596374
     11          6           0       -4.290671   -0.042363   -0.441831
     12          6           0       -5.593641   -0.014675    0.357850
     13          6           0       -6.650206    0.898324   -0.264964
     14          1           0       -3.894147    0.979507   -0.518946
     15          1           0       -4.504349   -0.372893   -1.467519
     16          1           0       -5.376807    0.315645    1.381807
     17          1           0       -5.986867   -1.036485    0.434615
     18          1           0       -6.895439    0.567654   -1.279419
     19          1           0       -6.281913    1.927466   -0.326845
     20          1           0       -7.573458    0.903157    0.322779
     21          6           0        1.570594    2.492283    0.379200
     22          6           0        1.222596    1.335915    1.085055
     23          6           0        1.971759    0.164245    0.941906
     24          6           0        3.067632    0.184476    0.080545
     25          6           0        3.439605    1.320662   -0.636398
     26          6           0        2.676039    2.480986   -0.477764
     27          1           0        0.983033    3.398058    0.496416
     28          1           0        0.364603    1.341777    1.751281
     29          1           0        1.724632   -0.745035    1.476281
     30          1           0        4.300263    1.284133   -1.293172
     31          1           0        2.948635    3.377564   -1.027205
     32          7           0        3.868361   -1.049913   -0.079197
     33          8           0        4.829296   -1.006181   -0.844266
     34          8           0        3.519876   -2.037784    0.563690
 ---------------------------------------------------------------------

 SCF Done:  E(RHF) =  -669.535049798     A.U. after   15 cycles
 E2 =    -0.2092439364D+01 EUMP2 =    -0.67162748916229D+03

 The electronic state is 1-A.
 Alpha  occ. eigenvalues --  -20.60774 -20.60765 -15.85822 -11.31174 -11.27773
 Alpha  occ. eigenvalues --  -11.27741 -11.27531 -11.26781 -11.26766 -11.21946
 Alpha  occ. eigenvalues --  -11.21915 -11.21786 -11.21727 -11.21389 -11.21344
 Alpha  occ. eigenvalues --   -1.59846  -1.39398  -1.19371  -1.08793  -1.08765
 Alpha  occ. eigenvalues --   -1.04782  -1.03856  -0.96317  -0.95594  -0.87335
 Alpha  occ. eigenvalues --   -0.86166  -0.82430  -0.79924  -0.78606  -0.77472
 Alpha  occ. eigenvalues --   -0.72040  -0.71171  -0.70488  -0.65443  -0.65022
 Alpha  occ. eigenvalues --   -0.64781  -0.62195  -0.61217  -0.59666  -0.57915
 Alpha  occ. eigenvalues --   -0.55664  -0.55256  -0.53204  -0.52967  -0.52752
 Alpha  occ. eigenvalues --   -0.52711  -0.50251  -0.48799  -0.48794  -0.48235
 Alpha  occ. eigenvalues --   -0.46965  -0.46145  -0.46081  -0.44808  -0.44104
 Alpha  occ. eigenvalues --   -0.37352  -0.36330
 Alpha virt. eigenvalues --    0.05054   0.11228   0.16463   0.20374   0.22668
 Alpha virt. eigenvalues --    0.23933   0.25719   0.26533   0.27236   0.28015
 Alpha virt. eigenvalues --    0.28726   0.30372   0.31317   0.31489   0.32261

 Mulliken charges:
               1
     1  C   -0.297906
     2  C   -0.302158
     3  C   -0.473899
     4  H    0.144577
     5  H    0.152300
     6  H    0.149543
     7  H    0.154929
     8  H    0.159566
     9  H    0.142453
    10  H    0.167685
    11  C   -0.297789
    12  C   -0.299670
    13  C   -0.475699
    14  H    0.146346
    15  H    0.151571
    16  H    0.150520
    17  H    0.153606
    18  H    0.156274
    19  H    0.153905
    20  H    0.161173
    21  C   -0.171111
    22  C   -0.219083
    23  C   -0.167303
    24  C    0.156052
    25  C   -0.170614
    26  C   -0.218954
    27  H    0.225554
    28  H    0.223029
    29  H    0.278587
    30  H    0.275636
    31  H    0.223405
    32  N    0.488118
    33  O   -0.460501
    34  O   -0.460143
 Sum of Mulliken charges =  -0.00000

 Dipole moment (field-independent basis, Debye):
    X=             -2.8354    Y=              4.2756    Z=              0.4925  Tot=              5.1539
 Quadrupole moment (field-independent basis, Debye-Ang):
   XX=           -111.2730   YY=            -92.1070   ZZ=            -92.9330
   XY=             15.4923   XZ=             -0.6695   YZ=             -0.5647

 Normal termination of Gaussian 16 at Thu May  6 00:54:46 2021.
