 Gaussian 16, Revision A.03,
 Gaussian 16:  EM64L-G16RevA.03 25-Dec-2016

 -------------
 #p 6-31g* mp2
 -------------

 ------------------------------------------------------
 Input file generated by CHIRIPA (05-May-2021 14:55:19)
 ------------------------------------------------------
 Symbolic Z-matrix:
 Charge =  0 Multiplicity = 1

                         Standard orientation:
 ---------------------------------------------------------------------
 Center     Atomic      Atomic             Coordinates (Angstroms)
 Number     Number       Type             X           Y           Z
 ---------------------------------------------------------------------
      1          6           0       -4.455648    0.763589   -1.173049
      2          6           0       -4.539258    0.632272    0.217018
      3          6           0       -3.486926    0.064052    0.941085
      4          6           0       -2.360780   -0.364084    0.239811
      5          6           0       -2.247620   -0.246927   -1.144659
      6          6           0       -3.312112    0.324344   -1.848261
      7          1           0       -5.277847    1.206181   -1.727572
      8          1           0       -5.426123    0.972517    0.744036
      9          1           0       -3.525309   -0.049676    2.017658
     10          1           0       -1.350697   -0.595352   -1.642200
     11          1           0       -3.244417    0.425061   -2.927760
     12          7           0       -1.240287   -0.967248    0.995516
     13          8           0       -0.259001   -1.336625    0.354208
     14          8           0       -1.364547   -1.059210    2.214835
     15          6           0        2.974921   -0.368980   -0.195164
     16          6           0        4.028039   -1.421408   -0.543477
     17          6           0        3.446039   -2.832316   -0.635160
     18          1           0        2.501995   -0.634868    0.760131
     19          1           0        2.180394   -0.390286   -0.953893
     20          1           0        4.821041   -1.397174    0.214928
     21          1           0        4.498648   -1.152880   -1.497960
     22          1           0        2.668961   -2.879227   -1.404933
     23          1           0        2.993186   -3.124908    0.317686
     24          1           0        4.216096   -3.568785   -0.885134
     25          6           0        3.541433    1.046548   -0.099907
     26          6           0        2.488315    2.098976    0.248406
     27          6           0        3.070316    3.509884    0.340088
     28          1           0        4.335961    1.067855    0.658821
     29          1           0        4.014359    1.312436   -1.055203
     30          1           0        2.017707    1.830449    1.202888
     31          1           0        1.695313    2.074742   -0.509999
     32          1           0        3.523168    3.802476   -0.612758
     33          1           0        3.847392    3.556794    1.109862
     34          1           0        2.300258    4.246353    0.590062
 ---------------------------------------------------------------------

 SCF Done:  E(RHF) =  -669.535546745     A.U. after   15 cycles
 E2 =    -0.2092025602D+01 EUMP2 =    -0.67162757234715D+03

 The electronic state is 1-A.
 Alpha  occ. eigenvalues --  -20.60929 -20.60894 -15.85936 -11.31279 -11.27848
 Alpha  occ. eigenvalues --  -11.27840 -11.27582 -11.26856 -11.26845 -11.20891
 Alpha  occ. eigenvalues --  -11.20551 -11.20487 -11.20449 -11.19919 -11.19876
 Alpha  occ. eigenvalues --   -1.59977  -1.39532  -1.19448  -1.08851  -1.07394
 Alpha  occ. eigenvalues --   -1.04848  -1.02594  -0.95693  -0.95021  -0.86248
 Alpha  occ. eigenvalues --   -0.86041  -0.82532  -0.78689  -0.77622  -0.77079
 Alpha  occ. eigenvalues --   -0.72150  -0.71285  -0.70558  -0.65104  -0.64853
 Alpha  occ. eigenvalues --   -0.64044  -0.62197  -0.60010  -0.58419  -0.56622
 Alpha  occ. eigenvalues --   -0.55352  -0.54312  -0.53178  -0.52941  -0.51791
 Alpha  occ. eigenvalues --   -0.51427  -0.49051  -0.48930  -0.48866  -0.46987
 Alpha  occ. eigenvalues --   -0.45739  -0.45208  -0.44566  -0.44317  -0.42801
 Alpha  occ. eigenvalues --   -0.37425  -0.36449
 Alpha virt. eigenvalues --    0.04942   0.11199   0.16427   0.21194   0.23671
 Alpha virt. eigenvalues --    0.25136   0.26526   0.27559   0.28094   0.28808
 Alpha virt. eigenvalues --    0.29033   0.31053   0.32117   0.32406   0.32685

 Mulliken charges:
               1
     1  C   -0.170621
     2  C   -0.218521
     3  C   -0.170717
     4  C    0.158357
     5  C   -0.170795
     6  C   -0.218518
     7  H    0.225943
     8  H    0.223763
     9  H    0.275768
    10  H    0.275321
    11  H    0.223724
    12  N    0.490516
    13  O   -0.459857
    14  O   -0.460471
    15  C   -0.296755
    16  C   -0.300302
    17  C   -0.472859
    18  H    0.168360
    19  H    0.148777
    20  H    0.148128
    21  H    0.144666
    22  H    0.153393
    23  H    0.164085
    24  H    0.152810
    25  C   -0.298459
    26  C   -0.297782
    27  C   -0.474817
    28  H    0.147076
    29  H    0.143714
    30  H    0.155778
    31  H    0.146043
    32  H    0.152584
    33  H    0.155083
    34  H    0.156585
 Sum of Mulliken charges =  -0.00000

 Dipole moment (field-independent basis, Debye):
    X=             -4.2223    Y=              1.9865    Z=             -2.5165  Tot=              5.3016
 Quadrupole moment (field-independent basis, Debye-Ang):
   XX=            -76.4691   YY=            -98.8118   ZZ=            -91.6489
   XY=             -4.6269   XZ=              3.6679   YZ=              1.6675

 Normal termination of Gaussian 16 at Thu May  6 06:05:34 2021.
