 Gaussian 16, Revision A.03,
 Gaussian 16:  EM64L-G16RevA.03 25-Dec-2016

 -------------
 #p 6-31g* mp2
 -------------

 ------------------------------------------------------
 Input file generated by CHIRIPA (05-May-2021 14:57:22)
 ------------------------------------------------------
 Symbolic Z-matrix:
 Charge =  0 Multiplicity = 1

                         Standard orientation:
 ---------------------------------------------------------------------
 Center     Atomic      Atomic             Coordinates (Angstroms)
 Number     Number       Type             X           Y           Z
 ---------------------------------------------------------------------
      1          6           0       -2.468856    1.635202   -1.009228
      2          6           0       -2.107507    0.286227   -0.930402
      3          6           0       -3.007308   -0.662051   -0.434745
      4          6           0       -4.265795   -0.224452   -0.024857
      5          6           0       -4.655361    1.112394   -0.090968
      6          6           0       -3.739389    2.043261   -0.589998
      7          1           0       -1.763588    2.365085   -1.395577
      8          1           0       -1.121477   -0.033548   -1.255260
      9          1           0       -2.753634   -1.712710   -0.362757
     10          1           0       -5.645474    1.400912    0.240469
     11          1           0       -4.022750    3.090230   -0.650066
     12          7           0       -5.226933   -1.219135    0.501659
     13          8           0       -6.329591   -0.808070    0.856352
     14          8           0       -4.859415   -2.390997    0.549679
     15          6           0        2.124456    1.551416    0.571110
     16          6           0        3.195243    1.513850    1.470289
     17          6           0        4.299115    0.691492    1.225873
     18          6           0        4.299090   -0.083619    0.067213
     19          6           0        3.247507   -0.068098   -0.847785
     20          6           0        2.153952    0.761715   -0.583023
     21          1           0        1.270949    2.193139    0.768881
     22          1           0        3.175055    2.126062    2.367415
     23          1           0        5.141557    0.643080    1.905114
     24          1           0        3.296297   -0.689773   -1.733539
     25          1           0        1.323777    0.788862   -1.283106
     26          7           0        5.462248   -0.958159   -0.202310
     27          8           0        5.438025   -1.631414   -1.230306
     28          8           0        6.376132   -0.953808    0.619540
 ---------------------------------------------------------------------

 SCF Done:  E(RHF) =  -868.336424009     A.U. after   16 cycles
 E2 =    -0.2599800067D+01 EUMP2 =    -0.87093622407637D+03

 The electronic state is 1-A.
 Alpha  occ. eigenvalues --  -20.61291 -20.61285 -20.61256 -20.61249 -15.86350
 Alpha  occ. eigenvalues --  -15.86317 -11.31881 -11.31822 -11.28481 -11.28479
 Alpha  occ. eigenvalues --  -11.28452 -11.28394 -11.28340 -11.28249 -11.27624
 Alpha  occ. eigenvalues --  -11.27611 -11.27522 -11.27417  -1.60363  -1.60328
 Alpha  occ. eigenvalues --   -1.39911  -1.39878  -1.20087  -1.20032  -1.09476
 Alpha  occ. eigenvalues --   -1.09405  -1.05517  -1.05464  -0.96271  -0.96208
 Alpha  occ. eigenvalues --   -0.86964  -0.86831  -0.83100  -0.83041  -0.78128
 Alpha  occ. eigenvalues --   -0.78034  -0.72567  -0.72532  -0.71688  -0.71654
 Alpha  occ. eigenvalues --   -0.71245  -0.71135  -0.65810  -0.65727  -0.65687
 Alpha  occ. eigenvalues --   -0.65308  -0.62959  -0.62699  -0.56096  -0.55960
 Alpha  occ. eigenvalues --   -0.53850  -0.53794  -0.53726  -0.53433  -0.49345
 Alpha  occ. eigenvalues --   -0.49309  -0.49298  -0.49277  -0.45279  -0.45252
 Alpha  occ. eigenvalues --   -0.38129  -0.38009  -0.37124  -0.37049
 Alpha virt. eigenvalues --    0.04438   0.04499   0.10369   0.10648   0.15863
 Alpha virt. eigenvalues --    0.15905   0.17786   0.22032   0.24626   0.26508
 Alpha virt. eigenvalues --    0.27734   0.29021   0.29548   0.31164   0.31669

 Mulliken charges:
               1
     1  C   -0.174264
     2  C   -0.221132
     3  C   -0.169880
     4  C    0.159393
     5  C   -0.170145
     6  C   -0.218094
     7  H    0.220656
     8  H    0.219871
     9  H    0.278938
    10  H    0.277967
    11  H    0.225147
    12  N    0.487834
    13  O   -0.458632
    14  O   -0.458110
    15  C   -0.169666
    16  C   -0.218243
    17  C   -0.169172
    18  C    0.159100
    19  C   -0.170116
    20  C   -0.221418
    21  H    0.224118
    22  H    0.226079
    23  H    0.278254
    24  H    0.276657
    25  H    0.214357
    26  N    0.488058
    27  O   -0.459336
    28  O   -0.458222
 Sum of Mulliken charges =  -0.00000

 Dipole moment (field-independent basis, Debye):
    X=             -0.7150    Y=              6.5145    Z=             -0.7472  Tot=              6.5960
 Quadrupole moment (field-independent basis, Debye-Ang):
   XX=           -164.7455   YY=           -104.6766   ZZ=           -101.9314
   XY=             -4.1295   XZ=             13.4264   YZ=              2.7637

 Normal termination of Gaussian 16 at Fri May  7 06:25:34 2021.
