 Gaussian 16, Revision A.03,
 Gaussian 16:  EM64L-G16RevA.03 25-Dec-2016

 -------------
 #p 6-31g* mp2
 -------------

 ------------------------------------------------------
 Input file generated by CHIRIPA (05-May-2021 14:57:23)
 ------------------------------------------------------
 Symbolic Z-matrix:
 Charge =  0 Multiplicity = 1

                         Standard orientation:
 ---------------------------------------------------------------------
 Center     Atomic      Atomic             Coordinates (Angstroms)
 Number     Number       Type             X           Y           Z
 ---------------------------------------------------------------------
      1          6           0        1.942665   -1.319907    1.763008
      2          6           0        2.597018   -2.096475    0.801090
      3          6           0        3.456071   -1.501257   -0.127507
      4          6           0        3.638531   -0.120639   -0.065128
      5          6           0        3.000945    0.680066    0.881257
      6          6           0        2.146357    0.063446    1.799956
      7          1           0        1.277066   -1.790599    2.480520
      8          1           0        2.440722   -3.171022    0.770031
      9          1           0        3.975321   -2.078633   -0.882778
     10          1           0        3.176711    1.748938    0.887302
     11          1           0        1.639506    0.669035    2.545885
     12          7           0        4.545608    0.520820   -1.042953
     13          8           0        4.689502    1.739080   -0.966962
     14          8           0        5.095505   -0.206811   -1.866849
     15          6           0       -1.604149    1.725701    0.655708
     16          6           0       -2.874671    2.262099    0.422101
     17          6           0       -3.926466    1.440773    0.005327
     18          6           0       -3.671257    0.081408   -0.168704
     19          6           0       -2.416486   -0.482849    0.055914
     20          6           0       -1.379507    0.357352    0.472192
     21          1           0       -0.792845    2.371057    0.979275
     22          1           0       -3.052034    3.324410    0.563807
     23          1           0       -4.919839    1.829712   -0.182696
     24          1           0       -2.270276   -1.545669   -0.093931
     25          1           0       -0.393828   -0.061981    0.652861
     26          7           0       -4.776902   -0.798083   -0.609662
     27          8           0       -4.526235   -1.992430   -0.755734
     28          8           0       -5.873240   -0.276428   -0.800861
 ---------------------------------------------------------------------

 SCF Done:  E(RHF) =  -868.336804390     A.U. after   16 cycles
 E2 =    -0.2601692452D+01 EUMP2 =    -0.87093849684273D+03

 The electronic state is 1-A.
 Alpha  occ. eigenvalues --  -20.61574 -20.61562 -20.61036 -20.61027 -15.86632
 Alpha  occ. eigenvalues --  -15.86085 -11.32234 -11.31478 -11.28876 -11.28777
 Alpha  occ. eigenvalues --  -11.28605 -11.28032 -11.28020 -11.27948 -11.27826
 Alpha  occ. eigenvalues --  -11.27802 -11.27066 -11.26915  -1.60640  -1.60108
 Alpha  occ. eigenvalues --   -1.40187  -1.39661  -1.20454  -1.19638  -1.09810
 Alpha  occ. eigenvalues --   -1.09037  -1.05880  -1.05036  -0.96585  -0.95875
 Alpha  occ. eigenvalues --   -0.87268  -0.86433  -0.83402  -0.82699  -0.78408
 Alpha  occ. eigenvalues --   -0.77743  -0.72844  -0.72304  -0.71967  -0.71517
 Alpha  occ. eigenvalues --   -0.71430  -0.70786  -0.66092  -0.65877  -0.65288
 Alpha  occ. eigenvalues --   -0.65052  -0.63188  -0.62411  -0.56342  -0.55598
 Alpha  occ. eigenvalues --   -0.54340  -0.53939  -0.53377  -0.52944  -0.49621
 Alpha  occ. eigenvalues --   -0.49586  -0.49064  -0.49057  -0.45540  -0.45061
 Alpha  occ. eigenvalues --   -0.38433  -0.37638  -0.37483  -0.36639
 Alpha virt. eigenvalues --    0.04091   0.04779   0.10039   0.11019   0.15451
 Alpha virt. eigenvalues --    0.16272   0.19752   0.21779   0.25528   0.26915
 Alpha virt. eigenvalues --    0.27896   0.28543   0.30010   0.31559   0.31645

 Mulliken charges:
               1
     1  C   -0.180204
     2  C   -0.217476
     3  C   -0.168965
     4  C    0.160393
     5  C   -0.170292
     6  C   -0.230909
     7  H    0.231412
     8  H    0.229321
     9  H    0.280358
    10  H    0.276866
    11  H    0.225300
    12  N    0.488048
    13  O   -0.458899
    14  O   -0.456335
    15  C   -0.175274
    16  C   -0.217451
    17  C   -0.171521
    18  C    0.159857
    19  C   -0.174805
    20  C   -0.228398
    21  H    0.220726
    22  H    0.224348
    23  H    0.276454
    24  H    0.273413
    25  H    0.236369
    26  N    0.488030
    27  O   -0.461092
    28  O   -0.459275
 Sum of Mulliken charges =  -0.00000

 Dipole moment (field-independent basis, Debye):
    X=              1.0185    Y=              0.7291    Z=              4.9043  Tot=              5.0617
 Quadrupole moment (field-independent basis, Debye-Ang):
   XX=           -154.5764   YY=            -96.6868   ZZ=           -106.3237
   XY=            -23.1915   XZ=              5.9389   YZ=              1.2395

 Normal termination of Gaussian 16 at Thu May  6 11:16:55 2021.
