 Gaussian 16, Revision A.03,
 Gaussian 16:  EM64L-G16RevA.03 25-Dec-2016

 -------------
 #p 6-31g* mp2
 -------------

 ------------------------------------------------------
 Input file generated by CHIRIPA (05-May-2021 14:51:08)
 ------------------------------------------------------
 Symbolic Z-matrix:
 Charge =  0 Multiplicity = 1

                         Standard orientation:
 ---------------------------------------------------------------------
 Center     Atomic      Atomic             Coordinates (Angstroms)
 Number     Number       Type             X           Y           Z
 ---------------------------------------------------------------------
      1          6           0       -2.815038   -0.953907    0.635678
      2          6           0       -1.344244   -1.197381    0.295868
      3          6           0       -0.656068   -2.136262    1.287186
      4          1           0       -2.886268   -0.535604    1.649035
      5          1           0       -3.343465   -1.917076    0.657255
      6          1           0       -0.819041   -0.233908    0.273578
      7          1           0       -1.276494   -1.614975   -0.716872
      8          1           0       -1.154124   -3.111076    1.303866
      9          1           0       -0.694072   -1.722162    2.299943
     10          1           0        0.394477   -2.296471    1.025370
     11          6           0       -3.516664   -0.017296   -0.346263
     12          6           0       -4.987458    0.226178   -0.006453
     13          6           0       -5.675634    1.165059   -0.997771
     14          1           0       -2.988237    0.945873   -0.367841
     15          1           0       -3.445434   -0.435599   -1.359620
     16          1           0       -5.055208    0.643772    1.006286
     17          1           0       -5.512661   -0.737295    0.015837
     18          1           0       -5.637630    0.750959   -2.010528
     19          1           0       -5.177578    2.139873   -1.014452
     20          1           0       -6.726180    1.325268   -0.735955
     21          6           0        2.654031    1.017762    0.050939
     22          6           0        3.246316    2.424542    0.141243
     23          6           0        2.210102    3.478154    0.533617
     24          1           0        1.834340    1.018179   -0.680533
     25          1           0        2.208416    0.752208    1.019599
     26          1           0        3.691903    2.686822   -0.826888
     27          1           0        4.064818    2.420733    0.872445
     28          1           0        1.772718    3.243624    1.509471
     29          1           0        1.397684    3.511225   -0.199517
     30          1           0        2.654960    4.476411    0.592306
     31          6           0        3.677671   -0.046560   -0.340353
     32          6           0        3.085386   -1.453340   -0.430657
     33          6           0        4.121600   -2.506951   -0.823032
     34          1           0        4.123287    0.218994   -1.309013
     35          1           0        4.497362   -0.046975    0.391119
     36          1           0        2.266884   -1.449530   -1.161859
     37          1           0        2.639799   -1.715620    0.537473
     38          1           0        4.934018   -2.540022   -0.089898
     39          1           0        4.558985   -2.272420   -1.798886
     40          1           0        3.676741   -3.505207   -0.881720
 ---------------------------------------------------------------------

 SCF Done:  E(RHF) =  -470.733224940     A.U. after   11 cycles
 E2 =    -0.1583218748D+01 EUMP2 =    -0.47231644368844D+03

 The electronic state is 1-A.
 Alpha  occ. eigenvalues --  -11.21630 -11.21626 -11.21577 -11.21522 -11.21434
 Alpha  occ. eigenvalues --  -11.21375 -11.21365 -11.21303 -11.21106 -11.21095
 Alpha  occ. eigenvalues --  -11.21054 -11.20952  -1.08467  -1.08380  -1.03570
 Alpha  occ. eigenvalues --   -1.03471  -0.96009  -0.95929  -0.87037  -0.86939
 Alpha  occ. eigenvalues --   -0.79655  -0.79520  -0.78308  -0.78174  -0.65095
 Alpha  occ. eigenvalues --   -0.65014  -0.60973  -0.60873  -0.59509  -0.59194
 Alpha  occ. eigenvalues --   -0.57653  -0.57507  -0.55294  -0.55217  -0.52757
 Alpha  occ. eigenvalues --   -0.52619  -0.52451  -0.52319  -0.49948  -0.49873
 Alpha  occ. eigenvalues --   -0.48063  -0.47738  -0.46652  -0.46586  -0.45886
 Alpha  occ. eigenvalues --   -0.45766  -0.45682  -0.45577  -0.43824  -0.43685
 Alpha virt. eigenvalues --    0.21391   0.23190   0.23616   0.24315   0.25891
 Alpha virt. eigenvalues --    0.26345   0.26804   0.27744   0.28029   0.29383
 Alpha virt. eigenvalues --    0.30084   0.31003   0.31606   0.31747   0.32152

 Mulliken charges:
               1
     1  C   -0.298258
     2  C   -0.301110
     3  C   -0.482867
     4  H    0.149472
     5  H    0.149325
     6  H    0.154766
     7  H    0.151002
     8  H    0.154383
     9  H    0.153856
    10  H    0.168172
    11  C   -0.298224
    12  C   -0.299583
    13  C   -0.475690
    14  H    0.149450
    15  H    0.149343
    16  H    0.151945
    17  H    0.151870
    18  H    0.155051
    19  H    0.155160
    20  H    0.160185
    21  C   -0.300561
    22  C   -0.299623
    23  C   -0.475824
    24  H    0.151365
    25  H    0.150413
    26  H    0.152092
    27  H    0.152070
    28  H    0.155002
    29  H    0.155030
    30  H    0.160487
    31  C   -0.297773
    32  C   -0.305784
    33  C   -0.475467
    34  H    0.149654
    35  H    0.149664
    36  H    0.153429
    37  H    0.156573
    38  H    0.155263
    39  H    0.155337
    40  H    0.160404
 Sum of Mulliken charges =  -0.00000

 Dipole moment (field-independent basis, Debye):
    X=              0.0542    Y=              0.0094    Z=             -0.0118  Tot=              0.0562
 Quadrupole moment (field-independent basis, Debye-Ang):
   XX=            -85.4855   YY=            -85.3453   ZZ=            -83.9592
   XY=              1.1102   XZ=              0.1616   YZ=              0.5226

 Normal termination of Gaussian 16 at Thu May  6 02:06:30 2021.
