 Gaussian 16, Revision A.03,
 Gaussian 16:  EM64L-G16RevA.03 25-Dec-2016

 -------------
 #p 6-31g* mp2
 -------------

 ------------------------------------------------------
 Input file generated by CHIRIPA (05-May-2021 14:57:24)
 ------------------------------------------------------
 Symbolic Z-matrix:
 Charge =  0 Multiplicity = 1

                         Standard orientation:
 ---------------------------------------------------------------------
 Center     Atomic      Atomic             Coordinates (Angstroms)
 Number     Number       Type             X           Y           Z
 ---------------------------------------------------------------------
      1          6           0        1.450360   -0.765576    0.666695
      2          6           0        2.374266   -0.561292    1.696834
      3          6           0        3.709336   -0.266354    1.405031
      4          6           0        4.087770   -0.182935    0.065958
      5          6           0        3.190869   -0.381255   -0.982626
      6          6           0        1.860887   -0.675065   -0.667395
      7          1           0        0.415222   -0.994252    0.902474
      8          1           0        2.058274   -0.630959    2.733821
      9          1           0        4.445424   -0.103605    2.182915
     10          1           0        3.535671   -0.305221   -2.006710
     11          1           0        1.145553   -0.833232   -1.469471
     12          7           0        5.498456    0.128706   -0.255362
     13          8           0        5.806694    0.196637   -1.443222
     14          8           0        6.269202    0.299136    0.686732
     15          6           0       -5.781369   -1.380746    0.099507
     16          6           0       -5.925048   -0.057625    0.529890
     17          6           0       -4.864545    0.845917    0.413730
     18          6           0       -3.669064    0.390433   -0.140031
     19          6           0       -3.495003   -0.921515   -0.577963
     20          6           0       -4.568943   -1.807716   -0.452073
     21          1           0       -6.610414   -2.075904    0.193522
     22          1           0       -6.865478    0.276747    0.958643
     23          1           0       -4.948499    1.875800    0.738861
     24          1           0       -2.545362   -1.225516   -1.001264
     25          1           0       -4.454502   -2.834685   -0.787159
     26          7           0       -2.539245    1.337793   -0.268154
     27          8           0       -1.496302    0.911759   -0.759482
     28          8           0       -2.718028    2.488430    0.125176
 ---------------------------------------------------------------------

 SCF Done:  E(RHF) =  -868.338765140     A.U. after   16 cycles
 E2 =    -0.2599396661D+01 EUMP2 =    -0.87093816180185D+03

 The electronic state is 1-A.
 Alpha  occ. eigenvalues --  -20.61832 -20.61768 -20.60088 -20.60081 -15.86835
 Alpha  occ. eigenvalues --  -15.85136 -11.32083 -11.30342 -11.28687 -11.28579
 Alpha  occ. eigenvalues --  -11.28298 -11.27617 -11.27562 -11.26927 -11.26863
 Alpha  occ. eigenvalues --  -11.26567 -11.25911 -11.25787  -1.60859  -1.59166
 Alpha  occ. eigenvalues --   -1.40424  -1.38724  -1.20230  -1.18491  -1.09637
 Alpha  occ. eigenvalues --   -1.07902  -1.05614  -1.03876  -0.96498  -0.94771
 Alpha  occ. eigenvalues --   -0.87016  -0.85275  -0.83336  -0.81617  -0.78417
 Alpha  occ. eigenvalues --   -0.76694  -0.73062  -0.72181  -0.71360  -0.71325
 Alpha  occ. eigenvalues --   -0.70486  -0.69584  -0.65882  -0.65603  -0.64142
 Alpha  occ. eigenvalues --   -0.63869  -0.62970  -0.61237  -0.56090  -0.54367
 Alpha  occ. eigenvalues --   -0.53946  -0.53698  -0.52198  -0.51971  -0.49825
 Alpha  occ. eigenvalues --   -0.49777  -0.48122  -0.48102  -0.45843  -0.44167
 Alpha  occ. eigenvalues --   -0.38187  -0.37213  -0.36413  -0.35468
 Alpha virt. eigenvalues --    0.04088   0.05850   0.10423   0.12189   0.15620
 Alpha virt. eigenvalues --    0.17403   0.20120   0.22043   0.26004   0.26985
 Alpha virt. eigenvalues --    0.28426   0.28810   0.30690   0.31714   0.32085

 Mulliken charges:
               1
     1  C   -0.162407
     2  C   -0.219475
     3  C   -0.171832
     4  C    0.157951
     5  C   -0.172605
     6  C   -0.210938
     7  H    0.222261
     8  H    0.219515
     9  H    0.272623
    10  H    0.273308
    11  H    0.225971
    12  N    0.488266
    13  O   -0.462171
    14  O   -0.462955
    15  C   -0.170250
    16  C   -0.218013
    17  C   -0.170511
    18  C    0.158492
    19  C   -0.173213
    20  C   -0.217805
    21  H    0.228625
    22  H    0.226580
    23  H    0.277816
    24  H    0.268643
    25  H    0.225256
    26  N    0.490236
    27  O   -0.470074
    28  O   -0.453294
 Sum of Mulliken charges =  -0.00000

 Dipole moment (field-independent basis, Debye):
    X=             -9.4874    Y=             -4.3346    Z=              1.5623  Tot=             10.5471
 Quadrupole moment (field-independent basis, Debye-Ang):
   XX=           -115.1055   YY=           -105.3375   ZZ=           -100.1330
   XY=              5.0627   XZ=              2.7103   YZ=              2.4304

 Normal termination of Gaussian 16 at Thu May  6 09:47:19 2021.
