 Gaussian 16, Revision A.03,
 Gaussian 16:  EM64L-G16RevA.03 25-Dec-2016

 -------------
 #p 6-31g* mp2
 -------------

 ------------------------------------------------------
 Input file generated by CHIRIPA (05-May-2021 14:55:19)
 ------------------------------------------------------
 Symbolic Z-matrix:
 Charge =  0 Multiplicity = 1

                         Standard orientation:
 ---------------------------------------------------------------------
 Center     Atomic      Atomic             Coordinates (Angstroms)
 Number     Number       Type             X           Y           Z
 ---------------------------------------------------------------------
      1          6           0        1.857238    1.260630   -0.261687
      2          6           0        3.000955    2.038946   -0.055153
      3          6           0        4.256682    1.436912    0.068353
      4          6           0        4.332492    0.047768   -0.020089
      5          6           0        3.211378   -0.754889   -0.225357
      6          6           0        1.965908   -0.131349   -0.345981
      7          1           0        0.885743    1.736658   -0.356511
      8          1           0        2.919563    3.120186    0.010723
      9          1           0        5.158345    2.015455    0.228692
     10          1           0        3.324148   -1.830501   -0.286681
     11          1           0        1.079383   -0.738315   -0.506331
     12          7           0        5.656444   -0.600963    0.109136
     13          8           0        5.696525   -1.826677    0.027552
     14          8           0        6.629008    0.128560    0.289561
     15          6           0       -4.666801   -0.667707   -0.005507
     16          6           0       -3.323604    0.036172    0.190346
     17          6           0       -2.133854   -0.916672    0.070438
     18          1           0       -4.763456   -1.472384    0.736178
     19          1           0       -4.679816   -1.149550   -0.992955
     20          1           0       -3.313659    0.517708    1.176571
     21          1           0       -3.230219    0.839391   -0.551769
     22          1           0       -2.115741   -1.387890   -0.917603
     23          1           0       -2.199655   -1.711401    0.820556
     24          1           0       -1.183766   -0.392621    0.213843
     25          6           0       -5.865777    0.271711    0.111457
     26          6           0       -7.208975   -0.432168   -0.084396
     27          6           0       -8.398725    0.520675    0.035511
     28          1           0       -5.852763    0.753553    1.098905
     29          1           0       -5.769122    1.076389   -0.630229
     30          1           0       -7.302359   -1.235388    0.657718
     31          1           0       -7.218920   -0.913705   -1.070621
     32          1           0       -8.332923    1.315404   -0.714607
     33          1           0       -8.416837    0.991894    1.023553
     34          1           0       -9.348813   -0.003374   -0.107893
 ---------------------------------------------------------------------

 SCF Done:  E(RHF) =  -669.535492282     A.U. after   15 cycles
 E2 =    -0.2090926224D+01 EUMP2 =    -0.67162641850568D+03

 The electronic state is 1-A.
 Alpha  occ. eigenvalues --  -20.60726 -20.60721 -15.85778 -11.31139 -11.27708
 Alpha  occ. eigenvalues --  -11.27692 -11.27447 -11.26728 -11.26669 -11.22553
 Alpha  occ. eigenvalues --  -11.22270 -11.22112 -11.22084 -11.21961 -11.21481
 Alpha  occ. eigenvalues --   -1.59801  -1.39355  -1.19309  -1.09131  -1.08707
 Alpha  occ. eigenvalues --   -1.04710  -1.04270  -0.96736  -0.95543  -0.87765
 Alpha  occ. eigenvalues --   -0.86108  -0.82372  -0.80346  -0.78902  -0.77421
 Alpha  occ. eigenvalues --   -0.71998  -0.71124  -0.70425  -0.65753  -0.64964
 Alpha  occ. eigenvalues --   -0.64751  -0.62099  -0.61653  -0.60115  -0.58322
 Alpha  occ. eigenvalues --   -0.56000  -0.55216  -0.53553  -0.53172  -0.53030
 Alpha  occ. eigenvalues --   -0.52689  -0.50657  -0.48760  -0.48752  -0.48648
 Alpha  occ. eigenvalues --   -0.47355  -0.46455  -0.46349  -0.44761  -0.44514
 Alpha  occ. eigenvalues --   -0.37292  -0.36309
 Alpha virt. eigenvalues --    0.05109   0.11289   0.16605   0.20011   0.22397
 Alpha virt. eigenvalues --    0.23798   0.25907   0.26045   0.26570   0.27664
 Alpha virt. eigenvalues --    0.28542   0.29988   0.30736   0.31442   0.31775

 Mulliken charges:
               1
     1  C   -0.172962
     2  C   -0.218493
     3  C   -0.171284
     4  C    0.158744
     5  C   -0.171534
     6  C   -0.223364
     7  H    0.225766
     8  H    0.223205
     9  H    0.275420
    10  H    0.275811
    11  H    0.230862
    12  N    0.488001
    13  O   -0.460429
    14  O   -0.460579
    15  C   -0.299260
    16  C   -0.299800
    17  C   -0.481688
    18  H    0.151830
    19  H    0.150849
    20  H    0.154257
    21  H    0.150586
    22  H    0.157013
    23  H    0.161549
    24  H    0.151800
    25  C   -0.298815
    26  C   -0.300187
    27  C   -0.476064
    28  H    0.150372
    29  H    0.149768
    30  H    0.152993
    31  H    0.152663
    32  H    0.155433
    33  H    0.155723
    34  H    0.161815
 Sum of Mulliken charges =  -0.00000

 Dipole moment (field-independent basis, Debye):
    X=             -4.9098    Y=              2.2506    Z=             -0.4355  Tot=              5.4186
 Quadrupole moment (field-independent basis, Debye-Ang):
   XX=           -134.8031   YY=            -90.8481   ZZ=            -94.5368
   XY=             12.6046   XZ=             -1.6610   YZ=              0.3134

 Normal termination of Gaussian 16 at Thu May  6 10:47:25 2021.
