 Gaussian 16, Revision A.03,
 Gaussian 16:  EM64L-G16RevA.03 25-Dec-2016

 -------------
 #p 6-31g* mp2
 -------------

 ------------------------------------------------------
 Input file generated by CHIRIPA (05-May-2021 14:55:20)
 ------------------------------------------------------
 Symbolic Z-matrix:
 Charge =  0 Multiplicity = 1

                         Standard orientation:
 ---------------------------------------------------------------------
 Center     Atomic      Atomic             Coordinates (Angstroms)
 Number     Number       Type             X           Y           Z
 ---------------------------------------------------------------------
      1          6           0       -4.195230    2.048003    0.137451
      2          6           0       -4.745951    0.768911    0.268412
      3          6           0       -3.936682   -0.366471    0.165755
      4          6           0       -2.574637   -0.185203   -0.069328
      5          6           0       -1.996239    1.075946   -0.204422
      6          6           0       -2.824548    2.197175   -0.098133
      7          1           0       -4.831285    2.924497    0.218608
      8          1           0       -5.810108    0.650042    0.451404
      9          1           0       -4.336825   -1.368386    0.263070
     10          1           0       -0.931928    1.162625   -0.386481
     11          1           0       -2.394104    3.189310   -0.200266
     12          7           0       -1.707821   -1.379690   -0.179929
     13          8           0       -0.510819   -1.193133   -0.387338
     14          8           0       -2.241827   -2.479868   -0.057114
     15          6           0        3.302704   -0.667598   -0.290382
     16          6           0        2.917443   -1.795593    0.667317
     17          6           0        2.568660   -3.094821   -0.059422
     18          1           0        2.473093   -0.487949   -0.987818
     19          1           0        4.158865   -0.989410   -0.899330
     20          1           0        2.063138   -1.471232    1.275238
     21          1           0        3.747992   -1.972448    1.362677
     22          1           0        3.419748   -3.444955   -0.652429
     23          1           0        1.725319   -2.940892   -0.740365
     24          1           0        2.296277   -3.887707    0.644141
     25          6           0        3.654092    0.637742    0.421196
     26          6           0        4.039353    1.765737   -0.536502
     27          6           0        4.388135    3.064965    0.190237
     28          1           0        2.797929    0.959554    1.030146
     29          1           0        4.483702    0.458092    1.118633
     30          1           0        3.208803    1.942591   -1.231862
     31          1           0        4.893658    1.441376   -1.144423
     32          1           0        5.231476    2.911035    0.871180
     33          1           0        3.537048    3.415098    0.783244
     34          1           0        4.660518    3.857849   -0.513326
 ---------------------------------------------------------------------

 SCF Done:  E(RHF) =  -669.536346174     A.U. after   15 cycles
 E2 =    -0.2092027215D+01 EUMP2 =    -0.67162837338912D+03

 The electronic state is 1-A.
 Alpha  occ. eigenvalues --  -20.61093 -20.61087 -15.86112 -11.31383 -11.27942
 Alpha  occ. eigenvalues --  -11.27934 -11.27665 -11.26934 -11.26924 -11.21193
 Alpha  occ. eigenvalues --  -11.20848 -11.20695 -11.20237 -11.20137 -11.19269
 Alpha  occ. eigenvalues --   -1.60143  -1.39702  -1.19545  -1.08959  -1.07532
 Alpha  occ. eigenvalues --   -1.04934  -1.02544  -0.95811  -0.95006  -0.86337
 Alpha  occ. eigenvalues --   -0.86031  -0.82648  -0.78725  -0.77708  -0.77231
 Alpha  occ. eigenvalues --   -0.72356  -0.71449  -0.70654  -0.65212  -0.64936
 Alpha  occ. eigenvalues --   -0.64143  -0.62282  -0.59899  -0.58501  -0.56598
 Alpha  occ. eigenvalues --   -0.55441  -0.54293  -0.53267  -0.53023  -0.51734
 Alpha  occ. eigenvalues --   -0.51437  -0.49297  -0.49080  -0.48721  -0.46996
 Alpha  occ. eigenvalues --   -0.45784  -0.45177  -0.44774  -0.44533  -0.42816
 Alpha  occ. eigenvalues --   -0.37520  -0.36532
 Alpha virt. eigenvalues --    0.04806   0.11123   0.16303   0.20934   0.23234
 Alpha virt. eigenvalues --    0.25337   0.26573   0.27429   0.28233   0.28778
 Alpha virt. eigenvalues --    0.29066   0.31093   0.32321   0.32378   0.32849

 Mulliken charges:
               1
     1  C   -0.170402
     2  C   -0.218575
     3  C   -0.170414
     4  C    0.157412
     5  C   -0.170794
     6  C   -0.218521
     7  H    0.226403
     8  H    0.224165
     9  H    0.276095
    10  H    0.275401
    11  H    0.224320
    12  N    0.493060
    13  O   -0.464476
    14  O   -0.457452
    15  C   -0.300659
    16  C   -0.294373
    17  C   -0.480702
    18  H    0.159341
    19  H    0.144524
    20  H    0.157258
    21  H    0.142364
    22  H    0.143778
    23  H    0.179496
    24  H    0.155605
    25  C   -0.297230
    26  C   -0.298360
    27  C   -0.474606
    28  H    0.145272
    29  H    0.147745
    30  H    0.147578
    31  H    0.152330
    32  H    0.155744
    33  H    0.150865
    34  H    0.157810
 Sum of Mulliken charges =  -0.00000

 Dipole moment (field-independent basis, Debye):
    X=             -3.4731    Y=              4.1259    Z=              0.3257  Tot=              5.4029
 Quadrupole moment (field-independent basis, Debye-Ang):
   XX=            -76.2315   YY=            -96.3294   ZZ=            -95.8656
   XY=             -8.2199   XZ=             -1.7646   YZ=             -1.1473

 Normal termination of Gaussian 16 at Thu May  6 15:47:40 2021.
