 Gaussian 16, Revision A.03,
 Gaussian 16:  EM64L-G16RevA.03 25-Dec-2016

 -------------
 #p 6-31g* mp2
 -------------

 ------------------------------------------------------
 Input file generated by CHIRIPA (05-May-2021 14:57:25)
 ------------------------------------------------------
 Symbolic Z-matrix:
 Charge =  0 Multiplicity = 1

                         Standard orientation:
 ---------------------------------------------------------------------
 Center     Atomic      Atomic             Coordinates (Angstroms)
 Number     Number       Type             X           Y           Z
 ---------------------------------------------------------------------
      1          6           0        3.829369   -2.240125    0.623338
      2          6           0        2.806406   -1.482484    1.203035
      3          6           0        2.669014   -0.124762    0.899290
      4          6           0        3.576242    0.445622    0.007724
      5          6           0        4.605872   -0.282704   -0.586157
      6          6           0        4.724259   -1.638876   -0.267837
      7          1           0        3.928717   -3.294234    0.864956
      8          1           0        2.109978   -1.946772    1.895473
      9          1           0        1.886270    0.485187    1.333676
     10          1           0        5.284877    0.208047   -1.272841
     11          1           0        5.519670   -2.224816   -0.719546
     12          7           0        3.440851    1.882162   -0.321552
     13          8           0        4.252978    2.361094   -1.110039
     14          8           0        2.525168    2.501988    0.215082
     15          6           0       -1.557681   -1.661759   -0.361733
     16          6           0       -1.487162   -0.510273    0.429233
     17          6           0       -2.611672    0.302172    0.602328
     18          6           0       -3.795860   -0.068402   -0.033015
     19          6           0       -3.897764   -1.209454   -0.827312
     20          6           0       -2.760636   -2.007066   -0.986380
     21          1           0       -0.679234   -2.287124   -0.490750
     22          1           0       -0.554258   -0.239649    0.915543
     23          1           0       -2.585000    1.199087    1.209163
     24          1           0       -4.841709   -1.453364   -1.299428
     25          1           0       -2.818329   -2.900752   -1.601231
     26          7           0       -4.993008    0.783845    0.142808
     27          8           0       -6.024477    0.435535   -0.427620
     28          8           0       -4.877194    1.784009    0.847716
 ---------------------------------------------------------------------

 SCF Done:  E(RHF) =  -868.336808164     A.U. after   16 cycles
 E2 =    -0.2600183495D+01 EUMP2 =    -0.87093699165911D+03

 The electronic state is 1-A.
 Alpha  occ. eigenvalues --  -20.61480 -20.61468 -20.60776 -20.60767 -15.86538
 Alpha  occ. eigenvalues --  -15.85832 -11.32090 -11.31279 -11.28772 -11.28617
 Alpha  occ. eigenvalues --  -11.28414 -11.27874 -11.27865 -11.27788 -11.27686
 Alpha  occ. eigenvalues --  -11.27651 -11.26974 -11.26913  -1.60547  -1.59848
 Alpha  occ. eigenvalues --   -1.40098  -1.39399  -1.20275  -1.19478  -1.09621
 Alpha  occ. eigenvalues --   -1.08870  -1.05719  -1.04899  -0.96432  -0.95681
 Alpha  occ. eigenvalues --   -0.87092  -0.86308  -0.83268  -0.82515  -0.78301
 Alpha  occ. eigenvalues --   -0.77536  -0.72750  -0.72050  -0.71874  -0.71374
 Alpha  occ. eigenvalues --   -0.71171  -0.70603  -0.65928  -0.65717  -0.65140
 Alpha  occ. eigenvalues --   -0.64955  -0.63079  -0.62215  -0.56172  -0.55432
 Alpha  occ. eigenvalues --   -0.54023  -0.53813  -0.53216  -0.52985  -0.49521
 Alpha  occ. eigenvalues --   -0.49498  -0.48818  -0.48796  -0.45462  -0.44785
 Alpha  occ. eigenvalues --   -0.38238  -0.37487  -0.37321  -0.36494
 Alpha virt. eigenvalues --    0.04217   0.05011   0.10269   0.11162   0.15599
 Alpha virt. eigenvalues --    0.16466   0.18777   0.21914   0.24671   0.26777
 Alpha virt. eigenvalues --    0.28041   0.29031   0.29858   0.30739   0.32211

 Mulliken charges:
               1
     1  C   -0.171421
     2  C   -0.223154
     3  C   -0.176804
     4  C    0.161224
     5  C   -0.169698
     6  C   -0.217815
     7  H    0.227869
     8  H    0.222611
     9  H    0.272560
    10  H    0.278919
    11  H    0.226834
    12  N    0.488039
    13  O   -0.456672
    14  O   -0.459906
    15  C   -0.172370
    16  C   -0.218129
    17  C   -0.170003
    18  C    0.158810
    19  C   -0.170309
    20  C   -0.218387
    21  H    0.222846
    22  H    0.217649
    23  H    0.279023
    24  H    0.276209
    25  H    0.222981
    26  N    0.488060
    27  O   -0.460455
    28  O   -0.458513
 Sum of Mulliken charges =  -0.00000

 Dipole moment (field-independent basis, Debye):
    X=              4.8755    Y=             -7.9883    Z=              0.4303  Tot=              9.3685
 Quadrupole moment (field-independent basis, Debye-Ang):
   XX=           -128.0624   YY=           -107.8946   ZZ=           -102.3152
   XY=             -5.5301   XZ=              5.1332   YZ=              2.9870

 Normal termination of Gaussian 16 at Thu May  6 00:20:50 2021.
