 Gaussian 16, Revision A.03,
 Gaussian 16:  EM64L-G16RevA.03 25-Dec-2016

 -------------
 #p 6-31g* mp2
 -------------

 ------------------------------------------------------
 Input file generated by CHIRIPA (05-May-2021 14:53:14)
 ------------------------------------------------------
 Symbolic Z-matrix:
 Charge =  0 Multiplicity = 1

                         Standard orientation:
 ---------------------------------------------------------------------
 Center     Atomic      Atomic             Coordinates (Angstroms)
 Number     Number       Type             X           Y           Z
 ---------------------------------------------------------------------
      1          6           0       -3.925628   -0.369931    0.217289
      2          6           0       -4.657729   -1.484444   -0.530957
      3          6           0       -5.006348   -2.670513    0.368765
      4          1           0       -3.007201   -0.777256    0.661725
      5          1           0       -4.551312   -0.026229    1.052624
      6          1           0       -4.031442   -1.824991   -1.365468
      7          1           0       -5.574423   -1.074374   -0.973825
      8          1           0       -5.651198   -2.351571    1.194020
      9          1           0       -4.099450   -3.106452    0.800151
     10          1           0       -5.529165   -3.455542   -0.186439
     11          6           0       -3.570347    0.822708   -0.668778
     12          6           0       -2.838246    1.937221    0.079469
     13          6           0       -2.489627    3.123290   -0.820254
     14          1           0       -2.944663    0.479006   -1.504113
     15          1           0       -4.488774    1.230033   -1.113214
     16          1           0       -1.921552    1.527151    0.522336
     17          1           0       -3.464533    2.277767    0.913979
     18          1           0       -3.396525    3.559229   -1.251640
     19          1           0       -1.844777    2.804348   -1.645509
     20          1           0       -1.966810    3.908319   -0.265050
     21          6           0        1.028802    0.253613    1.780490
     22          6           0        0.758663   -0.084517    0.450371
     23          6           0        1.803145   -0.325205   -0.447221
     24          6           0        3.111734   -0.218483    0.021281
     25          6           0        3.413108    0.116524    1.340460
     26          6           0        2.352829    0.352879    2.220513
     27          1           0        0.211287    0.438902    2.470949
     28          1           0       -0.268617   -0.162331    0.105860
     29          1           0        1.622448   -0.588632   -1.482292
     30          1           0        4.447453    0.186472    1.654556
     31          1           0        2.565604    0.615301    3.252941
     32          7           0        4.225842   -0.470995   -0.919675
     33          8           0        5.370012   -0.370538   -0.482160
     34          8           0        3.933815   -0.764591   -2.076895
 ---------------------------------------------------------------------

 SCF Done:  E(RHF) =  -669.535294502     A.U. after   15 cycles
 E2 =    -0.2091956708D+01 EUMP2 =    -0.67162725121036D+03

 The electronic state is 1-A.
 Alpha  occ. eigenvalues --  -20.60769 -20.60764 -15.85822 -11.31195 -11.27765
 Alpha  occ. eigenvalues --  -11.27762 -11.27504 -11.26776 -11.26753 -11.22595
 Alpha  occ. eigenvalues --  -11.22378 -11.22321 -11.22287 -11.21804 -11.21688
 Alpha  occ. eigenvalues --   -1.59844  -1.39398  -1.19368  -1.09340  -1.08760
 Alpha  occ. eigenvalues --   -1.04774  -1.04335  -0.96764  -0.95594  -0.87777
 Alpha  occ. eigenvalues --   -0.86176  -0.82426  -0.80414  -0.79160  -0.77475
 Alpha  occ. eigenvalues --   -0.72041  -0.71167  -0.70473  -0.66102  -0.65019
 Alpha  occ. eigenvalues --   -0.64716  -0.62181  -0.61658  -0.60130  -0.58379
 Alpha  occ. eigenvalues --   -0.56056  -0.55265  -0.53431  -0.53183  -0.53091
 Alpha  occ. eigenvalues --   -0.52870  -0.50706  -0.48815  -0.48796  -0.48700
 Alpha  occ. eigenvalues --   -0.47461  -0.46672  -0.46615  -0.44802  -0.44613
 Alpha  occ. eigenvalues --   -0.37340  -0.36369
 Alpha virt. eigenvalues --    0.05059   0.11167   0.16547   0.18480   0.22735
 Alpha virt. eigenvalues --    0.23698   0.25024   0.26006   0.26916   0.28137
 Alpha virt. eigenvalues --    0.29272   0.30721   0.30994   0.31399   0.31850

 Mulliken charges:
               1
     1  C   -0.299628
     2  C   -0.300008
     3  C   -0.476280
     4  H    0.141177
     5  H    0.152460
     6  H    0.152716
     7  H    0.155002
     8  H    0.156067
     9  H    0.154802
    10  H    0.163425
    11  C   -0.300425
    12  C   -0.303481
    13  C   -0.475244
    14  H    0.147946
    15  H    0.155290
    16  H    0.142677
    17  H    0.154750
    18  H    0.158509
    19  H    0.156663
    20  H    0.162730
    21  C   -0.172387
    22  C   -0.223355
    23  C   -0.172130
    24  C    0.158800
    25  C   -0.170989
    26  C   -0.218584
    27  H    0.226500
    28  H    0.230829
    29  H    0.275662
    30  H    0.275688
    31  H    0.223557
    32  N    0.488041
    33  O   -0.460361
    34  O   -0.460420
 Sum of Mulliken charges =  -0.00000

 Dipole moment (field-independent basis, Debye):
    X=             -4.1084    Y=              0.9354    Z=              3.2710  Tot=              5.3342
 Quadrupole moment (field-independent basis, Debye-Ang):
   XX=           -115.6949   YY=            -96.1111   ZZ=            -92.3946
   XY=              3.5884   XZ=             13.2646   YZ=              0.5979

 Normal termination of Gaussian 16 at Thu May  6 10:33:15 2021.
