 Gaussian 16, Revision A.03,
 Gaussian 16:  EM64L-G16RevA.03 25-Dec-2016

 -------------
 #p 6-31g* mp2
 -------------

 ------------------------------------------------------
 Input file generated by CHIRIPA (05-May-2021 14:57:23)
 ------------------------------------------------------
 Symbolic Z-matrix:
 Charge =  0 Multiplicity = 1

                         Standard orientation:
 ---------------------------------------------------------------------
 Center     Atomic      Atomic             Coordinates (Angstroms)
 Number     Number       Type             X           Y           Z
 ---------------------------------------------------------------------
      1          6           0       -3.550576    2.544587   -0.116967
      2          6           0       -2.367565    1.985767    0.377730
      3          6           0       -2.172413    0.601590    0.355008
      4          6           0       -3.185713   -0.197701   -0.171916
      5          6           0       -4.375445    0.329059   -0.672269
      6          6           0       -4.548980    1.715910   -0.639466
      7          1           0       -3.693779    3.620888   -0.095401
      8          1           0       -1.590475    2.626892    0.784097
      9          1           0       -1.266332    0.142493    0.731391
     10          1           0       -5.131994   -0.335717   -1.071172
     11          1           0       -5.468746    2.147122   -1.024346
     12          7           0       -2.990556   -1.664483   -0.201306
     13          8           0       -3.898550   -2.346986   -0.670747
     14          8           0       -1.933295   -2.103870    0.245654
     15          6           0        1.289052   -0.672851    1.667123
     16          6           0        1.793428    0.631680    1.685122
     17          6           0        2.861857    0.991292    0.858268
     18          6           0        3.404349    0.016748    0.022053
     19          6           0        2.923976   -1.291256   -0.018679
     20          6           0        1.854937   -1.628470    0.816779
     21          1           0        0.458834   -0.943507    2.312786
     22          1           0        1.355924    1.375902    2.344493
     23          1           0        3.271872    1.993921    0.852085
     24          1           0        3.380873   -2.011266   -0.686696
     25          1           0        1.465281   -2.642351    0.800693
     26          7           0        4.535769    0.385598   -0.857855
     27          8           0        4.996169   -0.491436   -1.585509
     28          8           0        4.940753    1.544753   -0.803212
 ---------------------------------------------------------------------

 SCF Done:  E(RHF) =  -868.338696957     A.U. after   16 cycles
 E2 =    -0.2601242630D+01 EUMP2 =    -0.87093993958742D+03

 The electronic state is 1-A.
 Alpha  occ. eigenvalues --  -20.61534 -20.61478 -20.60805 -20.60786 -15.86553
 Alpha  occ. eigenvalues --  -15.85849 -11.31740 -11.31237 -11.28282 -11.28272
 Alpha  occ. eigenvalues --  -11.28013 -11.27859 -11.27679 -11.27461 -11.27307
 Alpha  occ. eigenvalues --  -11.27255 -11.26955 -11.26614  -1.60571  -1.59872
 Alpha  occ. eigenvalues --   -1.40136  -1.39425  -1.19906  -1.19398  -1.09331
 Alpha  occ. eigenvalues --   -1.08793  -1.05292  -1.04781  -0.96202  -0.95618
 Alpha  occ. eigenvalues --   -0.86701  -0.86171  -0.83043  -0.82441  -0.78124
 Alpha  occ. eigenvalues --   -0.77482  -0.72799  -0.72065  -0.71880  -0.71195
 Alpha  occ. eigenvalues --   -0.71062  -0.70443  -0.65568  -0.65307  -0.65032
 Alpha  occ. eigenvalues --   -0.64754  -0.62662  -0.62101  -0.55817  -0.55251
 Alpha  occ. eigenvalues --   -0.53623  -0.53510  -0.52970  -0.52842  -0.49547
 Alpha  occ. eigenvalues --   -0.49507  -0.48823  -0.48821  -0.45578  -0.44825
 Alpha  occ. eigenvalues --   -0.37874  -0.37378  -0.36882  -0.36373
 Alpha virt. eigenvalues --    0.04414   0.04969   0.10756   0.11179   0.15950
 Alpha virt. eigenvalues --    0.16351   0.20130   0.22078   0.26029   0.27201
 Alpha virt. eigenvalues --    0.27912   0.29264   0.30188   0.31372   0.32722

 Mulliken charges:
               1
     1  C   -0.169299
     2  C   -0.222784
     3  C   -0.175009
     4  C    0.155429
     5  C   -0.168959
     6  C   -0.219034
     7  H    0.227626
     8  H    0.221239
     9  H    0.281452
    10  H    0.276865
    11  H    0.225550
    12  N    0.488953
    13  O   -0.455985
    14  O   -0.471143
    15  C   -0.182251
    16  C   -0.224510
    17  C   -0.171483
    18  C    0.159450
    19  C   -0.172198
    20  C   -0.212066
    21  H    0.232738
    22  H    0.217793
    23  H    0.273761
    24  H    0.277818
    25  H    0.238448
    26  N    0.487996
    27  O   -0.458478
    28  O   -0.461917
 Sum of Mulliken charges =  -0.00000

 Dipole moment (field-independent basis, Debye):
    X=             -4.7485    Y=              3.6453    Z=              3.0750  Tot=              6.7299
 Quadrupole moment (field-independent basis, Debye-Ang):
   XX=           -123.6773   YY=           -102.6905   ZZ=           -104.6615
   XY=            -21.2622   XZ=             12.6174   YZ=              1.0580

 Normal termination of Gaussian 16 at Fri May  7 11:03:01 2021.
