 Gaussian 16, Revision A.03,
 Gaussian 16:  EM64L-G16RevA.03 25-Dec-2016

 -------------
 #p 6-31g* mp2
 -------------

 ------------------------------------------------------
 Input file generated by CHIRIPA (05-May-2021 14:57:22)
 ------------------------------------------------------
 Symbolic Z-matrix:
 Charge =  0 Multiplicity = 1

                         Standard orientation:
 ---------------------------------------------------------------------
 Center     Atomic      Atomic             Coordinates (Angstroms)
 Number     Number       Type             X           Y           Z
 ---------------------------------------------------------------------
      1          6           0        2.889990   -2.057012    1.349856
      2          6           0        3.573479   -2.053409    0.129467
      3          6           0        3.574143   -0.913948   -0.680580
      4          6           0        2.877838    0.209448   -0.237374
      5          6           0        2.187410    0.236883    0.973347
      6          6           0        2.200353   -0.913870    1.767166
      7          1           0        2.894759   -2.946559    1.972817
      8          1           0        4.109912   -2.939751   -0.197158
      9          1           0        4.094937   -0.883784   -1.629938
     10          1           0        1.661635    1.135582    1.272211
     11          1           0        1.668672   -0.913799    2.714457
     12          7           0        2.871339    1.421721   -1.086344
     13          8           0        2.250323    2.398644   -0.673310
     14          8           0        3.487384    1.372024   -2.148727
     15          6           0       -2.015552    1.704969    1.734713
     16          6           0       -3.052019    2.036119    0.855738
     17          6           0       -3.538290    1.094070   -0.055652
     18          6           0       -2.962376   -0.175413   -0.060831
     19          6           0       -1.928619   -0.535626    0.802237
     20          6           0       -1.458143    0.422415    1.705209
     21          1           0       -1.643939    2.442986    2.439433
     22          1           0       -3.486810    3.031395    0.876411
     23          1           0       -4.339718    1.323718   -0.747311
     24          1           0       -1.515228   -1.535911    0.758027
     25          1           0       -0.653108    0.162438    2.386660
     26          7           0       -3.468809   -1.181183   -1.021222
     27          8           0       -2.944517   -2.292722   -1.005859
     28          8           0       -4.380453   -0.838922   -1.771155
 ---------------------------------------------------------------------

 SCF Done:  E(RHF) =  -868.336505158     A.U. after   16 cycles
 E2 =    -0.2601314750D+01 EUMP2 =    -0.87093781990793D+03

 The electronic state is 1-A.
 Alpha  occ. eigenvalues --  -20.61136 -20.61119 -20.60863 -20.60847 -15.86192
 Alpha  occ. eigenvalues --  -15.85916 -11.31648 -11.31314 -11.28340 -11.28210
 Alpha  occ. eigenvalues --  -11.28030 -11.27965 -11.27867 -11.27688 -11.27408
 Alpha  occ. eigenvalues --  -11.27199 -11.27053 -11.26860  -1.60202  -1.59931
 Alpha  occ. eigenvalues --   -1.39754  -1.39485  -1.19859  -1.19508  -1.09225
 Alpha  occ. eigenvalues --   -1.08902  -1.05324  -1.04918  -0.96041  -0.95723
 Alpha  occ. eigenvalues --   -0.86683  -0.86350  -0.82920  -0.82549  -0.77967
 Alpha  occ. eigenvalues --   -0.77570  -0.72413  -0.72137  -0.71522  -0.71251
 Alpha  occ. eigenvalues --   -0.70961  -0.70619  -0.65554  -0.65353  -0.65172
 Alpha  occ. eigenvalues --   -0.64983  -0.62761  -0.62157  -0.55772  -0.55435
 Alpha  occ. eigenvalues --   -0.53653  -0.53461  -0.53141  -0.53014  -0.49177
 Alpha  occ. eigenvalues --   -0.49156  -0.48898  -0.48885  -0.45140  -0.44883
 Alpha  occ. eigenvalues --   -0.37828  -0.37511  -0.37078  -0.36284
 Alpha virt. eigenvalues --    0.04574   0.05013   0.10602   0.11145   0.15911
 Alpha virt. eigenvalues --    0.16518   0.19036   0.22188   0.25055   0.27336
 Alpha virt. eigenvalues --    0.28103   0.29178   0.29434   0.31686   0.32465

 Mulliken charges:
               1
     1  C   -0.169422
     2  C   -0.217880
     3  C   -0.168273
     4  C    0.158075
     5  C   -0.165962
     6  C   -0.226061
     7  H    0.227933
     8  H    0.226877
     9  H    0.278518
    10  H    0.270999
    11  H    0.216130
    12  N    0.488604
    13  O   -0.461769
    14  O   -0.457592
    15  C   -0.168839
    16  C   -0.216435
    17  C   -0.168707
    18  C    0.158878
    19  C   -0.169596
    20  C   -0.219658
    21  H    0.226454
    22  H    0.226119
    23  H    0.277313
    24  H    0.274009
    25  H    0.212453
    26  N    0.488389
    27  O   -0.461801
    28  O   -0.458759
 Sum of Mulliken charges =  -0.00000

 Dipole moment (field-independent basis, Debye):
    X=              1.8343    Y=             -0.7020    Z=              6.1100  Tot=              6.4179
 Quadrupole moment (field-independent basis, Debye-Ang):
   XX=           -111.3700   YY=           -105.0076   ZZ=           -105.1706
   XY=            -28.0250   XZ=             -2.6356   YZ=              1.3765

 Normal termination of Gaussian 16 at Fri May  7 04:52:47 2021.
