 Gaussian 16, Revision A.03,
 Gaussian 16:  EM64L-G16RevA.03 25-Dec-2016

 -------------
 #p 6-31g* mp2
 -------------

 ------------------------------------------------------
 Input file generated by CHIRIPA (05-May-2021 14:55:21)
 ------------------------------------------------------
 Symbolic Z-matrix:
 Charge =  0 Multiplicity = 1

                         Standard orientation:
 ---------------------------------------------------------------------
 Center     Atomic      Atomic             Coordinates (Angstroms)
 Number     Number       Type             X           Y           Z
 ---------------------------------------------------------------------
      1          6           0        4.325069    0.627661   -0.281572
      2          6           0        3.777964    0.492063    0.998589
      3          6           0        2.584853   -0.211070    1.189996
      4          6           0        1.962604   -0.768287    0.073929
      5          6           0        2.482740   -0.650484   -1.214043
      6          6           0        3.676853    0.056960   -1.381862
      7          1           0        5.252295    1.175546   -0.421100
      8          1           0        4.279196    0.934224    1.854922
      9          1           0        2.139280   -0.331307    2.170009
     10          1           0        1.960103   -1.102349   -2.048362
     11          1           0        4.099433    0.160667   -2.377209
     12          7           0        0.698980   -1.514944    0.264077
     13          8           0        0.170183   -1.996485   -0.735488
     14          8           0        0.261275   -1.604497    1.409080
     15          6           0       -3.447906    0.480201   -0.181403
     16          6           0       -3.402823   -1.030928    0.047597
     17          6           0       -4.749087   -1.708332   -0.210264
     18          1           0       -4.212973    0.921035    0.472265
     19          1           0       -3.767227    0.678181   -1.213989
     20          1           0       -3.082349   -1.226022    1.079029
     21          1           0       -2.637642   -1.468193   -0.606554
     22          1           0       -5.071915   -1.543054   -1.243253
     23          1           0       -5.519148   -1.299508    0.451908
     24          1           0       -4.694182   -2.788179   -0.040634
     25          6           0       -2.109507    1.171584    0.072374
     26          6           0       -2.154590    2.682714   -0.156628
     27          6           0       -0.808326    3.360116    0.101233
     28          1           0       -1.790186    0.973604    1.104959
     29          1           0       -1.344440    0.730749   -0.581296
     30          1           0       -2.919771    3.119977    0.497525
     31          1           0       -2.475064    2.877807   -1.188059
     32          1           0       -0.038265    2.951293   -0.560938
     33          1           0       -0.485497    3.194839    1.134222
     34          1           0       -0.863231    4.439964   -0.068396
 ---------------------------------------------------------------------

 SCF Done:  E(RHF) =  -669.536634789     A.U. after   15 cycles
 E2 =    -0.2093308757D+01 EUMP2 =    -0.67162994354585D+03

 The electronic state is 1-A.
 Alpha  occ. eigenvalues --  -20.61025 -20.61012 -15.86009 -11.31312 -11.27870
 Alpha  occ. eigenvalues --  -11.27860 -11.27594 -11.26866 -11.26854 -11.21047
 Alpha  occ. eigenvalues --  -11.20788 -11.20504 -11.20275 -11.19860 -11.19783
 Alpha  occ. eigenvalues --   -1.60046  -1.39609  -1.19469  -1.08879  -1.07446
 Alpha  occ. eigenvalues --   -1.04862  -1.02547  -0.95728  -0.95086  -0.86265
 Alpha  occ. eigenvalues --   -0.86114  -0.82568  -0.78657  -0.77624  -0.77154
 Alpha  occ. eigenvalues --   -0.72245  -0.71328  -0.70580  -0.65130  -0.64866
 Alpha  occ. eigenvalues --   -0.64085  -0.62212  -0.59949  -0.58499  -0.56640
 Alpha  occ. eigenvalues --   -0.55368  -0.54406  -0.53191  -0.52955  -0.51813
 Alpha  occ. eigenvalues --   -0.51495  -0.49145  -0.49023  -0.48969  -0.46938
 Alpha  occ. eigenvalues --   -0.45699  -0.45271  -0.44639  -0.44233  -0.42805
 Alpha  occ. eigenvalues --   -0.37439  -0.36458
 Alpha virt. eigenvalues --    0.04871   0.11185   0.16337   0.21313   0.23711
 Alpha virt. eigenvalues --    0.25233   0.27211   0.27572   0.27925   0.28582
 Alpha virt. eigenvalues --    0.28843   0.31019   0.32262   0.32391   0.32566

 Mulliken charges:
               1
     1  C   -0.170320
     2  C   -0.218273
     3  C   -0.169975
     4  C    0.158622
     5  C   -0.171695
     6  C   -0.218554
     7  H    0.226149
     8  H    0.223969
     9  H    0.275656
    10  H    0.275577
    11  H    0.223858
    12  N    0.490495
    13  O   -0.459617
    14  O   -0.457537
    15  C   -0.297423
    16  C   -0.309124
    17  C   -0.475594
    18  H    0.144577
    19  H    0.144637
    20  H    0.159551
    21  H    0.175327
    22  H    0.149770
    23  H    0.148936
    24  H    0.160534
    25  C   -0.301401
    26  C   -0.298428
    27  C   -0.475030
    28  H    0.154866
    29  H    0.147138
    30  H    0.150951
    31  H    0.150043
    32  H    0.151864
    33  H    0.152923
    34  H    0.157528
 Sum of Mulliken charges =  -0.00000

 Dipole moment (field-independent basis, Debye):
    X=              4.7171    Y=              2.4034    Z=             -0.6037  Tot=              5.3284
 Quadrupole moment (field-independent basis, Debye-Ang):
   XX=            -79.6670   YY=           -100.2469   ZZ=            -89.0619
   XY=              1.5874   XZ=             -1.2998   YZ=              1.7997

 Normal termination of Gaussian 16 at Thu May  6 07:45:48 2021.
