 Gaussian 16, Revision A.03,
 Gaussian 16:  EM64L-G16RevA.03 25-Dec-2016

 -------------
 #p 6-31g* mp2
 -------------

 ------------------------------------------------------
 Input file generated by CHIRIPA (05-May-2021 14:57:22)
 ------------------------------------------------------
 Symbolic Z-matrix:
 Charge =  0 Multiplicity = 1

                         Standard orientation:
 ---------------------------------------------------------------------
 Center     Atomic      Atomic             Coordinates (Angstroms)
 Number     Number       Type             X           Y           Z
 ---------------------------------------------------------------------
      1          6           0        2.613243    2.699607    0.412108
      2          6           0        1.583073    2.190892   -0.385689
      3          6           0        1.542984    0.832131   -0.712353
      4          6           0        2.553807    0.006888   -0.221944
      5          6           0        3.593370    0.483726    0.575065
      6          6           0        3.613341    1.845905    0.889098
      7          1           0        2.636571    3.756453    0.660962
      8          1           0        0.805052    2.851546   -0.757529
      9          1           0        0.757090    0.411823   -1.328089
     10          1           0        4.354906   -0.199524    0.930947
     11          1           0        4.414603    2.238205    1.508875
     12          7           0        2.522016   -1.433381   -0.561083
     13          8           0        3.424401   -2.139587   -0.116547
     14          8           0        1.595315   -1.828786   -1.265013
     15          6           0       -1.521466   -2.395884    0.978375
     16          6           0       -1.693218   -2.175293   -0.392158
     17          6           0       -2.266975   -0.986841   -0.853603
     18          6           0       -2.659356   -0.036251    0.087517
     19          6           0       -2.501503   -0.226677    1.459418
     20          6           0       -1.925445   -1.422588    1.898168
     21          1           0       -1.074865   -3.321999    1.328022
     22          1           0       -1.380420   -2.929398   -1.108766
     23          1           0       -2.411647   -0.790164   -1.908974
     24          1           0       -2.823173    0.543696    2.149688
     25          1           0       -1.793287   -1.591187    2.963134
     26          7           0       -3.267985    1.225859   -0.388980
     27          8           0       -3.605351    2.047590    0.460478
     28          8           0       -3.396137    1.369471   -1.602896
 ---------------------------------------------------------------------

 SCF Done:  E(RHF) =  -868.340166462     A.U. after   16 cycles
 E2 =    -0.2600808672D+01 EUMP2 =    -0.87094097513454D+03

 The electronic state is 1-A.
 Alpha  occ. eigenvalues --  -20.61239 -20.61233 -20.60899 -20.60893 -15.86264
 Alpha  occ. eigenvalues --  -15.85936 -11.31351 -11.31043 -11.27913 -11.27842
 Alpha  occ. eigenvalues --  -11.27562 -11.27533 -11.27446 -11.27067 -11.26866
 Alpha  occ. eigenvalues --  -11.26766 -11.26519 -11.26319  -1.60307  -1.59988
 Alpha  occ. eigenvalues --   -1.39869  -1.39544  -1.19496  -1.19136  -1.08941
 Alpha  occ. eigenvalues --   -1.08560  -1.04851  -1.04465  -0.95826  -0.95451
 Alpha  occ. eigenvalues --   -0.86260  -0.85864  -0.82675  -0.82275  -0.77757
 Alpha  occ. eigenvalues --   -0.77377  -0.72519  -0.72148  -0.71618  -0.71326
 Alpha  occ. eigenvalues --   -0.70596  -0.70182  -0.65151  -0.64841  -0.64755
 Alpha  occ. eigenvalues --   -0.64408  -0.62202  -0.61805  -0.55360  -0.54914
 Alpha  occ. eigenvalues --   -0.53224  -0.53024  -0.52719  -0.52514  -0.49272
 Alpha  occ. eigenvalues --   -0.49234  -0.48927  -0.48881  -0.45342  -0.45006
 Alpha  occ. eigenvalues --   -0.37464  -0.37075  -0.36426  -0.36009
 Alpha virt. eigenvalues --    0.04727   0.05082   0.11194   0.11588   0.16250
 Alpha virt. eigenvalues --    0.16764   0.21323   0.21916   0.27058   0.27668
 Alpha virt. eigenvalues --    0.28334   0.28780   0.30993   0.31483   0.32104

 Mulliken charges:
               1
     1  C   -0.170203
     2  C   -0.220788
     3  C   -0.169947
     4  C    0.156675
     5  C   -0.171852
     6  C   -0.219141
     7  H    0.228061
     8  H    0.231548
     9  H    0.275793
    10  H    0.274195
    11  H    0.223520
    12  N    0.489002
    13  O   -0.461139
    14  O   -0.466995
    15  C   -0.174052
    16  C   -0.200522
    17  C   -0.183867
    18  C    0.155649
    19  C   -0.173908
    20  C   -0.218705
    21  H    0.230589
    22  H    0.235951
    23  H    0.274163
    24  H    0.272468
    25  H    0.222435
    26  N    0.486488
    27  O   -0.462409
    28  O   -0.463009
 Sum of Mulliken charges =  -0.00000

 Dipole moment (field-independent basis, Debye):
    X=              2.3680    Y=              0.4620    Z=              2.8529  Tot=              3.7363
 Quadrupole moment (field-independent basis, Debye-Ang):
   XX=           -113.8586   YY=           -104.0664   ZZ=            -99.9883
   XY=             24.7516   XZ=              0.9408   YZ=             -0.2546

 Normal termination of Gaussian 16 at Wed May  5 20:57:52 2021.
