 Gaussian 16, Revision A.03,
 Gaussian 16:  EM64L-G16RevA.03 25-Dec-2016

 -------------
 #p 6-31g* mp2
 -------------

 ------------------------------------------------------
 Input file generated by CHIRIPA (05-May-2021 14:53:14)
 ------------------------------------------------------
 Symbolic Z-matrix:
 Charge =  0 Multiplicity = 1

                         Standard orientation:
 ---------------------------------------------------------------------
 Center     Atomic      Atomic             Coordinates (Angstroms)
 Number     Number       Type             X           Y           Z
 ---------------------------------------------------------------------
      1          6           0       -3.070193   -0.381829    0.067501
      2          6           0       -3.845802   -1.507486   -0.617564
      3          6           0       -4.097407   -2.699443    0.306410
      4          1           0       -2.110802   -0.774683    0.431067
      5          1           0       -3.627568   -0.048598    0.953890
      6          1           0       -3.287806   -1.837553   -1.503177
      7          1           0       -4.803376   -1.111860   -0.979710
      8          1           0       -4.674344   -2.391268    1.184347
      9          1           0       -3.150163   -3.121084    0.657905
     10          1           0       -4.653250   -3.492420   -0.203576
     11          6           0       -2.810889    0.816796   -0.843425
     12          6           0       -2.035280    1.942453   -0.158360
     13          6           0       -1.783675    3.134410   -1.082334
     14          1           0       -2.253514    0.483565   -1.729813
     15          1           0       -3.770280    1.209650   -1.206991
     16          1           0       -1.077707    1.546827    0.203786
     17          1           0       -2.593276    2.272520    0.727254
     18          1           0       -2.730919    3.556051   -1.433829
     19          1           0       -1.206738    2.826235   -1.960270
     20          1           0       -1.227832    3.927387   -0.572348
     21          6           0        0.885170    0.922780    2.085747
     22          6           0        1.632565    1.710619    1.204141
     23          6           0        2.418529    1.115987    0.212565
     24          6           0        2.433817   -0.275546    0.130755
     25          6           0        1.700248   -1.087621    0.994294
     26          6           0        0.921333   -0.471368    1.978200
     27          1           0        0.277352    1.393102    2.853049
     28          1           0        1.606400    2.793563    1.285319
     29          1           0        3.006913    1.701964   -0.483030
     30          1           0        1.746546   -2.164709    0.888674
     31          1           0        0.341920   -1.085723    2.661497
     32          7           0        3.262150   -0.916501   -0.914922
     33          8           0        3.258554   -2.144508   -0.966145
     34          8           0        3.899309   -0.178738   -1.663502
 ---------------------------------------------------------------------

 SCF Done:  E(RHF) =  -669.534771651     A.U. after   15 cycles
 E2 =    -0.2093787428D+01 EUMP2 =    -0.67162855907973D+03

 The electronic state is 1-A.
 Alpha  occ. eigenvalues --  -20.60861 -20.60856 -15.85917 -11.31314 -11.27913
 Alpha  occ. eigenvalues --  -11.27893 -11.27615 -11.26905 -11.26876 -11.21864
 Alpha  occ. eigenvalues --  -11.21815 -11.21715 -11.21623 -11.21456 -11.21390
 Alpha  occ. eigenvalues --   -1.59937  -1.39489  -1.19511  -1.08912  -1.08710
 Alpha  occ. eigenvalues --   -1.04911  -1.03840  -0.96304  -0.95716  -0.87319
 Alpha  occ. eigenvalues --   -0.86298  -0.82540  -0.79913  -0.78564  -0.77581
 Alpha  occ. eigenvalues --   -0.72133  -0.71262  -0.70593  -0.65374  -0.65148
 Alpha  occ. eigenvalues --   -0.64890  -0.62247  -0.61255  -0.59692  -0.57928
 Alpha  occ. eigenvalues --   -0.55593  -0.55390  -0.53358  -0.52998  -0.52955
 Alpha  occ. eigenvalues --   -0.52728  -0.50235  -0.48895  -0.48886  -0.48231
 Alpha  occ. eigenvalues --   -0.46931  -0.46091  -0.45992  -0.44888  -0.44094
 Alpha  occ. eigenvalues --   -0.37345  -0.36497
 Alpha virt. eigenvalues --    0.04935   0.11046   0.16361   0.20915   0.22786
 Alpha virt. eigenvalues --    0.23814   0.26183   0.26650   0.27236   0.28112
 Alpha virt. eigenvalues --    0.28425   0.30353   0.31175   0.31532   0.31923

 Mulliken charges:
               1
     1  C   -0.300594
     2  C   -0.300032
     3  C   -0.475338
     4  H    0.148235
     5  H    0.146063
     6  H    0.154992
     7  H    0.152891
     8  H    0.153836
     9  H    0.152361
    10  H    0.162569
    11  C   -0.296958
    12  C   -0.312039
    13  C   -0.474597
    14  H    0.152513
    15  H    0.149709
    16  H    0.165186
    17  H    0.145202
    18  H    0.156770
    19  H    0.158124
    20  H    0.153052
    21  C   -0.172349
    22  C   -0.218368
    23  C   -0.170245
    24  C    0.158491
    25  C   -0.171988
    26  C   -0.216493
    27  H    0.228130
    28  H    0.225118
    29  H    0.276463
    30  H    0.276286
    31  H    0.225116
    32  N    0.488077
    33  O   -0.460177
    34  O   -0.460006
 Sum of Mulliken charges =  -0.00000

 Dipole moment (field-independent basis, Debye):
    X=             -2.8097    Y=              2.2114    Z=              3.6717  Tot=              5.1251
 Quadrupole moment (field-independent basis, Debye-Ang):
   XX=           -108.7302   YY=            -93.0068   ZZ=            -93.9347
   XY=              7.5062   XZ=              8.2185   YZ=             -1.6459

 Normal termination of Gaussian 16 at Thu May  6 05:51:35 2021.
