 Gaussian 16, Revision A.03,
 Gaussian 16:  EM64L-G16RevA.03 25-Dec-2016

 -------------
 #p 6-31g* mp2
 -------------

 ------------------------------------------------------
 Input file generated by CHIRIPA (05-May-2021 14:57:24)
 ------------------------------------------------------
 Symbolic Z-matrix:
 Charge =  0 Multiplicity = 1

                         Standard orientation:
 ---------------------------------------------------------------------
 Center     Atomic      Atomic             Coordinates (Angstroms)
 Number     Number       Type             X           Y           Z
 ---------------------------------------------------------------------
      1          6           0       -4.503935    2.555093    0.164930
      2          6           0       -5.499834    1.575376    0.095205
      3          6           0       -5.159717    0.223628   -0.012710
      4          6           0       -3.807770   -0.114393   -0.048353
      5          6           0       -2.792458    0.838432    0.019138
      6          6           0       -3.155802    2.184148    0.126741
      7          1           0       -4.777168    3.602820    0.248640
      8          1           0       -6.547623    1.860537    0.124641
      9          1           0       -5.910349   -0.555387   -0.068433
     10          1           0       -1.756516    0.523411   -0.012549
     11          1           0       -2.380240    2.942855    0.180707
     12          7           0       -3.435408   -1.542235   -0.162433
     13          8           0       -2.237126   -1.814064   -0.191855
     14          8           0       -4.348884   -2.362512   -0.220266
     15          6           0        1.756544   -1.459622    0.362376
     16          6           0        2.538361   -1.099947    1.465062
     17          6           0        3.710857   -0.358315    1.292491
     18          6           0        4.073377    0.008487   -0.002625
     19          6           0        3.315579   -0.334624   -1.121242
     20          6           0        2.146960   -1.076489   -0.924987
     21          1           0        0.847227   -2.035830    0.505633
     22          1           0        2.237606   -1.396113    2.466000
     23          1           0        4.334771   -0.066417    2.128521
     24          1           0        3.641174   -0.024847   -2.106861
     25          1           0        1.541747   -1.354408   -1.783196
     26          7           0        5.312595    0.793743   -0.197855
     27          8           0        5.610203    1.104617   -1.349126
     28          8           0        5.962819    1.083483    0.804090
 ---------------------------------------------------------------------

 SCF Done:  E(RHF) =  -868.340228943     A.U. after   16 cycles
 E2 =    -0.2598343592D+01 EUMP2 =    -0.87093857253522D+03

 The electronic state is 1-A.
 Alpha  occ. eigenvalues --  -20.61736 -20.61661 -20.60552 -20.60547 -15.86748
 Alpha  occ. eigenvalues --  -15.85602 -11.31851 -11.30848 -11.28401 -11.28370
 Alpha  occ. eigenvalues --  -11.28062 -11.27422 -11.27403 -11.27334 -11.27324
 Alpha  occ. eigenvalues --  -11.26920 -11.26342 -11.26293  -1.60763  -1.59632
 Alpha  occ. eigenvalues --   -1.40330  -1.39189  -1.19995  -1.18996  -1.09433
 Alpha  occ. eigenvalues --   -1.08370  -1.05358  -1.04385  -0.96314  -0.95227
 Alpha  occ. eigenvalues --   -0.86768  -0.85758  -0.83163  -0.82073  -0.78241
 Alpha  occ. eigenvalues --   -0.77177  -0.72991  -0.72070  -0.71817  -0.71096
 Alpha  occ. eigenvalues --   -0.70958  -0.69961  -0.65651  -0.65351  -0.64619
 Alpha  occ. eigenvalues --   -0.64349  -0.62710  -0.61734  -0.55856  -0.54706
 Alpha  occ. eigenvalues --   -0.53702  -0.53443  -0.52727  -0.52445  -0.49740
 Alpha  occ. eigenvalues --   -0.49687  -0.48584  -0.48564  -0.45792  -0.44621
 Alpha  occ. eigenvalues --   -0.37955  -0.36952  -0.36925  -0.36023
 Alpha virt. eigenvalues --    0.04276   0.05349   0.10705   0.11634   0.15826
 Alpha virt. eigenvalues --    0.16861   0.20763   0.22021   0.26703   0.27354
 Alpha virt. eigenvalues --    0.27852   0.29041   0.30569   0.31464   0.32361

 Mulliken charges:
               1
     1  C   -0.169949
     2  C   -0.218433
     3  C   -0.170577
     4  C    0.158020
     5  C   -0.171778
     6  C   -0.218606
     7  H    0.228344
     8  H    0.225634
     9  H    0.276541
    10  H    0.272617
    11  H    0.226603
    12  N    0.492515
    13  O   -0.474985
    14  O   -0.455300
    15  C   -0.180023
    16  C   -0.221295
    17  C   -0.172157
    18  C    0.157073
    19  C   -0.172704
    20  C   -0.223684
    21  H    0.248581
    22  H    0.223406
    23  H    0.273715
    24  H    0.273833
    25  H    0.228180
    26  N    0.488138
    27  O   -0.461827
    28  O   -0.461885
 Sum of Mulliken charges =  -0.00000

 Dipole moment (field-independent basis, Debye):
    X=             -6.0946    Y=              2.2551    Z=              1.0939  Tot=              6.5899
 Quadrupole moment (field-independent basis, Debye-Ang):
   XX=           -126.1751   YY=           -106.5357   ZZ=           -100.9459
   XY=            -29.6836   XZ=              2.2912   YZ=             -0.2932

 Normal termination of Gaussian 16 at Thu May  6 18:03:12 2021.
