 Gaussian 16, Revision A.03,
 Gaussian 16:  EM64L-G16RevA.03 25-Dec-2016

 -------------
 #p 6-31g* mp2
 -------------

 ------------------------------------------------------
 Input file generated by CHIRIPA (05-May-2021 14:53:16)
 ------------------------------------------------------
 Symbolic Z-matrix:
 Charge =  0 Multiplicity = 1

                         Standard orientation:
 ---------------------------------------------------------------------
 Center     Atomic      Atomic             Coordinates (Angstroms)
 Number     Number       Type             X           Y           Z
 ---------------------------------------------------------------------
      1          6           0        3.560653    0.994527   -0.229388
      2          6           0        2.646891    1.662462    0.798662
      3          6           0        1.873170    2.847592    0.220201
      4          1           0        4.266910    1.739171   -0.621375
      5          1           0        2.956093    0.657524   -1.082811
      6          1           0        3.252800    1.996871    1.650519
      7          1           0        1.942852    0.916097    1.188387
      8          1           0        1.244731    2.525895   -0.616564
      9          1           0        2.562121    3.612810   -0.151807
     10          1           0        1.226244    3.310189    0.972099
     11          6           0        4.340843   -0.191955    0.333897
     12          6           0        5.254606   -0.859890   -0.694153
     13          6           0        6.028326   -2.045020   -0.115691
     14          1           0        4.945403    0.145048    1.187320
     15          1           0        3.634587   -0.936598    0.725884
     16          1           0        5.958644   -0.113525   -1.083878
     17          1           0        4.648697   -1.194299   -1.546010
     18          1           0        5.339376   -2.810238    0.256316
     19          1           0        6.656766   -1.723323    0.721074
     20          1           0        6.675252   -2.507617   -0.867589
     21          6           0       -5.588675    0.005663   -0.098131
     22          6           0       -4.740074    1.062907   -0.442557
     23          6           0       -3.352138    0.897416   -0.414374
     24          6           0       -2.844624   -0.344361   -0.035284
     25          6           0       -3.664012   -1.416882    0.313416
     26          6           0       -5.048887   -1.228682    0.278093
     27          1           0       -6.665669    0.143041   -0.122797
     28          1           0       -5.156479    2.022623   -0.735129
     29          1           0       -2.672155    1.698993   -0.676128
     30          1           0       -3.219400   -2.361909    0.600927
     31          1           0       -5.705509   -2.051525    0.546090
     32          7           0       -1.376897   -0.531580   -0.001668
     33          8           0       -0.954698   -1.635434    0.335807
     34          8           0       -0.676485    0.429079   -0.313432
 ---------------------------------------------------------------------

 SCF Done:  E(RHF) =  -669.536362952     A.U. after   15 cycles
 E2 =    -0.2091460781D+01 EUMP2 =    -0.67162782373288D+03

 The electronic state is 1-A.
 Alpha  occ. eigenvalues --  -20.61053 -20.61041 -15.86073 -11.31352 -11.27910
 Alpha  occ. eigenvalues --  -11.27904 -11.27641 -11.26907 -11.26897 -11.20564
 Alpha  occ. eigenvalues --  -11.20194 -11.20112 -11.19974 -11.19905 -11.19546
 Alpha  occ. eigenvalues --   -1.60106  -1.39663  -1.19516  -1.08930  -1.07090
 Alpha  occ. eigenvalues --   -1.04905  -1.02221  -0.95780  -0.94703  -0.86308
 Alpha  occ. eigenvalues --   -0.85736  -0.82614  -0.78329  -0.77670  -0.76884
 Alpha  occ. eigenvalues --   -0.72313  -0.71415  -0.70625  -0.65177  -0.64909
 Alpha  occ. eigenvalues --   -0.63686  -0.62252  -0.59573  -0.58115  -0.56323
 Alpha  occ. eigenvalues --   -0.55412  -0.53963  -0.53239  -0.52995  -0.51453
 Alpha  occ. eigenvalues --   -0.51146  -0.49083  -0.49044  -0.48604  -0.46644
 Alpha  occ. eigenvalues --   -0.45334  -0.45079  -0.44437  -0.44274  -0.42492
 Alpha  occ. eigenvalues --   -0.37493  -0.36504
 Alpha virt. eigenvalues --    0.04844   0.11151   0.16346   0.21241   0.24191
 Alpha virt. eigenvalues --    0.25519   0.27183   0.27788   0.28288   0.28805
 Alpha virt. eigenvalues --    0.29258   0.30869   0.32159   0.32890   0.32952

 Mulliken charges:
               1
     1  C   -0.298155
     2  C   -0.298303
     3  C   -0.475406
     4  H    0.142091
     5  H    0.156887
     6  H    0.141815
     7  H    0.167525
     8  H    0.168513
     9  H    0.144662
    10  H    0.151288
    11  C   -0.299237
    12  C   -0.298786
    13  C   -0.475234
    14  H    0.144570
    15  H    0.156487
    16  H    0.148366
    17  H    0.152703
    18  H    0.156125
    19  H    0.152796
    20  H    0.156676
    21  C   -0.170448
    22  C   -0.218584
    23  C   -0.170562
    24  C    0.157348
    25  C   -0.170566
    26  C   -0.218612
    27  H    0.226229
    28  H    0.224158
    29  H    0.276202
    30  H    0.275884
    31  H    0.223997
    32  N    0.494042
    33  O   -0.459365
    34  O   -0.465103
 Sum of Mulliken charges =  -0.00000

 Dipole moment (field-independent basis, Debye):
    X=             -5.5990    Y=              0.4911    Z=             -0.1652  Tot=              5.6229
 Quadrupole moment (field-independent basis, Debye-Ang):
   XX=            -67.1539   YY=            -91.9917   ZZ=            -95.2842
   XY=              1.1383   XZ=              0.2554   YZ=             -1.4735

 Normal termination of Gaussian 16 at Thu May  6 04:19:28 2021.
