 Gaussian 16, Revision A.03,
 Gaussian 16:  EM64L-G16RevA.03 25-Dec-2016

 -------------
 #p 6-31g* mp2
 -------------

 ------------------------------------------------------
 Input file generated by CHIRIPA (05-May-2021 14:57:25)
 ------------------------------------------------------
 Symbolic Z-matrix:
 Charge =  0 Multiplicity = 1

                         Standard orientation:
 ---------------------------------------------------------------------
 Center     Atomic      Atomic             Coordinates (Angstroms)
 Number     Number       Type             X           Y           Z
 ---------------------------------------------------------------------
      1          6           0       -1.368183   -0.496384    0.897125
      2          6           0       -2.433126   -0.697255    1.781472
      3          6           0       -3.750583   -0.479421    1.367462
      4          6           0       -3.967780   -0.059125    0.056178
      5          6           0       -2.927926    0.149732   -0.848461
      6          6           0       -1.618541   -0.074275   -0.412709
      7          1           0       -0.347886   -0.668000    1.227183
      8          1           0       -2.241677   -1.025046    2.799286
      9          1           0       -4.593710   -0.627232    2.031320
     10          1           0       -3.150192    0.476744   -1.856964
     11          1           0       -0.793450    0.082531   -1.101682
     12          7           0       -5.358240    0.174754   -0.393624
     13          8           0       -5.523063    0.544821   -1.554021
     14          8           0       -6.256930   -0.016427    0.422735
     15          6           0        4.053942   -2.383847   -0.459793
     16          6           0        5.058671   -1.625415    0.149980
     17          6           0        4.894775   -0.249749    0.337676
     18          6           0        3.708131    0.337575   -0.098458
     19          6           0        2.688705   -0.391061   -0.709318
     20          6           0        2.874246   -1.765341   -0.886743
     21          1           0        4.189667   -3.451959   -0.601610
     22          1           0        5.975883   -2.103082    0.482549
     23          1           0        5.656377    0.361236    0.806804
     24          1           0        1.785380    0.113275   -1.030359
     25          1           0        2.092260   -2.351851   -1.360608
     26          7           0        3.523164    1.793197    0.094812
     27          8           0        2.468444    2.286844   -0.298272
     28          8           0        4.436410    2.412904    0.635719
 ---------------------------------------------------------------------

 SCF Done:  E(RHF) =  -868.337188755     A.U. after   16 cycles
 E2 =    -0.2599960628D+01 EUMP2 =    -0.87093714938259D+03

 The electronic state is 1-A.
 Alpha  occ. eigenvalues --  -20.61607 -20.61588 -20.60775 -20.60770 -15.86656
 Alpha  occ. eigenvalues --  -15.85832 -11.32142 -11.31231 -11.28807 -11.28630
 Alpha  occ. eigenvalues --  -11.28379 -11.27834 -11.27809 -11.27760 -11.27657
 Alpha  occ. eigenvalues --  -11.27584 -11.26918 -11.26821  -1.60673  -1.59850
 Alpha  occ. eigenvalues --   -1.40226  -1.39403  -1.20299  -1.19421  -1.09652
 Alpha  occ. eigenvalues --   -1.08814  -1.05723  -1.04838  -0.96481  -0.95636
 Alpha  occ. eigenvalues --   -0.87102  -0.86246  -0.83312  -0.82473  -0.78368
 Alpha  occ. eigenvalues --   -0.77512  -0.72866  -0.72052  -0.72003  -0.71392
 Alpha  occ. eigenvalues --   -0.71173  -0.70527  -0.65941  -0.65724  -0.65082
 Alpha  occ. eigenvalues --   -0.64881  -0.63077  -0.62169  -0.56162  -0.55353
 Alpha  occ. eigenvalues --   -0.54024  -0.53813  -0.53150  -0.52932  -0.49637
 Alpha  occ. eigenvalues --   -0.49619  -0.48814  -0.48801  -0.45604  -0.44800
 Alpha  occ. eigenvalues --   -0.38245  -0.37404  -0.37329  -0.36434
 Alpha virt. eigenvalues --    0.04153   0.05042   0.10287   0.11206   0.15643
 Alpha virt. eigenvalues --    0.16521   0.18449   0.21850   0.24598   0.27010
 Alpha virt. eigenvalues --    0.28001   0.29049   0.29856   0.30779   0.31798

 Mulliken charges:
               1
     1  C   -0.171201
     2  C   -0.218543
     3  C   -0.170378
     4  C    0.158732
     5  C   -0.170428
     6  C   -0.219055
     7  H    0.225307
     8  H    0.223902
     9  H    0.276051
    10  H    0.276835
    11  H    0.219429
    12  N    0.488019
    13  O   -0.459941
    14  O   -0.460209
    15  C   -0.170751
    16  C   -0.217808
    17  C   -0.169865
    18  C    0.160303
    19  C   -0.182920
    20  C   -0.220971
    21  H    0.229048
    22  H    0.227079
    23  H    0.278526
    24  H    0.274676
    25  H    0.224820
    26  N    0.487134
    27  O   -0.461506
    28  O   -0.456281
 Sum of Mulliken charges =  -0.00000

 Dipole moment (field-independent basis, Debye):
    X=              5.7690    Y=             -5.9705    Z=              0.9797  Tot=              8.3599
 Quadrupole moment (field-independent basis, Debye-Ang):
   XX=           -133.2759   YY=           -108.9700   ZZ=           -100.2412
   XY=            -15.5176   XZ=             -8.0908   YZ=             -1.0228

 Normal termination of Gaussian 16 at Fri May  7 11:07:51 2021.
