 Gaussian 16, Revision A.03,
 Gaussian 16:  EM64L-G16RevA.03 25-Dec-2016

 -------------
 #p 6-31g* mp2
 -------------

 ------------------------------------------------------
 Input file generated by CHIRIPA (05-May-2021 14:53:14)
 ------------------------------------------------------
 Symbolic Z-matrix:
 Charge =  0 Multiplicity = 1

                         Standard orientation:
 ---------------------------------------------------------------------
 Center     Atomic      Atomic             Coordinates (Angstroms)
 Number     Number       Type             X           Y           Z
 ---------------------------------------------------------------------
      1          6           0        3.603398   -0.808448    0.276438
      2          6           0        2.104854   -0.561244    0.099683
      3          6           0        1.248994   -1.708485    0.637395
      4          1           0        3.877164   -1.742250   -0.233476
      5          1           0        3.819671   -0.959761    1.343080
      6          1           0        1.891683   -0.409069   -0.966158
      7          1           0        1.834660    0.372177    0.609914
      8          1           0        1.432513   -1.857806    1.706332
      9          1           0        1.489860   -2.643491    0.121305
     10          1           0        0.181196   -1.510945    0.500843
     11          6           0        4.472120    0.329649   -0.256277
     12          6           0        5.970664    0.082446   -0.079522
     13          6           0        6.826524    1.229687   -0.617235
     14          1           0        4.255848    0.480962   -1.322919
     15          1           0        4.198354    1.263451    0.253637
     16          1           0        6.240859   -0.850975   -0.589754
     17          1           0        6.183836   -0.069730    0.986319
     18          1           0        6.585658    2.164692   -0.101144
     19          1           0        6.643005    1.379007   -1.686171
     20          1           0        7.894322    1.032147   -0.480682
     21          6           0       -3.132211    2.686788    0.333650
     22          6           0       -3.787327    2.137341   -0.773352
     23          6           0       -3.806107    0.753691   -0.972616
     24          6           0       -3.156654   -0.054637   -0.040893
     25          6           0       -2.495382    0.462670    1.071944
     26          6           0       -2.489462    1.849175    1.251146
     27          1           0       -3.122617    3.762750    0.480652
     28          1           0       -4.287332    2.785419   -1.487519
     29          1           0       -4.305719    0.301749   -1.820881
     30          1           0       -2.005787   -0.208908    1.766710
     31          1           0       -1.979898    2.273097    2.111775
     32          7           0       -3.169728   -1.520957   -0.241227
     33          8           0       -2.590100   -2.211531    0.594103
     34          8           0       -3.759357   -1.951920   -1.229784
 ---------------------------------------------------------------------

 SCF Done:  E(RHF) =  -669.536039207     A.U. after   15 cycles
 E2 =    -0.2091531306D+01 EUMP2 =    -0.67162757051231D+03

 The electronic state is 1-A.
 Alpha  occ. eigenvalues --  -20.60914 -20.60907 -15.85929 -11.31259 -11.27820
 Alpha  occ. eigenvalues --  -11.27814 -11.27559 -11.26833 -11.26823 -11.21548
 Alpha  occ. eigenvalues --  -11.21379 -11.21313 -11.21199 -11.21060 -11.20511
 Alpha  occ. eigenvalues --   -1.59967  -1.39524  -1.19428  -1.08832  -1.08294
 Alpha  occ. eigenvalues --   -1.04824  -1.03350  -0.95783  -0.95663  -0.86782
 Alpha  occ. eigenvalues --   -0.86224  -0.82504  -0.79415  -0.78112  -0.77558
 Alpha  occ. eigenvalues --   -0.72154  -0.71282  -0.70536  -0.65083  -0.64932
 Alpha  occ. eigenvalues --   -0.64829  -0.62179  -0.60754  -0.59147  -0.57395
 Alpha  occ. eigenvalues --   -0.55329  -0.55066  -0.53155  -0.52929  -0.52426
 Alpha  occ. eigenvalues --   -0.52195  -0.49720  -0.48917  -0.48912  -0.47728
 Alpha  occ. eigenvalues --   -0.46471  -0.45647  -0.45586  -0.44941  -0.43523
 Alpha  occ. eigenvalues --   -0.37405  -0.36419
 Alpha virt. eigenvalues --    0.04943   0.11154   0.16425   0.21222   0.22969
 Alpha virt. eigenvalues --    0.24329   0.26730   0.27069   0.27622   0.27744
 Alpha virt. eigenvalues --    0.28779   0.30578   0.31588   0.31743   0.31982

 Mulliken charges:
               1
     1  C   -0.297772
     2  C   -0.299650
     3  C   -0.481789
     4  H    0.151276
     5  H    0.148503
     6  H    0.151710
     7  H    0.144507
     8  H    0.151169
     9  H    0.159188
    10  H    0.169946
    11  C   -0.297629
    12  C   -0.299509
    13  C   -0.475512
    14  H    0.149377
    15  H    0.146981
    16  H    0.152815
    17  H    0.151577
    18  H    0.153919
    19  H    0.155093
    20  H    0.160230
    21  C   -0.170528
    22  C   -0.218413
    23  C   -0.170856
    24  C    0.158594
    25  C   -0.171801
    26  C   -0.218681
    27  H    0.225904
    28  H    0.223727
    29  H    0.275717
    30  H    0.277263
    31  H    0.223846
    32  N    0.487880
    33  O   -0.458377
    34  O   -0.458706
 Sum of Mulliken charges =  -0.00000

 Dipole moment (field-independent basis, Debye):
    X=             -0.1086    Y=              5.1039    Z=              0.6696  Tot=              5.1488
 Quadrupole moment (field-independent basis, Debye-Ang):
   XX=            -94.9456   YY=            -95.9853   ZZ=            -90.8756
   XY=            -17.5772   XZ=              0.5610   YZ=             -0.0778

 Normal termination of Gaussian 16 at Wed May  5 15:35:47 2021.
