 Gaussian 16, Revision A.03,
 Gaussian 16:  EM64L-G16RevA.03 25-Dec-2016

 -------------
 #p 6-31g* mp2
 -------------

 ------------------------------------------------------
 Input file generated by CHIRIPA (05-May-2021 14:53:15)
 ------------------------------------------------------
 Symbolic Z-matrix:
 Charge =  0 Multiplicity = 1

                         Standard orientation:
 ---------------------------------------------------------------------
 Center     Atomic      Atomic             Coordinates (Angstroms)
 Number     Number       Type             X           Y           Z
 ---------------------------------------------------------------------
      1          6           0       -3.267559   -0.262301    0.385930
      2          6           0       -3.420064   -1.729925   -0.015077
      3          6           0       -4.131742   -2.563211    1.051198
      4          1           0       -2.711209   -0.203039    1.331397
      5          1           0       -4.261963    0.162437    0.581258
      6          1           0       -2.425769   -2.151391   -0.210932
      7          1           0       -3.975950   -1.785690   -0.959798
      8          1           0       -5.135493   -2.169572    1.241286
      9          1           0       -3.576504   -2.537350    1.994407
     10          1           0       -4.230040   -3.609058    0.743950
     11          6           0       -2.557976    0.583607   -0.669844
     12          6           0       -2.405471    2.051231   -0.268836
     13          6           0       -1.693793    2.884516   -1.335111
     14          1           0       -1.563572    0.158868   -0.865171
     15          1           0       -3.114327    0.524345   -1.615310
     16          1           0       -1.849585    2.106996    0.675885
     17          1           0       -3.399767    2.472697   -0.072981
     18          1           0       -2.249031    2.858656   -2.278320
     19          1           0       -0.690042    2.490877   -1.525199
     20          1           0       -1.595495    3.930363   -1.027863
     21          6           0        2.621874   -1.658760   -1.862713
     22          6           0        2.057746   -0.392646   -2.050418
     23          6           0        1.861242    0.465236   -0.964153
     24          6           0        2.242123    0.022719    0.301706
     25          6           0        2.806635   -1.232888    0.520946
     26          6           0        2.993863   -2.074108   -0.579890
     27          1           0        2.770920   -2.318713   -2.712209
     28          1           0        1.767905   -0.067427   -3.045542
     29          1           0        1.426680    1.450585   -1.081035
     30          1           0        3.085564   -1.529116    1.524872
     31          1           0        3.432201   -3.056848   -0.431135
     32          7           0        2.039003    0.922101    1.459399
     33          8           0        2.383002    0.508632    2.564544
     34          8           0        1.539646    2.023475    1.239734
 ---------------------------------------------------------------------

 SCF Done:  E(RHF) =  -669.535838645     A.U. after   15 cycles
 E2 =    -0.2092323498D+01 EUMP2 =    -0.67162816214303D+03

 The electronic state is 1-A.
 Alpha  occ. eigenvalues --  -20.60887 -20.60882 -15.85929 -11.31285 -11.27845
 Alpha  occ. eigenvalues --  -11.27841 -11.27578 -11.26864 -11.26853 -11.21542
 Alpha  occ. eigenvalues --  -11.21283 -11.21235 -11.21187 -11.21004 -11.21002
 Alpha  occ. eigenvalues --   -1.59955  -1.39508  -1.19455  -1.08848  -1.08273
 Alpha  occ. eigenvalues --   -1.04856  -1.03383  -0.95863  -0.95683  -0.86883
 Alpha  occ. eigenvalues --   -0.86250  -0.82516  -0.79447  -0.78089  -0.77567
 Alpha  occ. eigenvalues --   -0.72147  -0.71275  -0.70565  -0.65106  -0.64972
 Alpha  occ. eigenvalues --   -0.64792  -0.62240  -0.60746  -0.59214  -0.57463
 Alpha  occ. eigenvalues --   -0.55393  -0.55131  -0.53184  -0.52953  -0.52543
 Alpha  occ. eigenvalues --   -0.52280  -0.49810  -0.48906  -0.48904  -0.47771
 Alpha  occ. eigenvalues --   -0.46463  -0.45643  -0.45537  -0.44892  -0.43635
 Alpha  occ. eigenvalues --   -0.37427  -0.36437
 Alpha virt. eigenvalues --    0.04918   0.11139   0.16421   0.20457   0.23009
 Alpha virt. eigenvalues --    0.24019   0.25997   0.27131   0.27687   0.27806
 Alpha virt. eigenvalues --    0.29188   0.30593   0.31459   0.31901   0.32082

 Mulliken charges:
               1
     1  C   -0.298840
     2  C   -0.299323
     3  C   -0.475771
     4  H    0.153750
     5  H    0.149922
     6  H    0.150103
     7  H    0.150176
     8  H    0.155668
     9  H    0.156797
    10  H    0.158471
    11  C   -0.300196
    12  C   -0.303335
    13  C   -0.473236
    14  H    0.146026
    15  H    0.146357
    16  H    0.167094
    17  H    0.151307
    18  H    0.151433
    19  H    0.143978
    20  H    0.166025
    21  C   -0.170606
    22  C   -0.220993
    23  C   -0.176949
    24  C    0.157427
    25  C   -0.170567
    26  C   -0.218503
    27  H    0.226206
    28  H    0.224698
    29  H    0.286168
    30  H    0.275842
    31  H    0.223922
    32  N    0.487291
    33  O   -0.459635
    34  O   -0.460709
 Sum of Mulliken charges =  -0.00000

 Dipole moment (field-independent basis, Debye):
    X=              0.7737    Y=             -3.1213    Z=             -3.9516  Tot=              5.0947
 Quadrupole moment (field-independent basis, Debye-Ang):
   XX=            -90.9448   YY=            -93.1734   ZZ=            -96.1323
   XY=             -9.6068   XZ=             -7.2881   YZ=             -2.7997

 Normal termination of Gaussian 16 at Thu May  6 20:24:03 2021.
