 Gaussian 16, Revision A.03,
 Gaussian 16:  EM64L-G16RevA.03 25-Dec-2016

 -------------
 #p 6-31g* mp2
 -------------

 ------------------------------------------------------
 Input file generated by CHIRIPA (05-May-2021 14:53:14)
 ------------------------------------------------------
 Symbolic Z-matrix:
 Charge =  0 Multiplicity = 1

                         Standard orientation:
 ---------------------------------------------------------------------
 Center     Atomic      Atomic             Coordinates (Angstroms)
 Number     Number       Type             X           Y           Z
 ---------------------------------------------------------------------
      1          6           0       -4.909072    0.085530   -0.288784
      2          6           0       -6.027461   -0.956694   -0.319756
      3          6           0       -7.148966   -0.591594   -1.292752
      4          1           0       -5.332908    1.060776   -0.012735
      5          1           0       -4.495468    0.199513   -1.300385
      6          1           0       -6.437899   -1.069683    0.691871
      7          1           0       -5.600880   -1.929611   -0.595577
      8          1           0       -6.759744   -0.498405   -2.311782
      9          1           0       -7.601519    0.366409   -1.017019
     10          1           0       -7.937866   -1.350184   -1.298960
     11          6           0       -3.780598   -0.265391    0.679271
     12          6           0       -2.662209    0.776833    0.710243
     13          6           0       -1.540704    0.411733    1.683239
     14          1           0       -4.194201   -0.379374    1.690871
     15          1           0       -3.356762   -1.240637    0.403222
     16          1           0       -3.088790    1.749750    0.986064
     17          1           0       -2.251771    0.889822   -0.301384
     18          1           0       -1.088151   -0.546270    1.407506
     19          1           0       -1.929926    0.318544    2.702269
     20          1           0       -0.751804    1.170322    1.689446
     21          6           0        2.224477    2.303359   -0.254783
     22          6           0        2.972006    1.854024   -1.348318
     23          6           0        3.624436    0.618382   -1.302780
     24          6           0        3.507506   -0.145630   -0.142649
     25          6           0        2.770160    0.274583    0.963259
     26          6           0        2.126113    1.513598    0.895487
     27          1           0        1.720909    3.264546   -0.298795
     28          1           0        3.050147    2.465250   -2.242935
     29          1           0        4.209709    0.246279   -2.134893
     30          1           0        2.710711   -0.356985    1.841328
     31          1           0        1.546259    1.860017    1.746256
     32          7           0        4.193767   -1.455534   -0.082671
     33          8           0        4.075179   -2.109830    0.950998
     34          8           0        4.837252   -1.803137   -1.070465
 ---------------------------------------------------------------------

 SCF Done:  E(RHF) =  -669.535123355     A.U. after   15 cycles
 E2 =    -0.2091338310D+01 EUMP2 =    -0.67162646166514D+03

 The electronic state is 1-A.
 Alpha  occ. eigenvalues --  -20.60763 -20.60758 -15.85817 -11.31185 -11.27753
 Alpha  occ. eigenvalues --  -11.27742 -11.27498 -11.26774 -11.26752 -11.22110
 Alpha  occ. eigenvalues --  -11.21828 -11.21746 -11.21683 -11.21664 -11.21269
 Alpha  occ. eigenvalues --   -1.59839  -1.39392  -1.19359  -1.08785  -1.08752
 Alpha  occ. eigenvalues --   -1.04764  -1.03906  -0.96365  -0.95587  -0.87394
 Alpha  occ. eigenvalues --   -0.86160  -0.82420  -0.79977  -0.78578  -0.77467
 Alpha  occ. eigenvalues --   -0.72035  -0.71162  -0.70464  -0.65405  -0.65011
 Alpha  occ. eigenvalues --   -0.64805  -0.62149  -0.61292  -0.59746  -0.57974
 Alpha  occ. eigenvalues --   -0.55635  -0.55268  -0.53361  -0.53010  -0.52854
 Alpha  occ. eigenvalues --   -0.52574  -0.50287  -0.48795  -0.48789  -0.48286
 Alpha  occ. eigenvalues --   -0.46992  -0.46125  -0.46034  -0.44797  -0.44166
 Alpha  occ. eigenvalues --   -0.37334  -0.36333
 Alpha virt. eigenvalues --    0.05065   0.11197   0.16519   0.20746   0.22622
 Alpha virt. eigenvalues --    0.24024   0.26137   0.26326   0.27131   0.28226
 Alpha virt. eigenvalues --    0.28388   0.30056   0.31062   0.31605   0.32051

 Mulliken charges:
               1
     1  C   -0.298499
     2  C   -0.300050
     3  C   -0.475887
     4  H    0.149106
     5  H    0.149614
     6  H    0.152385
     7  H    0.153306
     8  H    0.155336
     9  H    0.154908
    10  H    0.161316
    11  C   -0.299140
    12  C   -0.299476
    13  C   -0.476988
    14  H    0.150349
    15  H    0.152263
    16  H    0.150512
    17  H    0.152439
    18  H    0.160110
    19  H    0.156273
    20  H    0.150198
    21  C   -0.172074
    22  C   -0.218547
    23  C   -0.171005
    24  C    0.158216
    25  C   -0.171531
    26  C   -0.215580
    27  H    0.225641
    28  H    0.223384
    29  H    0.275536
    30  H    0.276164
    31  H    0.224495
    32  N    0.488062
    33  O   -0.460312
    34  O   -0.460523
 Sum of Mulliken charges =  -0.00000

 Dipole moment (field-independent basis, Debye):
    X=             -2.4953    Y=              4.5625    Z=             -0.2393  Tot=              5.2058
 Quadrupole moment (field-independent basis, Debye-Ang):
   XX=           -112.1340   YY=            -96.4966   ZZ=            -90.4518
   XY=             16.9535   XZ=             -3.1956   YZ=             -1.0336

 Normal termination of Gaussian 16 at Wed May  5 20:15:24 2021.
