 Gaussian 16, Revision A.03,
 Gaussian 16:  EM64L-G16RevA.03 25-Dec-2016

 -------------
 #p 6-31g* mp2
 -------------

 ------------------------------------------------------
 Input file generated by CHIRIPA (05-May-2021 14:55:20)
 ------------------------------------------------------
 Symbolic Z-matrix:
 Charge =  0 Multiplicity = 1

                         Standard orientation:
 ---------------------------------------------------------------------
 Center     Atomic      Atomic             Coordinates (Angstroms)
 Number     Number       Type             X           Y           Z
 ---------------------------------------------------------------------
      1          6           0       -3.878635    2.414705    0.607456
      2          6           0       -4.514731    1.717617   -0.425003
      3          6           0       -4.067971    0.448658   -0.805394
      4          6           0       -2.977437   -0.095674   -0.128838
      5          6           0       -2.322682    0.573903    0.903757
      6          6           0       -2.786567    1.841634    1.267377
      7          1           0       -4.232340    3.399985    0.896438
      8          1           0       -5.363075    2.160208   -0.939270
      9          1           0       -4.541889   -0.113018   -1.601221
     10          1           0       -1.479427    0.106750    1.397829
     11          1           0       -2.290624    2.380694    2.069562
     12          7           0       -2.495408   -1.438414   -0.522663
     13          8           0       -1.532606   -1.896057    0.089065
     14          8           0       -3.089524   -2.007785   -1.435615
     15          6           0        3.625422   -0.618496    0.621605
     16          6           0        2.431004   -1.444632    0.143220
     17          6           0        1.867128   -2.355325    1.234308
     18          1           0        4.412770   -1.296529    0.978395
     19          1           0        3.320308   -0.011790    1.485438
     20          1           0        2.737909   -2.048563   -0.720314
     21          1           0        1.646482   -0.764559   -0.212650
     22          1           0        1.534004   -1.765444    2.094349
     23          1           0        2.631632   -3.056744    1.583802
     24          1           0        1.014073   -2.936706    0.870779
     25          6           0        4.200194    0.296895   -0.457942
     26          6           0        5.394611    1.123030    0.020443
     27          6           0        5.958488    2.033723   -1.070645
     28          1           0        4.505308   -0.309811   -1.321775
     29          1           0        3.412846    0.974928   -0.814732
     30          1           0        6.179132    0.442958    0.376314
     31          1           0        5.087706    1.726961    0.883977
     32          1           0        5.193983    2.735143   -1.420139
     33          1           0        6.291611    1.443843   -1.930687
     34          1           0        6.811542    2.615105   -0.707116
 ---------------------------------------------------------------------

 SCF Done:  E(RHF) =  -669.536029608     A.U. after   15 cycles
 E2 =    -0.2091163123D+01 EUMP2 =    -0.67162719273029D+03

 The electronic state is 1-A.
 Alpha  occ. eigenvalues --  -20.60915 -20.60910 -15.85951 -11.31279 -11.27843
 Alpha  occ. eigenvalues --  -11.27839 -11.27583 -11.26854 -11.26845 -11.21368
 Alpha  occ. eigenvalues --  -11.21031 -11.20902 -11.20876 -11.20765 -11.19957
 Alpha  occ. eigenvalues --   -1.59977  -1.39533  -1.19449  -1.08852  -1.07961
 Alpha  occ. eigenvalues --   -1.04847  -1.02970  -0.95702  -0.95405  -0.86438
 Alpha  occ. eigenvalues --   -0.86246  -0.82526  -0.79066  -0.77746  -0.77577
 Alpha  occ. eigenvalues --   -0.72186  -0.71291  -0.70557  -0.65108  -0.64851
 Alpha  occ. eigenvalues --   -0.64608  -0.62194  -0.60386  -0.58796  -0.56972
 Alpha  occ. eigenvalues --   -0.55351  -0.54737  -0.53178  -0.52938  -0.52045
 Alpha  occ. eigenvalues --   -0.51837  -0.49411  -0.48932  -0.48915  -0.47354
 Alpha  occ. eigenvalues --   -0.46139  -0.45293  -0.45244  -0.44901  -0.43209
 Alpha  occ. eigenvalues --   -0.37429  -0.36449
 Alpha virt. eigenvalues --    0.04940   0.11198   0.16431   0.21022   0.23127
 Alpha virt. eigenvalues --    0.24367   0.26777   0.27392   0.27814   0.27963
 Alpha virt. eigenvalues --    0.29080   0.30861   0.31608   0.32205   0.32897

 Mulliken charges:
               1
     1  C   -0.170597
     2  C   -0.218604
     3  C   -0.170608
     4  C    0.157712
     5  C   -0.171750
     6  C   -0.218621
     7  H    0.225944
     8  H    0.223774
     9  H    0.275830
    10  H    0.276835
    11  H    0.223790
    12  N    0.493652
    13  O   -0.465224
    14  O   -0.459214
    15  C   -0.297372
    16  C   -0.298349
    17  C   -0.478859
    18  H    0.148789
    19  H    0.143975
    20  H    0.152373
    21  H    0.151823
    22  H    0.144098
    23  H    0.148324
    24  H    0.186349
    25  C   -0.297361
    26  C   -0.298915
    27  C   -0.475281
    28  H    0.150347
    29  H    0.147166
    30  H    0.152036
    31  H    0.149515
    32  H    0.153753
    33  H    0.155680
    34  H    0.158989
 Sum of Mulliken charges =  -0.00000

 Dipole moment (field-independent basis, Debye):
    X=             -1.9404    Y=              4.6164    Z=              1.3087  Tot=              5.1758
 Quadrupole moment (field-independent basis, Debye-Ang):
   XX=            -82.9998   YY=            -95.9824   ZZ=            -93.7215
   XY=            -14.9714   XZ=             -1.0985   YZ=              0.3785

 Normal termination of Gaussian 16 at Thu May  6 01:20:41 2021.
