 Gaussian 16, Revision A.03,
 Gaussian 16:  EM64L-G16RevA.03 25-Dec-2016

 -------------
 #p 6-31g* mp2
 -------------

 ------------------------------------------------------
 Input file generated by CHIRIPA (05-May-2021 14:55:23)
 ------------------------------------------------------
 Symbolic Z-matrix:
 Charge =  0 Multiplicity = 1

                         Standard orientation:
 ---------------------------------------------------------------------
 Center     Atomic      Atomic             Coordinates (Angstroms)
 Number     Number       Type             X           Y           Z
 ---------------------------------------------------------------------
      1          6           0        2.161082    1.847438    0.328874
      2          6           0        3.376034    2.150031   -0.294703
      3          6           0        4.345281    1.159599   -0.479510
      4          6           0        4.065087   -0.128620   -0.026438
      5          6           0        2.864200   -0.461304    0.598446
      6          6           0        1.909485    0.545033    0.772676
      7          1           0        1.413792    2.623007    0.468328
      8          1           0        3.574158    3.160627   -0.640374
      9          1           0        5.294327    1.366324   -0.959086
     10          1           0        2.695472   -1.477877    0.932405
     11          1           0        0.966825    0.307149    1.257287
     12          7           0        5.083493   -1.185565   -0.216486
     13          8           0        4.812351   -2.312753    0.191639
     14          8           0        6.133577   -0.866796   -0.769972
     15          6           0       -5.653373    0.086937   -0.352992
     16          6           0       -6.787168   -0.833707    0.099680
     17          6           0       -8.110931   -0.530737   -0.602924
     18          1           0       -5.939698    1.130693   -0.164481
     19          1           0       -5.523345   -0.010110   -1.439762
     20          1           0       -6.914099   -0.735985    1.185478
     21          1           0       -6.498032   -1.875402   -0.089753
     22          1           0       -8.007350   -0.647093   -1.686591
     23          1           0       -8.425781    0.498799   -0.404114
     24          1           0       -8.907596   -1.200509   -0.264411
     25          6           0       -4.323565   -0.203614    0.340490
     26          6           0       -3.189770    0.717028   -0.112183
     27          6           0       -1.866007    0.414059    0.590422
     28          1           0       -4.453595   -0.106569    1.427260
     29          1           0       -4.037240   -1.247371    0.151978
     30          1           0       -3.478906    1.758725    0.077251
     31          1           0       -3.062839    0.619307   -1.197980
     32          1           0       -1.551156   -0.615477    0.391612
     33          1           0       -1.969588    0.530415    1.674088
     34          1           0       -1.069342    1.083831    0.251908
 ---------------------------------------------------------------------

 SCF Done:  E(RHF) =  -669.535070052     A.U. after   15 cycles
 E2 =    -0.2091438473D+01 EUMP2 =    -0.67162650852550D+03

 The electronic state is 1-A.
 Alpha  occ. eigenvalues --  -20.60713 -20.60708 -15.85764 -11.31119 -11.27678
 Alpha  occ. eigenvalues --  -11.27650 -11.27412 -11.26708 -11.26599 -11.22451
 Alpha  occ. eigenvalues --  -11.22250 -11.22031 -11.22008 -11.21875 -11.21407
 Alpha  occ. eigenvalues --   -1.59788  -1.39342  -1.19280  -1.09052  -1.08682
 Alpha  occ. eigenvalues --   -1.04680  -1.04199  -0.96687  -0.95521  -0.87737
 Alpha  occ. eigenvalues --   -0.86067  -0.82349  -0.80291  -0.78821  -0.77393
 Alpha  occ. eigenvalues --   -0.71984  -0.71111  -0.70402  -0.65672  -0.64934
 Alpha  occ. eigenvalues --   -0.64712  -0.62067  -0.61587  -0.60039  -0.58261
 Alpha  occ. eigenvalues --   -0.55956  -0.55191  -0.53569  -0.53129  -0.52964
 Alpha  occ. eigenvalues --   -0.52592  -0.50609  -0.48740  -0.48738  -0.48589
 Alpha  occ. eigenvalues --   -0.47281  -0.46374  -0.46266  -0.44750  -0.44437
 Alpha  occ. eigenvalues --   -0.37259  -0.36267
 Alpha virt. eigenvalues --    0.05116   0.11306   0.16601   0.20722   0.22360
 Alpha virt. eigenvalues --    0.23791   0.25952   0.26062   0.26450   0.27498
 Alpha virt. eigenvalues --    0.28616   0.29729   0.30695   0.31576   0.32064

 Mulliken charges:
               1
     1  C   -0.174901
     2  C   -0.218285
     3  C   -0.171582
     4  C    0.158885
     5  C   -0.173616
     6  C   -0.222428
     7  H    0.225263
     8  H    0.223027
     9  H    0.275234
    10  H    0.275397
    11  H    0.236834
    12  N    0.488043
    13  O   -0.460552
    14  O   -0.460671
    15  C   -0.298912
    16  C   -0.300139
    17  C   -0.476053
    18  H    0.149969
    19  H    0.150778
    20  H    0.152316
    21  H    0.153024
    22  H    0.155903
    23  H    0.155378
    24  H    0.161632
    25  C   -0.299441
    26  C   -0.299998
    27  C   -0.483743
    28  H    0.150106
    29  H    0.151506
    30  H    0.152749
    31  H    0.155572
    32  H    0.158414
    33  H    0.155402
    34  H    0.154890
 Sum of Mulliken charges =  -0.00000

 Dipole moment (field-independent basis, Debye):
    X=             -3.8216    Y=              3.6895    Z=              0.6457  Tot=              5.3511
 Quadrupole moment (field-independent basis, Debye-Ang):
   XX=           -122.8727   YY=            -93.5056   ZZ=            -94.1814
   XY=             18.0276   XZ=              0.7689   YZ=             -1.3654

 Normal termination of Gaussian 16 at Wed May  5 17:34:11 2021.
