 Gaussian 16, Revision A.03,
 Gaussian 16:  EM64L-G16RevA.03 25-Dec-2016

 -------------
 #p 6-31g* mp2
 -------------

 ------------------------------------------------------
 Input file generated by CHIRIPA (05-May-2021 14:53:15)
 ------------------------------------------------------
 Symbolic Z-matrix:
 Charge =  0 Multiplicity = 1

                         Standard orientation:
 ---------------------------------------------------------------------
 Center     Atomic      Atomic             Coordinates (Angstroms)
 Number     Number       Type             X           Y           Z
 ---------------------------------------------------------------------
      1          6           0       -3.601449    0.688599    0.441160
      2          6           0       -2.415058    1.498237   -0.083194
      3          6           0       -2.143577    2.753853    0.745975
      4          1           0       -4.496789    1.325191    0.449067
      5          1           0       -3.410158    0.405252    1.485438
      6          1           0       -2.607919    1.778794   -1.126606
      7          1           0       -1.522480    0.859588   -0.090033
      8          1           0       -1.925618    2.489223    1.785718
      9          1           0       -3.017225    3.413651    0.743256
     10          1           0       -1.291463    3.317596    0.353603
     11          6           0       -3.885326   -0.569642   -0.377357
     12          6           0       -5.071717   -1.379280    0.146997
     13          6           0       -5.343198   -2.634896   -0.682172
     14          1           0       -4.076618   -0.286295   -1.421635
     15          1           0       -2.989986   -1.206234   -0.385264
     16          1           0       -5.964295   -0.740630    0.153837
     17          1           0       -4.878856   -1.659837    1.190409
     18          1           0       -4.469551   -3.294694   -0.679453
     19          1           0       -5.561157   -2.370265   -1.721915
     20          1           0       -6.195312   -3.198639   -0.289800
     21          6           0        4.344621   -2.083335    0.422753
     22          6           0        3.408016   -1.660659    1.371771
     23          6           0        2.615782   -0.533473    1.134355
     24          6           0        2.787232    0.150449   -0.068203
     25          6           0        3.711767   -0.245789   -1.033356
     26          6           0        4.493245   -1.375799   -0.774671
     27          1           0        4.955869   -2.960057    0.615444
     28          1           0        3.290430   -2.208198    2.302588
     29          1           0        1.883080   -0.184295    1.851739
     30          1           0        3.806204    0.320505   -1.951948
     31          1           0        5.219827   -1.701752   -1.513507
     32          7           0        1.954222    1.345245   -0.330803
     33          8           0        2.124499    1.930491   -1.398103
     34          8           0        1.146806    1.673857    0.535644
 ---------------------------------------------------------------------

 SCF Done:  E(RHF) =  -669.535965592     A.U. after   15 cycles
 E2 =    -0.2091780433D+01 EUMP2 =    -0.67162774602513D+03

 The electronic state is 1-A.
 Alpha  occ. eigenvalues --  -20.61023 -20.61004 -15.86026 -11.31334 -11.27896
 Alpha  occ. eigenvalues --  -11.27890 -11.27627 -11.26897 -11.26887 -11.21127
 Alpha  occ. eigenvalues --  -11.20731 -11.20725 -11.20438 -11.20171 -11.19360
 Alpha  occ. eigenvalues --   -1.60068  -1.39626  -1.19500  -1.08909  -1.07590
 Alpha  occ. eigenvalues --   -1.04893  -1.02559  -0.95759  -0.95012  -0.86296
 Alpha  occ. eigenvalues --   -0.86049  -0.82587  -0.78706  -0.77646  -0.77324
 Alpha  occ. eigenvalues --   -0.72261  -0.71378  -0.70609  -0.65159  -0.64897
 Alpha  occ. eigenvalues --   -0.64234  -0.62241  -0.59963  -0.58468  -0.56577
 Alpha  occ. eigenvalues --   -0.55396  -0.54339  -0.53225  -0.52985  -0.51681
 Alpha  occ. eigenvalues --   -0.51463  -0.49070  -0.49014  -0.48909  -0.46985
 Alpha  occ. eigenvalues --   -0.45819  -0.45223  -0.44855  -0.44520  -0.42809
 Alpha  occ. eigenvalues --   -0.37476  -0.36494
 Alpha virt. eigenvalues --    0.04860   0.11160   0.16339   0.21273   0.23594
 Alpha virt. eigenvalues --    0.25332   0.27175   0.27399   0.28089   0.28378
 Alpha virt. eigenvalues --    0.29013   0.30835   0.32078   0.32421   0.32727

 Mulliken charges:
               1
     1  C   -0.297694
     2  C   -0.299013
     3  C   -0.471671
     4  H    0.146853
     5  H    0.145384
     6  H    0.148253
     7  H    0.157038
     8  H    0.149323
     9  H    0.143231
    10  H    0.179298
    11  C   -0.296762
    12  C   -0.298650
    13  C   -0.474984
    14  H    0.149059
    15  H    0.145998
    16  H    0.151641
    17  H    0.149770
    18  H    0.152962
    19  H    0.154991
    20  H    0.158306
    21  C   -0.170517
    22  C   -0.218504
    23  C   -0.171054
    24  C    0.157859
    25  C   -0.170536
    26  C   -0.218554
    27  H    0.226174
    28  H    0.223966
    29  H    0.275694
    30  H    0.276003
    31  H    0.224000
    32  N    0.489366
    33  O   -0.458459
    34  O   -0.458770
 Sum of Mulliken charges =  -0.00000

 Dipole moment (field-independent basis, Debye):
    X=              3.3264    Y=             -4.1154    Z=              0.8871  Tot=              5.3655
 Quadrupole moment (field-independent basis, Debye-Ang):
   XX=            -78.8104   YY=            -97.2904   ZZ=            -91.1101
   XY=            -11.9359   XZ=              0.4307   YZ=             -1.1678

 Normal termination of Gaussian 16 at Thu May  6 12:10:31 2021.
