 Gaussian 16, Revision A.03,
 Gaussian 16:  EM64L-G16RevA.03 25-Dec-2016

 -------------
 #p 6-31g* mp2
 -------------

 ------------------------------------------------------
 Input file generated by CHIRIPA (05-May-2021 14:57:23)
 ------------------------------------------------------
 Symbolic Z-matrix:
 Charge =  0 Multiplicity = 1

                         Standard orientation:
 ---------------------------------------------------------------------
 Center     Atomic      Atomic             Coordinates (Angstroms)
 Number     Number       Type             X           Y           Z
 ---------------------------------------------------------------------
      1          6           0        4.559061   -1.820152   -0.115583
      2          6           0        3.160700   -1.853065   -0.110682
      3          6           0        2.422518   -0.665809   -0.118272
      4          6           0        3.118286    0.542098   -0.130777
      5          6           0        4.510750    0.607724   -0.135934
      6          6           0        5.228443   -0.592028   -0.128171
      7          1           0        5.124540   -2.747295   -0.109620
      8          1           0        2.638181   -2.805391   -0.100909
      9          1           0        1.339285   -0.662317   -0.114720
     10          1           0        5.003510    1.572354   -0.145712
     11          1           0        6.314359   -0.563430   -0.132003
     12          7           0        2.347651    1.805607   -0.138903
     13          8           0        2.984359    2.856854   -0.149889
     14          8           0        1.121512    1.720775   -0.134133
     15          6           0       -1.209452   -1.694273    0.738147
     16          6           0       -1.458888   -0.479665    1.385471
     17          6           0       -2.583793    0.282417    1.056282
     18          6           0       -3.442114   -0.202337    0.070589
     19          6           0       -3.220817   -1.408526   -0.592302
     20          6           0       -2.089660   -2.154016   -0.246937
     21          1           0       -0.333170   -2.279833    1.000150
     22          1           0       -0.777031   -0.120152    2.150891
     23          1           0       -2.800919    1.226216    1.541584
     24          1           0       -3.918703   -1.740884   -1.351189
     25          1           0       -1.898463   -3.096932   -0.751318
     26          7           0       -4.636310    0.595664   -0.286470
     27          8           0       -5.377144    0.146626   -1.158347
     28          8           0       -4.808876    1.655064    0.312303
 ---------------------------------------------------------------------

 SCF Done:  E(RHF) =  -868.336780160     A.U. after   16 cycles
 E2 =    -0.2601842242D+01 EUMP2 =    -0.87093862240187D+03

 The electronic state is 1-A.
 Alpha  occ. eigenvalues --  -20.61323 -20.61302 -20.60526 -20.60506 -15.86366
 Alpha  occ. eigenvalues --  -15.85570 -11.31803 -11.31049 -11.28373 -11.28362
 Alpha  occ. eigenvalues --  -11.28150 -11.27625 -11.27519 -11.27507 -11.27495
 Alpha  occ. eigenvalues --  -11.27376 -11.26805 -11.26663  -1.60390  -1.59587
 Alpha  occ. eigenvalues --   -1.39940  -1.39137  -1.19995  -1.19232  -1.09372
 Alpha  occ. eigenvalues --   -1.08671  -1.05423  -1.04622  -0.96195  -0.95475
 Alpha  occ. eigenvalues --   -0.86811  -0.86054  -0.83040  -0.82271  -0.78078
 Alpha  occ. eigenvalues --   -0.77259  -0.72584  -0.71796  -0.71719  -0.71159
 Alpha  occ. eigenvalues --   -0.70900  -0.70412  -0.65648  -0.65446  -0.64904
 Alpha  occ. eigenvalues --   -0.64654  -0.62773  -0.61953  -0.55922  -0.55275
 Alpha  occ. eigenvalues --   -0.53733  -0.53595  -0.52857  -0.52737  -0.49346
 Alpha  occ. eigenvalues --   -0.49328  -0.48564  -0.48536  -0.45331  -0.44516
 Alpha  occ. eigenvalues --   -0.37971  -0.37299  -0.37028  -0.36148
 Alpha virt. eigenvalues --    0.04450   0.05180   0.10583   0.11434   0.15886
 Alpha virt. eigenvalues --    0.16510   0.19644   0.22020   0.25491   0.27330
 Alpha virt. eigenvalues --    0.27748   0.29676   0.30119   0.31939   0.32263

 Mulliken charges:
               1
     1  C   -0.169783
     2  C   -0.222941
     3  C   -0.181587
     4  C    0.156604
     5  C   -0.169141
     6  C   -0.218814
     7  H    0.227074
     8  H    0.217862
     9  H    0.284064
    10  H    0.277754
    11  H    0.225818
    12  N    0.487175
    13  O   -0.457365
    14  O   -0.461390
    15  C   -0.186718
    16  C   -0.205258
    17  C   -0.164407
    18  C    0.160287
    19  C   -0.171135
    20  C   -0.217495
    21  H    0.216789
    22  H    0.227648
    23  H    0.280235
    24  H    0.275321
    25  H    0.219977
    26  N    0.488006
    27  O   -0.461414
    28  O   -0.457167
 Sum of Mulliken charges =  -0.00000

 Dipole moment (field-independent basis, Debye):
    X=              6.8730    Y=             -6.9224    Z=              1.3234  Tot=              9.8443
 Quadrupole moment (field-independent basis, Debye-Ang):
   XX=           -112.4427   YY=           -105.9317   ZZ=           -103.6164
   XY=             -0.3230   XZ=             -3.6261   YZ=              2.9745

 Normal termination of Gaussian 16 at Thu May  6 03:24:24 2021.
