 Gaussian 16, Revision A.03,
 Gaussian 16:  EM64L-G16RevA.03 25-Dec-2016

 -------------
 #p 6-31g* mp2
 -------------

 ------------------------------------------------------
 Input file generated by CHIRIPA (05-May-2021 14:53:15)
 ------------------------------------------------------
 Symbolic Z-matrix:
 Charge =  0 Multiplicity = 1

                         Standard orientation:
 ---------------------------------------------------------------------
 Center     Atomic      Atomic             Coordinates (Angstroms)
 Number     Number       Type             X           Y           Z
 ---------------------------------------------------------------------
      1          6           0       -2.872770   -0.546253   -0.112415
      2          6           0       -2.604292   -1.411299    1.119493
      3          6           0       -2.859897   -2.897220    0.865524
      4          1           0       -3.913061   -0.690998   -0.434578
      5          1           0       -2.238222   -0.892184   -0.940108
      6          1           0       -3.238154   -1.062955    1.945018
      7          1           0       -1.564574   -1.264332    1.438876
      8          1           0       -2.217340   -3.266417    0.059662
      9          1           0       -3.900428   -3.063895    0.568680
     10          1           0       -2.661801   -3.497145    1.759229
     11          6           0       -2.621698    0.941686    0.125762
     12          6           0       -2.890176    1.806732   -1.106146
     13          6           0       -2.634571    3.292653   -0.852177
     14          1           0       -3.256246    1.287617    0.953455
     15          1           0       -1.581407    1.086431    0.447925
     16          1           0       -3.929893    1.659765   -1.425529
     17          1           0       -2.256314    1.458387   -1.931671
     18          1           0       -1.594040    3.459328   -0.555333
     19          1           0       -3.277128    3.661850   -0.046315
     20          1           0       -2.832667    3.892578   -1.745882
     21          6           0        2.513030    1.319544    2.009411
     22          6           0        1.657946    0.215968    2.095845
     23          6           0        1.447268   -0.607642    0.985967
     24          6           0        2.110820   -0.296968   -0.199980
     25          6           0        2.968864    0.795381   -0.317563
     26          6           0        3.164611    1.605225    0.805105
     27          1           0        2.670891    1.953997    2.876558
     28          1           0        1.150590   -0.008304    3.029835
     29          1           0        0.790674   -1.468321    1.025118
     30          1           0        3.460619    0.993565   -1.262188
     31          1           0        3.829246    2.461613    0.735070
     32          7           0        1.895688   -1.161600   -1.381729
     33          8           0        2.492098   -0.866467   -2.415086
     34          8           0        1.134730   -2.118060   -1.252249
 ---------------------------------------------------------------------

 SCF Done:  E(RHF) =  -669.535887303     A.U. after   15 cycles
 E2 =    -0.2092717961D+01 EUMP2 =    -0.67162860526400D+03

 The electronic state is 1-A.
 Alpha  occ. eigenvalues --  -20.60906 -20.60900 -15.85950 -11.31292 -11.27857
 Alpha  occ. eigenvalues --  -11.27849 -11.27590 -11.26874 -11.26861 -11.21684
 Alpha  occ. eigenvalues --  -11.21498 -11.21312 -11.21184 -11.21063 -11.20881
 Alpha  occ. eigenvalues --   -1.59973  -1.39527  -1.19467  -1.08861  -1.08350
 Alpha  occ. eigenvalues --   -1.04867  -1.03470  -0.95889  -0.95700  -0.86907
 Alpha  occ. eigenvalues --   -0.86260  -0.82533  -0.79550  -0.78172  -0.77579
 Alpha  occ. eigenvalues --   -0.72168  -0.71293  -0.70576  -0.65121  -0.65069
 Alpha  occ. eigenvalues --   -0.64787  -0.62246  -0.60830  -0.59268  -0.57514
 Alpha  occ. eigenvalues --   -0.55366  -0.55156  -0.53197  -0.52957  -0.52602
 Alpha  occ. eigenvalues --   -0.52310  -0.49813  -0.48926  -0.48923  -0.47855
 Alpha  occ. eigenvalues --   -0.46577  -0.45723  -0.45602  -0.44916  -0.43709
 Alpha  occ. eigenvalues --   -0.37439  -0.36436
 Alpha virt. eigenvalues --    0.04900   0.11149   0.16371   0.20351   0.22972
 Alpha virt. eigenvalues --    0.24029   0.25999   0.27152   0.27879   0.28018
 Alpha virt. eigenvalues --    0.28889   0.30842   0.31522   0.31812   0.32092

 Mulliken charges:
               1
     1  C   -0.301833
     2  C   -0.298524
     3  C   -0.479905
     4  H    0.150248
     5  H    0.161504
     6  H    0.149893
     7  H    0.138741
     8  H    0.168711
     9  H    0.155946
    10  H    0.156375
    11  C   -0.300601
    12  C   -0.300084
    13  C   -0.475536
    14  H    0.146625
    15  H    0.148219
    16  H    0.152446
    17  H    0.155810
    18  H    0.153330
    19  H    0.153589
    20  H    0.160854
    21  C   -0.170678
    22  C   -0.219645
    23  C   -0.173395
    24  C    0.158027
    25  C   -0.170899
    26  C   -0.218505
    27  H    0.226339
    28  H    0.224977
    29  H    0.280761
    30  H    0.275909
    31  H    0.224012
    32  N    0.488087
    33  O   -0.459418
    34  O   -0.461381
 Sum of Mulliken charges =  -0.00000

 Dipole moment (field-independent basis, Debye):
    X=              0.8224    Y=              2.9873    Z=              4.0282  Tot=              5.0820
 Quadrupole moment (field-independent basis, Debye-Ang):
   XX=            -89.0832   YY=            -96.5893   ZZ=            -95.4212
   XY=              8.3843   XZ=              6.9564   YZ=             -3.3517

 Normal termination of Gaussian 16 at Wed May  5 15:38:09 2021.
