 Gaussian 16, Revision A.03,
 Gaussian 16:  EM64L-G16RevA.03 25-Dec-2016

 -------------
 #p 6-31g* mp2
 -------------

 ------------------------------------------------------
 Input file generated by CHIRIPA (05-May-2021 14:57:25)
 ------------------------------------------------------
 Symbolic Z-matrix:
 Charge =  0 Multiplicity = 1

                         Standard orientation:
 ---------------------------------------------------------------------
 Center     Atomic      Atomic             Coordinates (Angstroms)
 Number     Number       Type             X           Y           Z
 ---------------------------------------------------------------------
      1          6           0       -4.686542   -1.924916   -0.006845
      2          6           0       -5.370824   -0.793564   -0.463266
      3          6           0       -4.742447    0.455102   -0.486135
      4          6           0       -3.423134    0.536538   -0.043337
      5          6           0       -2.714749   -0.572278    0.417107
      6          6           0       -3.363022   -1.810864    0.431113
      7          1           0       -5.182408   -2.890995    0.007478
      8          1           0       -6.398748   -0.879161   -0.803987
      9          1           0       -5.248710    1.347174   -0.834451
     10          1           0       -1.690704   -0.455572    0.750469
     11          1           0       -2.829138   -2.687787    0.786103
     12          7           0       -2.747368    1.853109   -0.062855
     13          8           0       -1.584510    1.898362    0.332557
     14          8           0       -3.393356    2.814855   -0.473197
     15          6           0        5.614790    1.056370   -0.340924
     16          6           0        4.763166    1.356203    0.727420
     17          6           0        3.607793    0.600581    0.948089
     18          6           0        3.333394   -0.452570    0.076958
     19          6           0        4.162179   -0.776063   -0.996243
     20          6           0        5.312112   -0.006932   -1.197835
     21          1           0        6.510199    1.648602   -0.504935
     22          1           0        4.995718    2.181400    1.394514
     23          1           0        2.931105    0.810854    1.767415
     24          1           0        3.903884   -1.604745   -1.644308
     25          1           0        5.971671   -0.242078   -2.028337
     26          7           0        2.113132   -1.259664    0.300472
     27          8           0        1.893739   -2.182354   -0.481287
     28          8           0        1.399190   -0.954293    1.253190
 ---------------------------------------------------------------------

 SCF Done:  E(RHF) =  -868.340491374     A.U. after   16 cycles
 E2 =    -0.2598356675D+01 EUMP2 =    -0.87093884804955D+03

 The electronic state is 1-A.
 Alpha  occ. eigenvalues --  -20.60988 -20.60961 -20.60018 -20.60004 -15.85986
 Alpha  occ. eigenvalues --  -15.85060 -11.31081 -11.30231 -11.27656 -11.27589
 Alpha  occ. eigenvalues --  -11.27354 -11.26888 -11.26619 -11.26608 -11.26581
 Alpha  occ. eigenvalues --  -11.26568 -11.25885 -11.25686  -1.60028  -1.59096
 Alpha  occ. eigenvalues --   -1.39586  -1.38650  -1.19237  -1.18412  -1.08691
 Alpha  occ. eigenvalues --   -1.07864  -1.04603  -1.03766  -0.95568  -0.94714
 Alpha  occ. eigenvalues --   -0.86017  -0.85187  -0.82410  -0.81537  -0.77478
 Alpha  occ. eigenvalues --   -0.76586  -0.72228  -0.71326  -0.71271  -0.70417
 Alpha  occ. eigenvalues --   -0.70358  -0.69525  -0.64901  -0.64616  -0.64064
 Alpha  occ. eigenvalues --   -0.63768  -0.61953  -0.61080  -0.55138  -0.54331
 Alpha  occ. eigenvalues --   -0.52942  -0.52700  -0.52146  -0.51843  -0.48988
 Alpha  occ. eigenvalues --   -0.48975  -0.48048  -0.48026  -0.45038  -0.44099
 Alpha  occ. eigenvalues --   -0.37210  -0.36437  -0.36187  -0.35368
 Alpha virt. eigenvalues --    0.05018   0.05905   0.11471   0.12272   0.16540
 Alpha virt. eigenvalues --    0.17413   0.21582   0.22455   0.27522   0.28317
 Alpha virt. eigenvalues --    0.28527   0.29382   0.31151   0.31942   0.32694

 Mulliken charges:
               1
     1  C   -0.171123
     2  C   -0.219771
     3  C   -0.172052
     4  C    0.155842
     5  C   -0.176525
     6  C   -0.220892
     7  H    0.222854
     8  H    0.219522
     9  H    0.271860
    10  H    0.294461
    11  H    0.229592
    12  N    0.487625
    13  O   -0.459875
    14  O   -0.465406
    15  C   -0.169767
    16  C   -0.218479
    17  C   -0.167197
    18  C    0.158397
    19  C   -0.170449
    20  C   -0.218789
    21  H    0.225882
    22  H    0.224999
    23  H    0.278943
    24  H    0.274214
    25  H    0.222964
    26  N    0.490115
    27  O   -0.462991
    28  O   -0.463955
 Sum of Mulliken charges =  -0.00000

 Dipole moment (field-independent basis, Debye):
    X=              2.3051    Y=             -1.8384    Z=             -0.6169  Tot=              3.0123
 Quadrupole moment (field-independent basis, Debye-Ang):
   XX=            -57.9764   YY=           -111.1798   ZZ=           -102.1637
   XY=             20.4209   XZ=             -1.9259   YZ=              2.5734

 Normal termination of Gaussian 16 at Thu May  6 13:03:28 2021.
