 Gaussian 16, Revision A.03,
 Gaussian 16:  EM64L-G16RevA.03 25-Dec-2016

 -------------
 #p 6-31g* mp2
 -------------

 ------------------------------------------------------
 Input file generated by CHIRIPA (05-May-2021 14:51:08)
 ------------------------------------------------------
 Symbolic Z-matrix:
 Charge =  0 Multiplicity = 1

                         Standard orientation:
 ---------------------------------------------------------------------
 Center     Atomic      Atomic             Coordinates (Angstroms)
 Number     Number       Type             X           Y           Z
 ---------------------------------------------------------------------
      1          6           0        2.969287   -0.073133    0.313636
      2          6           0        2.428583    0.438716    1.649164
      3          6           0        0.911525    0.629035    1.638834
      4          1           0        2.692243    0.632509   -0.481512
      5          1           0        2.480847   -1.026659    0.069483
      6          1           0        2.918910    1.390303    1.891398
      7          1           0        2.707112   -0.268130    2.441254
      8          1           0        0.405989   -0.317525    1.421906
      9          1           0        0.618991    1.350331    0.868926
     10          1           0        0.546305    0.995451    2.603310
     11          6           0        4.484401   -0.268401    0.308290
     12          6           0        5.025105   -0.780251   -1.027238
     13          6           0        6.542164   -0.970569   -1.016909
     14          1           0        4.972841    0.685124    0.552443
     15          1           0        4.761446   -0.974044    1.103437
     16          1           0        4.746577   -0.073405   -1.819328
     17          1           0        4.534778   -1.731838   -1.269472
     18          1           0        6.834698   -1.691865   -0.247001
     19          1           0        7.047700   -0.024009   -0.799981
     20          1           0        6.907384   -1.336985   -1.981384
     21          6           0       -3.572971    0.889807   -0.517692
     22          6           0       -2.092630    1.252442   -0.394942
     23          6           0       -1.800604    2.694138   -0.812111
     24          1           0       -3.897216    1.045487   -1.555755
     25          1           0       -4.164571    1.578565    0.101191
     26          1           0       -1.503876    0.562333   -1.012788
     27          1           0       -1.771823    1.095698    0.642907
     28          1           0       -2.362804    3.396952   -0.188745
     29          1           0       -2.093335    2.860556   -1.853847
     30          1           0       -0.736587    2.932037   -0.716554
     31          6           0       -3.880717   -0.548272   -0.104233
     32          6           0       -5.361060   -0.910908   -0.226983
     33          6           0       -5.653084   -2.352604    0.190185
     34          1           0       -3.289118   -1.237031   -0.723117
     35          1           0       -3.556472   -0.703953    0.933829
     36          1           0       -5.681866   -0.754163   -1.264832
     37          1           0       -5.949812   -0.220798    0.390863
     38          1           0       -5.360355   -2.519023    1.231922
     39          1           0       -5.090884   -3.055419   -0.433181
     40          1           0       -6.717101   -2.590503    0.094628
 ---------------------------------------------------------------------

 SCF Done:  E(RHF) =  -470.732224534     A.U. after   11 cycles
 E2 =    -0.1583363827D+01 EUMP2 =    -0.47231558836110D+03

 The electronic state is 1-A.
 Alpha  occ. eigenvalues --  -11.21598 -11.21570 -11.21563 -11.21443 -11.21396
 Alpha  occ. eigenvalues --  -11.21348 -11.21336 -11.21279 -11.21068 -11.21053
 Alpha  occ. eigenvalues --  -11.21050 -11.20994  -1.08426  -1.08365  -1.03564
 Alpha  occ. eigenvalues --   -1.03436  -0.96023  -0.95893  -0.87011  -0.86943
 Alpha  occ. eigenvalues --   -0.79750  -0.79406  -0.78290  -0.78104  -0.65055
 Alpha  occ. eigenvalues --   -0.65000  -0.60967  -0.60850  -0.59391  -0.59302
 Alpha  occ. eigenvalues --   -0.57781  -0.57372  -0.55282  -0.55179  -0.52701
 Alpha  occ. eigenvalues --   -0.52648  -0.52379  -0.52344  -0.49898  -0.49865
 Alpha  occ. eigenvalues --   -0.48124  -0.47654  -0.46633  -0.46523  -0.45905
 Alpha  occ. eigenvalues --   -0.45699  -0.45661  -0.45473  -0.43772  -0.43724
 Alpha virt. eigenvalues --    0.21927   0.23037   0.23482   0.24914   0.25981
 Alpha virt. eigenvalues --    0.26473   0.26800   0.27480   0.27740   0.29209
 Alpha virt. eigenvalues --    0.30515   0.31077   0.31587   0.31744   0.32423

 Mulliken charges:
               1
     1  C   -0.298101
     2  C   -0.300630
     3  C   -0.480558
     4  H    0.149174
     5  H    0.149480
     6  H    0.151491
     7  H    0.151515
     8  H    0.156077
     9  H    0.162645
    10  H    0.158809
    11  C   -0.298225
    12  C   -0.299623
    13  C   -0.475695
    14  H    0.149496
    15  H    0.149680
    16  H    0.151891
    17  H    0.151868
    18  H    0.155180
    19  H    0.155186
    20  H    0.160218
    21  C   -0.297753
    22  C   -0.304845
    23  C   -0.478241
    24  H    0.148871
    25  H    0.149009
    26  H    0.151426
    27  H    0.161996
    28  H    0.155316
    29  H    0.155291
    30  H    0.159785
    31  C   -0.298275
    32  C   -0.299538
    33  C   -0.475673
    34  H    0.149165
    35  H    0.149562
    36  H    0.151891
    37  H    0.151868
    38  H    0.155087
    39  H    0.155034
    40  H    0.160149
 Sum of Mulliken charges =  -0.00000

 Dipole moment (field-independent basis, Debye):
    X=             -0.0001    Y=              0.0006    Z=              0.0151  Tot=              0.0151
 Quadrupole moment (field-independent basis, Debye-Ang):
   XX=            -86.2972   YY=            -84.8714   ZZ=            -83.9024
   XY=             -0.1122   XZ=             -0.0216   YZ=              0.2616

 Normal termination of Gaussian 16 at Wed May  5 16:35:29 2021.
