 Gaussian 16, Revision A.03,
 Gaussian 16:  EM64L-G16RevA.03 25-Dec-2016

 -------------
 #p 6-31g* mp2
 -------------

 ------------------------------------------------------
 Input file generated by CHIRIPA (05-May-2021 14:55:20)
 ------------------------------------------------------
 Symbolic Z-matrix:
 Charge =  0 Multiplicity = 1

                         Standard orientation:
 ---------------------------------------------------------------------
 Center     Atomic      Atomic             Coordinates (Angstroms)
 Number     Number       Type             X           Y           Z
 ---------------------------------------------------------------------
      1          6           0        0.908198    0.490280    2.048866
      2          6           0        2.115443    1.180562    1.898563
      3          6           0        3.042089    0.787415    0.928351
      4          6           0        2.727618   -0.305345    0.121956
      5          6           0        1.533355   -1.013376    0.247330
      6          6           0        0.621512   -0.602559    1.224224
      7          1           0        0.194108    0.802550    2.805146
      8          1           0        2.340755    2.029640    2.537584
      9          1           0        3.984238    1.303909    0.790482
     10          1           0        1.336859   -1.855941   -0.404506
     11          1           0       -0.315260   -1.140517    1.338697
     12          7           0        3.700780   -0.730906   -0.908701
     13          8           0        3.400001   -1.696868   -1.606616
     14          8           0        4.745896   -0.090439   -0.999098
     15          6           0       -3.309812    1.059136   -0.464070
     16          6           0       -1.963142    1.664914   -0.860927
     17          6           0       -2.026757    3.182239   -1.038333
     18          1           0       -4.057037    1.309219   -1.229614
     19          1           0       -3.652129    1.524484    0.470631
     20          1           0       -1.622807    1.197572   -1.793868
     21          1           0       -1.218991    1.413199   -0.094446
     22          1           0       -2.342177    3.665961   -0.108211
     23          1           0       -2.748287    3.449110   -1.817290
     24          1           0       -1.053351    3.594442   -1.321934
     25          6           0       -3.262293   -0.457004   -0.282991
     26          6           0       -4.608964   -1.062782    0.113866
     27          6           0       -4.545348   -2.580108    0.291271
     28          1           0       -2.919976   -0.922352   -1.217691
     29          1           0       -2.515068   -0.707087    0.482553
     30          1           0       -5.353115   -0.811067   -0.652615
     31          1           0       -4.949299   -0.595440    1.046807
     32          1           0       -3.823819   -2.846978    1.070229
     33          1           0       -4.229928   -3.063830   -0.638849
     34          1           0       -5.518755   -2.992310    0.574873
 ---------------------------------------------------------------------

 SCF Done:  E(RHF) =  -669.534917515     A.U. after   15 cycles
 E2 =    -0.2093032901D+01 EUMP2 =    -0.67162795041611D+03

 The electronic state is 1-A.
 Alpha  occ. eigenvalues --  -20.60790 -20.60784 -15.85843 -11.31228 -11.27792
 Alpha  occ. eigenvalues --  -11.27780 -11.27553 -11.26824 -11.26796 -11.22244
 Alpha  occ. eigenvalues --  -11.22150 -11.21956 -11.21896 -11.21696 -11.21424
 Alpha  occ. eigenvalues --   -1.59864  -1.39417  -1.19407  -1.09038  -1.08799
 Alpha  occ. eigenvalues --   -1.04808  -1.04049  -0.96524  -0.95631  -0.87534
 Alpha  occ. eigenvalues --   -0.86214  -0.82459  -0.80120  -0.78867  -0.77492
 Alpha  occ. eigenvalues --   -0.72062  -0.71186  -0.70515  -0.65742  -0.65057
 Alpha  occ. eigenvalues --   -0.64773  -0.62157  -0.61456  -0.59888  -0.58126
 Alpha  occ. eigenvalues --   -0.55840  -0.55313  -0.53265  -0.53115  -0.53000
 Alpha  occ. eigenvalues --   -0.52824  -0.50468  -0.48827  -0.48815  -0.48425
 Alpha  occ. eigenvalues --   -0.47163  -0.46368  -0.46303  -0.44818  -0.44332
 Alpha  occ. eigenvalues --   -0.37348  -0.36365
 Alpha virt. eigenvalues --    0.05018   0.11136   0.16461   0.19943   0.22839
 Alpha virt. eigenvalues --    0.23596   0.25191   0.26472   0.27400   0.28181
 Alpha virt. eigenvalues --    0.29348   0.30139   0.31220   0.31561   0.31764

 Mulliken charges:
               1
     1  C   -0.173170
     2  C   -0.218132
     3  C   -0.171053
     4  C    0.158928
     5  C   -0.171679
     6  C   -0.218449
     7  H    0.225746
     8  H    0.223776
     9  H    0.275795
    10  H    0.276283
    11  H    0.229401
    12  N    0.488012
    13  O   -0.460155
    14  O   -0.460341
    15  C   -0.298223
    16  C   -0.306411
    17  C   -0.475686
    18  H    0.152627
    19  H    0.147089
    20  H    0.154339
    21  H    0.155788
    22  H    0.152182
    23  H    0.156590
    24  H    0.162468
    25  C   -0.300533
    26  C   -0.299646
    27  C   -0.475687
    28  H    0.152939
    29  H    0.139122
    30  H    0.155580
    31  H    0.151514
    32  H    0.150193
    33  H    0.157518
    34  H    0.163274
 Sum of Mulliken charges =  -0.00000

 Dipole moment (field-independent basis, Debye):
    X=             -3.4482    Y=              1.4973    Z=              3.5590  Tot=              5.1767
 Quadrupole moment (field-independent basis, Debye-Ang):
   XX=           -111.6319   YY=            -94.5053   ZZ=            -93.1148
   XY=              7.8484   XZ=             11.0578   YZ=              0.6244

 Normal termination of Gaussian 16 at Thu May  6 01:23:16 2021.
