 Gaussian 16, Revision A.03,
 Gaussian 16:  EM64L-G16RevA.03 25-Dec-2016

 -------------
 #p 6-31g* mp2
 -------------

 ------------------------------------------------------
 Input file generated by CHIRIPA (05-May-2021 14:55:23)
 ------------------------------------------------------
 Symbolic Z-matrix:
 Charge =  0 Multiplicity = 1

                         Standard orientation:
 ---------------------------------------------------------------------
 Center     Atomic      Atomic             Coordinates (Angstroms)
 Number     Number       Type             X           Y           Z
 ---------------------------------------------------------------------
      1          6           0        3.240383   -2.424281   -0.203286
      2          6           0        4.546110   -1.961032   -0.395631
      3          6           0        4.832790   -0.594671   -0.322019
      4          6           0        3.784888    0.284453   -0.053071
      5          6           0        2.473687   -0.146249    0.143240
      6          6           0        2.210155   -1.517010    0.065063
      7          1           0        3.026674   -3.487412   -0.262243
      8          1           0        5.348184   -2.663336   -0.604181
      9          1           0        5.834577   -0.208823   -0.466804
     10          1           0        1.695055    0.578024    0.349588
     11          1           0        1.195159   -1.873922    0.214873
     12          7           0        4.076131    1.733288    0.027275
     13          8           0        3.135270    2.487381    0.265524
     14          8           0        5.239752    2.087358   -0.149519
     15          6           0       -4.048791    0.143327    0.142626
     16          6           0       -3.135411   -1.007189    0.566932
     17          6           0       -1.669251   -0.587885    0.678066
     18          1           0       -3.704946    0.539135   -0.822803
     19          1           0       -3.954956    0.963391    0.867943
     20          1           0       -3.231983   -1.825387   -0.158217
     21          1           0       -3.481585   -1.400428    1.531371
     22          1           0       -1.552313    0.212413    1.415935
     23          1           0       -1.301292   -0.214960   -0.283254
     24          1           0       -1.034099   -1.425565    0.982587
     25          6           0       -5.517643   -0.260236    0.027135
     26          6           0       -6.431021    0.890280   -0.397172
     27          6           0       -7.897183    0.470976   -0.508305
     28          1           0       -5.611477   -1.080299   -0.698183
     29          1           0       -5.861488   -0.656043    0.992564
     30          1           0       -6.084848    1.283520   -1.361610
     31          1           0       -6.334450    1.708478    0.327978
     32          1           0       -8.265141    0.098052    0.453015
     33          1           0       -8.014120   -0.329322   -1.246174
     34          1           0       -8.532334    1.308657   -0.812826
 ---------------------------------------------------------------------

 SCF Done:  E(RHF) =  -669.535570049     A.U. after   15 cycles
 E2 =    -0.2091039058D+01 EUMP2 =    -0.67162660910730D+03

 The electronic state is 1-A.
 Alpha  occ. eigenvalues --  -20.60689 -20.60684 -15.85741 -11.31084 -11.27660
 Alpha  occ. eigenvalues --  -11.27621 -11.27393 -11.26677 -11.26603 -11.22289
 Alpha  occ. eigenvalues --  -11.22072 -11.21846 -11.21830 -11.21710 -11.21267
 Alpha  occ. eigenvalues --   -1.59765  -1.39319  -1.19254  -1.08876  -1.08656
 Alpha  occ. eigenvalues --   -1.04651  -1.04031  -0.96508  -0.95494  -0.87542
 Alpha  occ. eigenvalues --   -0.86052  -0.82325  -0.80107  -0.78643  -0.77369
 Alpha  occ. eigenvalues --   -0.71960  -0.71088  -0.70367  -0.65498  -0.64904
 Alpha  occ. eigenvalues --   -0.64681  -0.62046  -0.61410  -0.59890  -0.58093
 Alpha  occ. eigenvalues --   -0.55777  -0.55167  -0.53338  -0.52999  -0.52962
 Alpha  occ. eigenvalues --   -0.52572  -0.50428  -0.48718  -0.48716  -0.48409
 Alpha  occ. eigenvalues --   -0.47104  -0.46198  -0.46090  -0.44729  -0.44273
 Alpha  occ. eigenvalues --   -0.37244  -0.36252
 Alpha virt. eigenvalues --    0.05151   0.11392   0.16634   0.20241   0.22573
 Alpha virt. eigenvalues --    0.23832   0.25651   0.26269   0.26663   0.27879
 Alpha virt. eigenvalues --    0.29216   0.29372   0.30919   0.31531   0.32182

 Mulliken charges:
               1
     1  C   -0.171887
     2  C   -0.218588
     3  C   -0.171200
     4  C    0.158882
     5  C   -0.175092
     6  C   -0.223716
     7  H    0.225365
     8  H    0.222879
     9  H    0.275159
    10  H    0.278098
    11  H    0.231088
    12  N    0.488125
    13  O   -0.460555
    14  O   -0.460914
    15  C   -0.299754
    16  C   -0.299081
    17  C   -0.484694
    18  H    0.151521
    19  H    0.152311
    20  H    0.152167
    21  H    0.154455
    22  H    0.162323
    23  H    0.156818
    24  H    0.153249
    25  C   -0.298796
    26  C   -0.300181
    27  C   -0.475985
    28  H    0.149473
    29  H    0.150186
    30  H    0.152953
    31  H    0.153299
    32  H    0.155400
    33  H    0.155124
    34  H    0.161566
 Sum of Mulliken charges =  -0.00000

 Dipole moment (field-independent basis, Debye):
    X=             -1.2710    Y=             -5.0526    Z=             -0.2726  Tot=              5.2172
 Quadrupole moment (field-independent basis, Debye-Ang):
   XX=            -98.4802   YY=            -98.1869   ZZ=            -94.4435
   XY=            -21.1212   XZ=             -2.4208   YZ=              0.6713

 Normal termination of Gaussian 16 at Thu May  6 09:26:11 2021.
