 Gaussian 16, Revision A.03,
 Gaussian 16:  EM64L-G16RevA.03 25-Dec-2016

 -------------
 #p 6-31g* mp2
 -------------

 ------------------------------------------------------
 Input file generated by CHIRIPA (05-May-2021 14:55:21)
 ------------------------------------------------------
 Symbolic Z-matrix:
 Charge =  0 Multiplicity = 1

                         Standard orientation:
 ---------------------------------------------------------------------
 Center     Atomic      Atomic             Coordinates (Angstroms)
 Number     Number       Type             X           Y           Z
 ---------------------------------------------------------------------
      1          6           0       -1.309772   -2.040636    1.238565
      2          6           0       -2.690623   -1.917925    1.424881
      3          6           0       -3.429840   -1.000414    0.672365
      4          6           0       -2.752950   -0.218010   -0.261955
      5          6           0       -1.378203   -0.316948   -0.470689
      6          6           0       -0.659116   -1.241165    0.293042
      7          1           0       -0.743349   -2.755985    1.827494
      8          1           0       -3.198578   -2.537498    2.158472
      9          1           0       -4.499756   -0.884837    0.796218
     10          1           0       -0.899745    0.314442   -1.209501
     11          1           0        0.413176   -1.334307    0.146210
     12          7           0       -3.524871    0.756867   -1.064547
     13          8           0       -2.904978    1.434541   -1.881325
     14          8           0       -4.735179    0.824842   -0.861642
     15          6           0        3.728050    0.320405   -0.483365
     16          6           0        4.511488   -0.991243   -0.421811
     17          6           0        5.240534   -1.306237   -1.728358
     18          1           0        3.002339    0.268366   -1.306517
     19          1           0        4.417950    1.140423   -0.726272
     20          1           0        3.820549   -1.808338   -0.177729
     21          1           0        5.235286   -0.936149    0.401412
     22          1           0        5.951833   -0.511051   -1.973988
     23          1           0        4.529058   -1.388196   -2.556420
     24          1           0        5.794102   -2.248069   -1.662220
     25          6           0        2.993815    0.649021    0.815341
     26          6           0        2.210378    1.960669    0.753789
     27          6           0        1.481331    2.275662    2.060335
     28          1           0        2.303915   -0.170997    1.058250
     29          1           0        3.719526    0.701060    1.638494
     30          1           0        1.486579    1.905574   -0.069435
     31          1           0        2.901316    2.777765    0.509706
     32          1           0        2.192806    2.357623    2.888397
     33          1           0        0.770031    1.480477    2.305966
     34          1           0        0.927764    3.217494    1.994197
 ---------------------------------------------------------------------

 SCF Done:  E(RHF) =  -669.535507461     A.U. after   15 cycles
 E2 =    -0.2092266578D+01 EUMP2 =    -0.67162777403899D+03

 The electronic state is 1-A.
 Alpha  occ. eigenvalues --  -20.60792 -20.60787 -15.85847 -11.31230 -11.27816
 Alpha  occ. eigenvalues --  -11.27804 -11.27552 -11.26819 -11.26808 -11.22315
 Alpha  occ. eigenvalues --  -11.22176 -11.22120 -11.22075 -11.21618 -11.21421
 Alpha  occ. eigenvalues --   -1.59867  -1.39420  -1.19409  -1.09118  -1.08797
 Alpha  occ. eigenvalues --   -1.04817  -1.04102  -0.96545  -0.95630  -0.87556
 Alpha  occ. eigenvalues --   -0.86214  -0.82463  -0.80172  -0.78938  -0.77509
 Alpha  occ. eigenvalues --   -0.72065  -0.71190  -0.70515  -0.65872  -0.65059
 Alpha  occ. eigenvalues --   -0.64763  -0.62182  -0.61472  -0.59907  -0.58151
 Alpha  occ. eigenvalues --   -0.55856  -0.55306  -0.53197  -0.53134  -0.53026
 Alpha  occ. eigenvalues --   -0.52841  -0.50486  -0.48828  -0.48819  -0.48475
 Alpha  occ. eigenvalues --   -0.47222  -0.46444  -0.46411  -0.44822  -0.44389
 Alpha  occ. eigenvalues --   -0.37383  -0.36403
 Alpha virt. eigenvalues --    0.05014   0.11149   0.16392   0.18603   0.22974
 Alpha virt. eigenvalues --    0.23636   0.25141   0.25302   0.27198   0.28590
 Alpha virt. eigenvalues --    0.29380   0.31052   0.31297   0.31504   0.32144

 Mulliken charges:
               1
     1  C   -0.172229
     2  C   -0.218412
     3  C   -0.170559
     4  C    0.158818
     5  C   -0.172749
     6  C   -0.222054
     7  H    0.226107
     8  H    0.223738
     9  H    0.275892
    10  H    0.276139
    11  H    0.229816
    12  N    0.488118
    13  O   -0.460335
    14  O   -0.460277
    15  C   -0.299477
    16  C   -0.298965
    17  C   -0.476020
    18  H    0.146400
    19  H    0.154676
    20  H    0.144877
    21  H    0.154473
    22  H    0.157897
    23  H    0.155855
    24  H    0.161674
    25  C   -0.301631
    26  C   -0.299979
    27  C   -0.477600
    28  H    0.140224
    29  H    0.153503
    30  H    0.150107
    31  H    0.155996
    32  H    0.155103
    33  H    0.155693
    34  H    0.165182
 Sum of Mulliken charges =  -0.00000

 Dipole moment (field-independent basis, Debye):
    X=              2.8052    Y=             -3.3450    Z=              2.8402  Tot=              5.2081
 Quadrupole moment (field-independent basis, Debye-Ang):
   XX=           -105.2994   YY=            -93.1678   ZZ=            -96.3501
   XY=             11.1864   XZ=            -10.1807   YZ=             -0.6137

 Normal termination of Gaussian 16 at Wed May  5 18:57:11 2021.
