 Gaussian 16, Revision A.03,
 Gaussian 16:  EM64L-G16RevA.03 25-Dec-2016

 -------------
 #p 6-31g* mp2
 -------------

 ------------------------------------------------------
 Input file generated by CHIRIPA (05-May-2021 14:53:16)
 ------------------------------------------------------
 Symbolic Z-matrix:
 Charge =  0 Multiplicity = 1

                         Standard orientation:
 ---------------------------------------------------------------------
 Center     Atomic      Atomic             Coordinates (Angstroms)
 Number     Number       Type             X           Y           Z
 ---------------------------------------------------------------------
      1          6           0        5.688607    0.160748   -0.073607
      2          6           0        6.529086   -0.992712   -0.622342
      3          6           0        7.919330   -0.547158   -1.076763
      4          1           0        5.592483    0.935896   -0.846169
      5          1           0        6.220016    0.623797    0.769356
      6          1           0        5.995617   -1.454327   -1.463138
      7          1           0        6.623060   -1.765289    0.151550
      8          1           0        8.474111   -0.105500   -0.242642
      9          1           0        7.843102    0.207229   -1.866505
     10          1           0        8.503106   -1.387400   -1.465427
     11          6           0        4.296111   -0.268887    0.384755
     12          6           0        3.455632    0.884573    0.933490
     13          6           0        2.065389    0.439019    1.387912
     14          1           0        3.764703   -0.731936   -0.458207
     15          1           0        4.392235   -1.044035    1.157317
     16          1           0        3.361658    1.657150    0.159598
     17          1           0        3.989102    1.346188    1.774286
     18          1           0        2.141616   -0.315368    2.177653
     19          1           0        1.510608   -0.002639    0.553790
     20          1           0        1.481613    1.279261    1.776575
     21          6           0       -1.833366    1.488611   -0.079078
     22          6           0       -1.787711    0.187276    0.431768
     23          6           0       -2.926823   -0.623055    0.413417
     24          6           0       -4.100103   -0.097588   -0.125648
     25          6           0       -4.177287    1.194896   -0.642193
     26          6           0       -3.025905    1.987388   -0.613485
     27          1           0       -0.943711    2.111167   -0.060800
     28          1           0       -0.862946   -0.202719    0.847408
     29          1           0       -2.919448   -1.634097    0.802210
     30          1           0       -5.113639    1.555865   -1.050071
     31          1           0       -3.064294    2.997646   -1.010915
     32          7           0       -5.312523   -0.946006   -0.150556
     33          8           0       -6.333942   -0.459601   -0.630921
     34          8           0       -5.218443   -2.081338    0.310756
 ---------------------------------------------------------------------

 SCF Done:  E(RHF) =  -669.535545803     A.U. after   15 cycles
 E2 =    -0.2091060444D+01 EUMP2 =    -0.67162660624629D+03

 The electronic state is 1-A.
 Alpha  occ. eigenvalues --  -20.60699 -20.60693 -15.85750 -11.31098 -11.27668
 Alpha  occ. eigenvalues --  -11.27644 -11.27387 -11.26684 -11.26593 -11.22601
 Alpha  occ. eigenvalues --  -11.22418 -11.22152 -11.22093 -11.21977 -11.21478
 Alpha  occ. eigenvalues --   -1.59774  -1.39328  -1.19263  -1.09169  -1.08661
 Alpha  occ. eigenvalues --   -1.04664  -1.04315  -0.96796  -0.95500  -0.87833
 Alpha  occ. eigenvalues --   -0.86054  -0.82332  -0.80403  -0.78929  -0.77382
 Alpha  occ. eigenvalues --   -0.71969  -0.71097  -0.70373  -0.65804  -0.64912
 Alpha  occ. eigenvalues --   -0.64681  -0.62073  -0.61656  -0.60189  -0.58372
 Alpha  occ. eigenvalues --   -0.56079  -0.55162  -0.53551  -0.53258  -0.52991
 Alpha  occ. eigenvalues --   -0.52667  -0.50713  -0.48762  -0.48726  -0.48657
 Alpha  occ. eigenvalues --   -0.47398  -0.46482  -0.46372  -0.44738  -0.44549
 Alpha  occ. eigenvalues --   -0.37245  -0.36265
 Alpha virt. eigenvalues --    0.05144   0.11338   0.16641   0.20205   0.22316
 Alpha virt. eigenvalues --    0.23710   0.25570   0.26053   0.26684   0.27687
 Alpha virt. eigenvalues --    0.29301   0.29715   0.30796   0.31415   0.31974

 Mulliken charges:
               1
     1  C   -0.298909
     2  C   -0.300256
     3  C   -0.476104
     4  H    0.150066
     5  H    0.150749
     6  H    0.152704
     7  H    0.152948
     8  H    0.155806
     9  H    0.155552
    10  H    0.161933
    11  C   -0.299443
    12  C   -0.299366
    13  C   -0.484761
    14  H    0.150360
    15  H    0.151562
    16  H    0.151858
    17  H    0.156007
    18  H    0.161160
    19  H    0.150932
    20  H    0.158418
    21  C   -0.174157
    22  C   -0.225608
    23  C   -0.172225
    24  C    0.158898
    25  C   -0.171453
    26  C   -0.218487
    27  H    0.226193
    28  H    0.235312
    29  H    0.275610
    30  H    0.275190
    31  H    0.222888
    32  N    0.487985
    33  O   -0.460761
    34  O   -0.460601
 Sum of Mulliken charges =  -0.00000

 Dipole moment (field-independent basis, Debye):
    X=              4.5615    Y=              2.9696    Z=              0.1130  Tot=              5.4441
 Quadrupole moment (field-independent basis, Debye-Ang):
   XX=           -129.0751   YY=            -92.9037   ZZ=            -93.7545
   XY=            -15.2298   XZ=              1.1771   YZ=             -2.4049

 Normal termination of Gaussian 16 at Thu May  6 20:29:00 2021.
