 Gaussian 16, Revision A.03,
 Gaussian 16:  EM64L-G16RevA.03 25-Dec-2016

 -------------
 #p 6-31g* mp2
 -------------

 ------------------------------------------------------
 Input file generated by CHIRIPA (05-May-2021 14:51:07)
 ------------------------------------------------------
 Symbolic Z-matrix:
 Charge =  0 Multiplicity = 1

                         Standard orientation:
 ---------------------------------------------------------------------
 Center     Atomic      Atomic             Coordinates (Angstroms)
 Number     Number       Type             X           Y           Z
 ---------------------------------------------------------------------
      1          6           0        2.670633   -0.320638    0.222118
      2          6           0        2.066870   -1.660513    0.644246
      3          6           0        0.551921   -1.591132    0.838949
      4          1           0        2.431315    0.437334    0.980505
      5          1           0        2.194804    0.010166   -0.711450
      6          1           0        2.544677   -1.989364    1.576005
      7          1           0        2.307816   -2.415427   -0.115139
      8          1           0        0.057719   -1.287120   -0.089459
      9          1           0        0.295925   -0.858636    1.611294
     10          1           0        0.141134   -2.559727    1.140509
     11          6           0        4.184387   -0.373970    0.023539
     12          6           0        4.788150    0.965904   -0.398588
     13          6           0        6.303099    0.896524   -0.593292
     14          1           0        4.660216   -0.704774    0.957108
     15          1           0        4.423705   -1.131942   -0.734847
     16          1           0        4.547204    1.720818    0.360797
     17          1           0        4.310343    1.294755   -1.330347
     18          1           0        6.559095    0.164028   -1.365636
     19          1           0        6.797301    0.592512    0.335116
     20          1           0        6.713885    1.865119   -0.894852
     21          6           0       -3.583234    1.067319   -0.324723
     22          6           0       -2.889843    2.107448    0.555802
     23          6           0       -3.211152    3.543137    0.139446
     24          1           0       -3.283885    1.223124   -1.370218
     25          1           0       -4.669499    1.227672   -0.283401
     26          1           0       -1.805293    1.944312    0.513924
     27          1           0       -3.190728    1.949027    1.599347
     28          1           0       -4.288346    3.729520    0.198719
     29          1           0       -2.895039    3.724777   -0.892872
     30          1           0       -2.705161    4.270314    0.782134
     31          6           0       -3.271786   -0.372710    0.079066
     32          6           0       -3.965178   -1.412840   -0.801460
     33          6           0       -3.643868   -2.848529   -0.385104
     34          1           0       -2.185520   -0.533064    0.037743
     35          1           0       -3.571135   -0.528516    1.124561
     36          1           0       -3.664291   -1.254419   -1.845005
     37          1           0       -5.049727   -1.249703   -0.759581
     38          1           0       -3.959981   -3.030168    0.647214
     39          1           0       -2.566673   -3.034911   -0.444377
     40          1           0       -4.149860   -3.575706   -1.027791
 ---------------------------------------------------------------------

 SCF Done:  E(RHF) =  -470.733049108     A.U. after   11 cycles
 E2 =    -0.1583023733D+01 EUMP2 =    -0.47231607284099D+03

 The electronic state is 1-A.
 Alpha  occ. eigenvalues --  -11.21650 -11.21631 -11.21544 -11.21519 -11.21451
 Alpha  occ. eigenvalues --  -11.21389 -11.21307 -11.21200 -11.21139 -11.21094
 Alpha  occ. eigenvalues --  -11.21031 -11.20992  -1.08476  -1.08343  -1.03580
 Alpha  occ. eigenvalues --   -1.03457  -0.96035  -0.95902  -0.87060  -0.86917
 Alpha  occ. eigenvalues --   -0.79678  -0.79501  -0.78314  -0.78116  -0.65123
 Alpha  occ. eigenvalues --   -0.64973  -0.61007  -0.60831  -0.59404  -0.59265
 Alpha  occ. eigenvalues --   -0.57691  -0.57476  -0.55337  -0.55185  -0.52733
 Alpha  occ. eigenvalues --   -0.52617  -0.52535  -0.52257  -0.50009  -0.49833
 Alpha  occ. eigenvalues --   -0.48021  -0.47820  -0.46739  -0.46508  -0.45961
 Alpha  occ. eigenvalues --   -0.45762  -0.45675  -0.45343  -0.43817  -0.43703
 Alpha virt. eigenvalues --    0.21464   0.23012   0.23896   0.24530   0.25759
 Alpha virt. eigenvalues --    0.26585   0.27140   0.27327   0.28013   0.29712
 Alpha virt. eigenvalues --    0.30526   0.31301   0.31784   0.31994   0.32164

 Mulliken charges:
               1
     1  C   -0.298431
     2  C   -0.300177
     3  C   -0.478795
     4  H    0.149795
     5  H    0.149081
     6  H    0.152268
     7  H    0.152037
     8  H    0.155791
     9  H    0.156821
    10  H    0.162059
    11  C   -0.298284
    12  C   -0.299686
    13  C   -0.475737
    14  H    0.149721
    15  H    0.149740
    16  H    0.152034
    17  H    0.151881
    18  H    0.155218
    19  H    0.155262
    20  H    0.160361
    21  C   -0.297556
    22  C   -0.299949
    23  C   -0.475569
    24  H    0.148775
    25  H    0.149097
    26  H    0.152232
    27  H    0.151683
    28  H    0.155095
    29  H    0.154998
    30  H    0.159950
    31  C   -0.307998
    32  C   -0.299013
    33  C   -0.477362
    34  H    0.161815
    35  H    0.148864
    36  H    0.150871
    37  H    0.151495
    38  H    0.154943
    39  H    0.157069
    40  H    0.159603
 Sum of Mulliken charges =  -0.00000

 Dipole moment (field-independent basis, Debye):
    X=              0.0609    Y=             -0.0171    Z=              0.0258  Tot=              0.0683
 Quadrupole moment (field-independent basis, Debye-Ang):
   XX=            -85.5590   YY=            -86.0033   ZZ=            -83.4621
   XY=              0.0528   XZ=             -0.2419   YZ=              0.4314

 Normal termination of Gaussian 16 at Thu May  6 11:31:49 2021.
