 Gaussian 16, Revision A.03,
 Gaussian 16:  EM64L-G16RevA.03 25-Dec-2016

 -------------
 #p 6-31g* mp2
 -------------

 ------------------------------------------------------
 Input file generated by CHIRIPA (05-May-2021 14:53:12)
 ------------------------------------------------------
 Symbolic Z-matrix:
 Charge =  0 Multiplicity = 1

                         Standard orientation:
 ---------------------------------------------------------------------
 Center     Atomic      Atomic             Coordinates (Angstroms)
 Number     Number       Type             X           Y           Z
 ---------------------------------------------------------------------
      1          6           0        4.884217    0.151021    0.201371
      2          6           0        6.058129   -0.287776   -0.674626
      3          6           0        7.222325    0.702889   -0.642590
      4          1           0        4.536279    1.138750   -0.130709
      5          1           0        5.233662    0.274249    1.235826
      6          1           0        5.706267   -0.411478   -1.706860
      7          1           0        6.403189   -1.274660   -0.340545
      8          1           0        7.600890    0.819578    0.378034
      9          1           0        6.900008    1.687665   -0.996044
     10          1           0        8.050606    0.369610   -1.275626
     11          6           0        3.712637   -0.829112    0.179754
     12          6           0        2.538724   -0.390315    1.055751
     13          6           0        1.374529   -1.380980    1.023715
     14          1           0        3.363192   -0.952340   -0.854701
     15          1           0        4.060574   -1.816841    0.511834
     16          1           0        2.193665    0.596569    0.721670
     17          1           0        2.890586   -0.266613    2.087985
     18          1           0        1.696845   -2.365756    1.377169
     19          1           0        0.995964   -1.497669    0.003090
     20          1           0        0.546247   -1.047702    1.656751
     21          6           0       -5.383693   -1.234642   -0.269360
     22          6           0       -4.116791   -1.743746   -0.573162
     23          6           0       -2.987480   -0.922050   -0.509745
     24          6           0       -3.162324    0.409848   -0.137228
     25          6           0       -4.411323    0.946542    0.171394
     26          6           0       -5.526664    0.106512    0.101294
     27          1           0       -6.255542   -1.880076   -0.321220
     28          1           0       -4.002762   -2.784904   -0.861316
     29          1           0       -1.995000   -1.290184   -0.739697
     30          1           0       -4.493420    1.988638    0.455498
     31          1           0       -6.509331    0.504613    0.337778
     32          7           0       -1.974168    1.289445   -0.066555
     33          8           0       -2.154861    2.459288    0.264284
     34          8           0       -0.884696    0.792375   -0.343338
 ---------------------------------------------------------------------

 SCF Done:  E(RHF) =  -669.535938716     A.U. after   15 cycles
 E2 =    -0.2091485139D+01 EUMP2 =    -0.67162742385545D+03

 The electronic state is 1-A.
 Alpha  occ. eigenvalues --  -20.60910 -20.60894 -15.85934 -11.31254 -11.27820
 Alpha  occ. eigenvalues --  -11.27808 -11.27558 -11.26827 -11.26815 -11.21006
 Alpha  occ. eigenvalues --  -11.20635 -11.20553 -11.20525 -11.20441 -11.20052
 Alpha  occ. eigenvalues --   -1.59968  -1.39523  -1.19423  -1.08830  -1.07609
 Alpha  occ. eigenvalues --   -1.04818  -1.02692  -0.95680  -0.95167  -0.86223
 Alpha  occ. eigenvalues --   -0.86205  -0.82504  -0.78788  -0.77559  -0.77401
 Alpha  occ. eigenvalues --   -0.72170  -0.71283  -0.70532  -0.65084  -0.64822
 Alpha  occ. eigenvalues --   -0.64225  -0.62167  -0.60060  -0.58557  -0.56773
 Alpha  occ. eigenvalues --   -0.55326  -0.54455  -0.53151  -0.52912  -0.51886
 Alpha  occ. eigenvalues --   -0.51616  -0.49230  -0.48916  -0.48821  -0.47107
 Alpha  occ. eigenvalues --   -0.45795  -0.44965  -0.44903  -0.44834  -0.42958
 Alpha  occ. eigenvalues --   -0.37405  -0.36419
 Alpha virt. eigenvalues --    0.04954   0.11226   0.16435   0.21104   0.23638
 Alpha virt. eigenvalues --    0.24732   0.26490   0.27494   0.27824   0.28339
 Alpha virt. eigenvalues --    0.29166   0.30717   0.31615   0.32519   0.32639

 Mulliken charges:
               1
     1  C   -0.298322
     2  C   -0.299006
     3  C   -0.475355
     4  H    0.152716
     5  H    0.147806
     6  H    0.151241
     7  H    0.149777
     8  H    0.154283
     9  H    0.155759
    10  H    0.158064
    11  C   -0.298163
    12  C   -0.302408
    13  C   -0.468731
    14  H    0.149313
    15  H    0.144702
    16  H    0.170086
    17  H    0.146470
    18  H    0.143654
    19  H    0.155804
    20  H    0.159014
    21  C   -0.170489
    22  C   -0.219135
    23  C   -0.171180
    24  C    0.157274
    25  C   -0.170725
    26  C   -0.218710
    27  H    0.225857
    28  H    0.224024
    29  H    0.278208
    30  H    0.275649
    31  H    0.223634
    32  N    0.490549
    33  O   -0.459743
    34  O   -0.461919
 Sum of Mulliken charges =  -0.00000

 Dipole moment (field-independent basis, Debye):
    X=             -4.4155    Y=             -2.9343    Z=             -0.3048  Tot=              5.3104
 Quadrupole moment (field-independent basis, Debye-Ang):
   XX=            -68.5292   YY=            -95.0911   ZZ=            -94.7241
   XY=              5.3916   XZ=              0.7281   YZ=              1.4413

 Normal termination of Gaussian 16 at Wed May  5 20:06:05 2021.
