 Gaussian 16, Revision A.03,
 Gaussian 16:  EM64L-G16RevA.03 25-Dec-2016

 -------------
 #p 6-31g* mp2
 -------------

 ------------------------------------------------------
 Input file generated by CHIRIPA (05-May-2021 14:53:14)
 ------------------------------------------------------
 Symbolic Z-matrix:
 Charge =  0 Multiplicity = 1

                         Standard orientation:
 ---------------------------------------------------------------------
 Center     Atomic      Atomic             Coordinates (Angstroms)
 Number     Number       Type             X           Y           Z
 ---------------------------------------------------------------------
      1          6           0        2.324995    1.373284    0.002086
      2          6           0        1.492928    1.974546    1.135282
      3          6           0        0.789783    3.270116    0.729227
      4          1           0        3.071102    2.109513   -0.326908
      5          1           0        1.672467    1.182403   -0.861145
      6          1           0        2.146567    2.162954    1.996604
      7          1           0        0.748840    1.236731    1.461746
      8          1           0        0.115051    3.094035   -0.114771
      9          1           0        1.520719    4.025520    0.423126
     10          1           0        0.200673    3.682739    1.554182
     11          6           0        3.034038    0.077744    0.392675
     12          6           0        3.866105   -0.523518   -0.740521
     13          6           0        4.569250   -1.819087   -0.334466
     14          1           0        3.686566    0.268626    1.255905
     15          1           0        2.287931   -0.658484    0.721669
     16          1           0        4.610193    0.214298   -1.066985
     17          1           0        3.212466   -0.711925   -1.601843
     18          1           0        3.838314   -2.574492   -0.028365
     19          1           0        5.243982   -1.643007    0.509532
     20          1           0        5.158360   -2.231710   -1.159421
     21          6           0       -3.034965    1.691341   -0.770719
     22          6           0       -1.760469    1.320249   -1.211712
     23          6           0       -1.228707    0.071574   -0.876174
     24          6           0       -2.002343   -0.785117   -0.094601
     25          6           0       -3.275309   -0.444303    0.360032
     26          6           0       -3.786991    0.809435    0.012364
     27          1           0       -3.440251    2.663307   -1.036084
     28          1           0       -1.174182    2.003117   -1.819992
     29          1           0       -0.244820   -0.241223   -1.204111
     30          1           0       -3.835996   -1.146432    0.965061
     31          1           0       -4.777073    1.094955    0.356256
     32          7           0       -1.450018   -2.109714    0.267038
     33          8           0       -2.151647   -2.846381    0.956731
     34          8           0       -0.325937   -2.386184   -0.146049
 ---------------------------------------------------------------------

 SCF Done:  E(RHF) =  -669.534363950     A.U. after   15 cycles
 E2 =    -0.2095120967D+01 EUMP2 =    -0.67162948491695D+03

 The electronic state is 1-A.
 Alpha  occ. eigenvalues --  -20.60947 -20.60937 -15.85980 -11.31305 -11.27858
 Alpha  occ. eigenvalues --  -11.27849 -11.27591 -11.26867 -11.26856 -11.21762
 Alpha  occ. eigenvalues --  -11.21603 -11.21389 -11.21329 -11.21108 -11.20576
 Alpha  occ. eigenvalues --   -1.60006  -1.39562  -1.19479  -1.08878  -1.08417
 Alpha  occ. eigenvalues --   -1.04887  -1.03459  -0.95942  -0.95712  -0.86968
 Alpha  occ. eigenvalues --   -0.86262  -0.82562  -0.79582  -0.78200  -0.77607
 Alpha  occ. eigenvalues --   -0.72202  -0.71323  -0.70589  -0.65192  -0.65084
 Alpha  occ. eigenvalues --   -0.64893  -0.62219  -0.60837  -0.59325  -0.57541
 Alpha  occ. eigenvalues --   -0.55379  -0.55306  -0.53157  -0.52989  -0.52617
 Alpha  occ. eigenvalues --   -0.52282  -0.49857  -0.48960  -0.48945  -0.47868
 Alpha  occ. eigenvalues --   -0.46624  -0.45756  -0.45641  -0.44908  -0.43732
 Alpha  occ. eigenvalues --   -0.37424  -0.36405
 Alpha virt. eigenvalues --    0.04882   0.11055   0.16297   0.19680   0.22979
 Alpha virt. eigenvalues --    0.24231   0.25338   0.26788   0.27244   0.28560
 Alpha virt. eigenvalues --    0.29673   0.31045   0.31718   0.31909   0.32583

 Mulliken charges:
               1
     1  C   -0.298025
     2  C   -0.300647
     3  C   -0.475843
     4  H    0.150365
     5  H    0.134479
     6  H    0.154886
     7  H    0.155045
     8  H    0.147158
     9  H    0.154514
    10  H    0.160510
    11  C   -0.305693
    12  C   -0.297715
    13  C   -0.478067
    14  H    0.149540
    15  H    0.165789
    16  H    0.148496
    17  H    0.149891
    18  H    0.166452
    19  H    0.153147
    20  H    0.158652
    21  C   -0.170643
    22  C   -0.217573
    23  C   -0.172808
    24  C    0.157713
    25  C   -0.170460
    26  C   -0.218554
    27  H    0.226624
    28  H    0.224779
    29  H    0.280266
    30  H    0.275864
    31  H    0.224027
    32  N    0.488433
    33  O   -0.458841
    34  O   -0.461763
 Sum of Mulliken charges =  -0.00000

 Dipole moment (field-independent basis, Debye):
    X=             -2.0292    Y=              4.4841    Z=             -1.1671  Tot=              5.0583
 Quadrupole moment (field-independent basis, Debye-Ang):
   XX=            -83.1846   YY=           -103.2668   ZZ=            -93.8021
   XY=             -6.3773   XZ=              0.7685   YZ=              0.2243

 Normal termination of Gaussian 16 at Thu May  6 20:22:07 2021.
