 Gaussian 16, Revision A.03,
 Gaussian 16:  EM64L-G16RevA.03 25-Dec-2016

 -------------
 #p 6-31g* mp2
 -------------

 ------------------------------------------------------
 Input file generated by CHIRIPA (05-May-2021 14:51:14)
 ------------------------------------------------------
 Symbolic Z-matrix:
 Charge =  0 Multiplicity = 1

                         Standard orientation:
 ---------------------------------------------------------------------
 Center     Atomic      Atomic             Coordinates (Angstroms)
 Number     Number       Type             X           Y           Z
 ---------------------------------------------------------------------
      1          6           0       -3.686409   -0.714470    0.351455
      2          6           0       -2.341873   -0.382409   -0.296576
      3          6           0       -1.168605   -1.093289    0.378617
      4          1           0       -3.651778   -0.439342    1.414493
      5          1           0       -3.844751   -1.801201    0.314845
      6          1           0       -2.186747    0.703507   -0.259994
      7          1           0       -2.379774   -0.658182   -1.358239
      8          1           0       -1.296490   -2.179495    0.329593
      9          1           0       -1.102366   -0.810069    1.434078
     10          1           0       -0.217278   -0.841724   -0.100499
     11          6           0       -4.869007   -0.011347   -0.312478
     12          6           0       -6.213543   -0.343409    0.335553
     13          6           0       -7.386811    0.367472   -0.339640
     14          1           0       -4.710666    1.075383   -0.275868
     15          1           0       -4.903638   -0.286475   -1.375517
     16          1           0       -6.175642   -0.067635    1.397216
     17          1           0       -6.368670   -1.429325    0.298971
     18          1           0       -7.453050    0.084251   -1.395101
     19          1           0       -7.258927    1.453678   -0.290616
     20          1           0       -8.338138    0.115906    0.139475
     21          6           0        4.666977   -0.262291   -0.222040
     22          6           0        6.142372   -0.213594    0.176490
     23          6           0        6.907828   -1.471417   -0.235520
     24          1           0        4.198989   -1.144504    0.235814
     25          1           0        4.592502   -0.398117   -1.309882
     26          1           0        6.214042   -0.076513    1.263085
     27          1           0        6.606857    0.668712   -0.282210
     28          1           0        6.866055   -1.609644   -1.320762
     29          1           0        6.471008   -2.359102    0.233313
     30          1           0        7.960411   -1.415371    0.059076
     31          6           0        3.888438    0.988108    0.183064
     32          6           0        2.413045    0.939412   -0.215467
     33          6           0        1.647589    2.197235    0.196543
     34          1           0        3.962914    1.123935    1.270905
     35          1           0        4.356428    1.870321   -0.274791
     36          1           0        1.948559    0.057106    0.243233
     37          1           0        2.341375    0.802330   -1.302062
     38          1           0        2.084409    3.084920   -0.272291
     39          1           0        1.689362    2.335462    1.281785
     40          1           0        0.595005    2.141190   -0.098053
 ---------------------------------------------------------------------

 SCF Done:  E(RHF) =  -470.733196933     A.U. after   11 cycles
 E2 =    -0.1582706361D+01 EUMP2 =    -0.47231590329462D+03

 The electronic state is 1-A.
 Alpha  occ. eigenvalues --  -11.21604 -11.21598 -11.21593 -11.21580 -11.21400
 Alpha  occ. eigenvalues --  -11.21395 -11.21341 -11.21335 -11.21068 -11.21067
 Alpha  occ. eigenvalues --  -11.21062 -11.21021  -1.08435  -1.08413  -1.03558
 Alpha  occ. eigenvalues --   -1.03490  -0.96011  -0.95931  -0.86998  -0.86980
 Alpha  occ. eigenvalues --   -0.79656  -0.79528  -0.78250  -0.78227  -0.65073
 Alpha  occ. eigenvalues --   -0.65041  -0.60985  -0.60889  -0.59565  -0.59153
 Alpha  occ. eigenvalues --   -0.57746  -0.57390  -0.55295  -0.55214  -0.52724
 Alpha  occ. eigenvalues --   -0.52618  -0.52412  -0.52372  -0.49917  -0.49903
 Alpha  occ. eigenvalues --   -0.48022  -0.47800  -0.46647  -0.46585  -0.45796
 Alpha  occ. eigenvalues --   -0.45764  -0.45712  -0.45691  -0.43819  -0.43679
 Alpha virt. eigenvalues --    0.21290   0.23047   0.23388   0.25221   0.26343
 Alpha virt. eigenvalues --    0.26415   0.26918   0.27206   0.27877   0.29061
 Alpha virt. eigenvalues --    0.30157   0.30614   0.31384   0.31639   0.32394

 Mulliken charges:
               1
     1  C   -0.298453
     2  C   -0.300411
     3  C   -0.483014
     4  H    0.149696
     5  H    0.149589
     6  H    0.152357
     7  H    0.151964
     8  H    0.154774
     9  H    0.154678
    10  H    0.168999
    11  C   -0.298284
    12  C   -0.299636
    13  C   -0.475706
    14  H    0.149541
    15  H    0.149621
    16  H    0.151954
    17  H    0.151909
    18  H    0.155165
    19  H    0.155208
    20  H    0.160239
    21  C   -0.298467
    22  C   -0.299631
    23  C   -0.475718
    24  H    0.149873
    25  H    0.149425
    26  H    0.151948
    27  H    0.151910
    28  H    0.155146
    29  H    0.155248
    30  H    0.160222
    31  C   -0.297606
    32  C   -0.304770
    33  C   -0.477498
    34  H    0.149547
    35  H    0.149526
    36  H    0.156894
    37  H    0.151359
    38  H    0.155208
    39  H    0.155165
    40  H    0.162031
 Sum of Mulliken charges =  -0.00000

 Dipole moment (field-independent basis, Debye):
    X=              0.0074    Y=             -0.0052    Z=              0.0009  Tot=              0.0090
 Quadrupole moment (field-independent basis, Debye-Ang):
   XX=            -86.1772   YY=            -84.8968   ZZ=            -83.7599
   XY=              1.1658   XZ=             -0.3150   YZ=              0.1043

 Normal termination of Gaussian 16 at Wed May  5 18:24:42 2021.
