 Gaussian 16, Revision A.03,
 Gaussian 16:  EM64L-G16RevA.03 25-Dec-2016

 -------------
 #p 6-31g* mp2
 -------------

 ------------------------------------------------------
 Input file generated by CHIRIPA (05-May-2021 14:57:25)
 ------------------------------------------------------
 Symbolic Z-matrix:
 Charge =  0 Multiplicity = 1

                         Standard orientation:
 ---------------------------------------------------------------------
 Center     Atomic      Atomic             Coordinates (Angstroms)
 Number     Number       Type             X           Y           Z
 ---------------------------------------------------------------------
      1          6           0        1.647465    1.274708    1.325350
      2          6           0        1.916173   -0.066363    1.618344
      3          6           0        2.962498   -0.737128    0.978168
      4          6           0        3.723440   -0.033094    0.046184
      5          6           0        3.480532    1.303335   -0.267251
      6          6           0        2.429124    1.954079    0.385146
      7          1           0        0.832680    1.787998    1.827401
      8          1           0        1.310776   -0.596483    2.348079
      9          1           0        3.192416   -1.775087    1.186007
     10          1           0        4.101411    1.805317   -0.999331
     11          1           0        2.222736    2.995599    0.155613
     12          7           0        4.833828   -0.732606   -0.638011
     13          8           0        5.489538   -0.090005   -1.455168
     14          8           0        5.027416   -1.910238   -0.344169
     15          6           0       -6.025545   -0.512771   -0.227905
     16          6           0       -5.528160    0.763639   -0.510587
     17          6           0       -4.153101    1.013680   -0.475369
     18          6           0       -3.300184   -0.040567   -0.152281
     19          6           0       -3.765131   -1.323150    0.134238
     20          6           0       -5.143997   -1.550263    0.093039
     21          1           0       -7.095202   -0.698103   -0.257586
     22          1           0       -6.210434    1.571270   -0.760143
     23          1           0       -3.741034    1.992246   -0.689908
     24          1           0       -3.060263   -2.108193    0.379770
     25          1           0       -5.527441   -2.542544    0.313025
     26          7           0       -1.842455    0.212004   -0.111832
     27          8           0       -1.111924   -0.733713    0.175543
     28          8           0       -1.458020    1.350901   -0.368268
 ---------------------------------------------------------------------

 SCF Done:  E(RHF) =  -868.338847998     A.U. after   16 cycles
 E2 =    -0.2600370338D+01 EUMP2 =    -0.87093921833570D+03

 The electronic state is 1-A.
 Alpha  occ. eigenvalues --  -20.61697 -20.61689 -20.59547 -20.59541 -15.86720
 Alpha  occ. eigenvalues --  -15.84590 -11.31872 -11.29589 -11.28417 -11.28407
 Alpha  occ. eigenvalues --  -11.28101 -11.27372 -11.27360 -11.26153 -11.26111
 Alpha  occ. eigenvalues --  -11.25728 -11.25065 -11.25009  -1.60761  -1.58630
 Alpha  occ. eigenvalues --   -1.40321  -1.38195  -1.20022  -1.17714  -1.09455
 Alpha  occ. eigenvalues --   -1.07154  -1.05389  -1.03087  -0.96326  -0.94065
 Alpha  occ. eigenvalues --   -0.86797  -0.84502  -0.83165  -0.80939  -0.78241
 Alpha  occ. eigenvalues --   -0.76046  -0.72944  -0.72087  -0.71121  -0.70824
 Alpha  occ. eigenvalues --   -0.69947  -0.68825  -0.65675  -0.65385  -0.63379
 Alpha  occ. eigenvalues --   -0.63117  -0.62739  -0.60488  -0.55894  -0.53740
 Alpha  occ. eigenvalues --   -0.53575  -0.53470  -0.51530  -0.51213  -0.49699
 Alpha  occ. eigenvalues --   -0.49532  -0.47593  -0.47544  -0.45772  -0.43686
 Alpha  occ. eigenvalues --   -0.37988  -0.36983  -0.35510  -0.34636
 Alpha virt. eigenvalues --    0.04249   0.06510   0.10674   0.13036   0.15807
 Alpha virt. eigenvalues --    0.18129   0.20856   0.22985   0.26777   0.27728
 Alpha virt. eigenvalues --    0.28800   0.29810   0.30472   0.31895   0.32503

 Mulliken charges:
               1
     1  C   -0.152100
     2  C   -0.200459
     3  C   -0.173721
     4  C    0.156767
     5  C   -0.173797
     6  C   -0.216197
     7  H    0.222349
     8  H    0.218193
     9  H    0.269285
    10  H    0.269462
    11  H    0.218633
    12  N    0.488338
    13  O   -0.465330
    14  O   -0.465156
    15  C   -0.169915
    16  C   -0.218408
    17  C   -0.170889
    18  C    0.157868
    19  C   -0.170926
    20  C   -0.218396
    21  H    0.227978
    22  H    0.225260
    23  H    0.275010
    24  H    0.275769
    25  H    0.225699
    26  N    0.487526
    27  O   -0.459154
    28  O   -0.463690
 Sum of Mulliken charges =  -0.00000

 Dipole moment (field-independent basis, Debye):
    X=             -9.7102    Y=              1.5744    Z=              2.3086  Tot=             10.1042
 Quadrupole moment (field-independent basis, Debye-Ang):
   XX=           -102.0853   YY=            -97.2638   ZZ=           -104.5109
   XY=             12.9461   XZ=              9.9527   YZ=             -3.6436

 Normal termination of Gaussian 16 at Thu May  6 14:40:57 2021.
