 Gaussian 16, Revision A.03,
 Gaussian 16:  EM64L-G16RevA.03 25-Dec-2016

 -------------
 #p 6-31g* mp2
 -------------

 ------------------------------------------------------
 Input file generated by CHIRIPA (05-May-2021 14:55:24)
 ------------------------------------------------------
 Symbolic Z-matrix:
 Charge =  0 Multiplicity = 1

                         Standard orientation:
 ---------------------------------------------------------------------
 Center     Atomic      Atomic             Coordinates (Angstroms)
 Number     Number       Type             X           Y           Z
 ---------------------------------------------------------------------
      1          6           0        0.647062   -1.303904    0.303554
      2          6           0        1.564691   -1.838579   -0.606721
      3          6           0        2.837614   -1.277086   -0.744347
      4          6           0        3.160979   -0.176486    0.047741
      5          6           0        2.268725    0.378944    0.963530
      6          6           0        1.001383   -0.198797    1.084398
      7          1           0       -0.339607   -1.746396    0.403956
      8          1           0        1.292263   -2.696778   -1.214440
      9          1           0        3.567424   -1.670966   -1.441236
     10          1           0        2.569193    1.234874    1.555578
     11          1           0        0.290776    0.218540    1.792149
     12          7           0        4.505611    0.426542   -0.089087
     13          8           0        4.766098    1.395806    0.620357
     14          8           0        5.273587   -0.081487   -0.903186
     15          6           0       -3.307523    0.950589    0.049865
     16          6           0       -3.814016    2.255440   -0.565614
     17          6           0       -2.893341    3.441589   -0.277165
     18          1           0       -3.204118    1.080720    1.135830
     19          1           0       -2.301261    0.737358   -0.336608
     20          1           0       -4.819585    2.465428   -0.179154
     21          1           0       -3.916410    2.122128   -1.650215
     22          1           0       -1.891200    3.257751   -0.677816
     23          1           0       -2.799507    3.603002    0.801603
     24          1           0       -3.274335    4.364049   -0.726355
     25          6           0       -4.217257   -0.244356   -0.229813
     26          6           0       -3.710766   -1.549207    0.385666
     27          6           0       -4.631441   -2.735355    0.097218
     28          1           0       -5.223521   -0.031124    0.156661
     29          1           0       -4.320663   -0.374487   -1.315777
     30          1           0       -3.608371   -1.415894    1.470266
     31          1           0       -2.705196   -1.759195   -0.000794
     32          1           0       -4.725274   -2.896769   -0.981551
     33          1           0       -5.633581   -2.551518    0.497868
     34          1           0       -4.250446   -3.657815    0.546408
 ---------------------------------------------------------------------

 SCF Done:  E(RHF) =  -669.535776112     A.U. after   15 cycles
 E2 =    -0.2091582464D+01 EUMP2 =    -0.67162735857593D+03

 The electronic state is 1-A.
 Alpha  occ. eigenvalues --  -20.60739 -20.60734 -15.85792 -11.31156 -11.27723
 Alpha  occ. eigenvalues --  -11.27714 -11.27423 -11.26733 -11.26716 -11.22785
 Alpha  occ. eigenvalues --  -11.22303 -11.22260 -11.22209 -11.22005 -11.21606
 Alpha  occ. eigenvalues --   -1.59815  -1.39368  -1.19324  -1.09319  -1.08715
 Alpha  occ. eigenvalues --   -1.04725  -1.04368  -0.96781  -0.95553  -0.87800
 Alpha  occ. eigenvalues --   -0.86118  -0.82388  -0.80469  -0.79140  -0.77434
 Alpha  occ. eigenvalues --   -0.72010  -0.71138  -0.70437  -0.65942  -0.64972
 Alpha  occ. eigenvalues --   -0.64720  -0.62071  -0.61764  -0.60178  -0.58406
 Alpha  occ. eigenvalues --   -0.56054  -0.55243  -0.53471  -0.53207  -0.53049
 Alpha  occ. eigenvalues --   -0.52810  -0.50722  -0.48805  -0.48766  -0.48720
 Alpha  occ. eigenvalues --   -0.47500  -0.46657  -0.46570  -0.44774  -0.44622
 Alpha  occ. eigenvalues --   -0.37290  -0.36330
 Alpha virt. eigenvalues --    0.05077   0.11274   0.16505   0.19797   0.22550
 Alpha virt. eigenvalues --    0.23390   0.25114   0.25748   0.27103   0.27584
 Alpha virt. eigenvalues --    0.29247   0.30257   0.30855   0.31224   0.32045

 Mulliken charges:
               1
     1  C   -0.177597
     2  C   -0.220959
     3  C   -0.170883
     4  C    0.158407
     5  C   -0.171135
     6  C   -0.221381
     7  H    0.236684
     8  H    0.223342
     9  H    0.275413
    10  H    0.275584
    11  H    0.225281
    12  N    0.488005
    13  O   -0.460440
    14  O   -0.460562
    15  C   -0.302071
    16  C   -0.299928
    17  C   -0.476884
    18  H    0.146767
    19  H    0.149114
    20  H    0.153734
    21  H    0.154167
    22  H    0.157026
    23  H    0.154136
    24  H    0.163490
    25  C   -0.297712
    26  C   -0.305808
    27  C   -0.475531
    28  H    0.153410
    29  H    0.152469
    30  H    0.152066
    31  H    0.144327
    32  H    0.157502
    33  H    0.159501
    34  H    0.160466
 Sum of Mulliken charges =  -0.00000

 Dipole moment (field-independent basis, Debye):
    X=             -4.9497    Y=             -2.0647    Z=              0.4406  Tot=              5.3812
 Quadrupole moment (field-independent basis, Debye-Ang):
   XX=           -124.2680   YY=            -92.7169   ZZ=            -91.9710
   XY=             -7.4675   XZ=              0.0047   YZ=              2.5729

 Normal termination of Gaussian 16 at Wed May  5 22:23:40 2021.
