 Gaussian 16, Revision A.03,
 Gaussian 16:  EM64L-G16RevA.03 25-Dec-2016

 -------------
 #p 6-31g* mp2
 -------------

 ------------------------------------------------------
 Input file generated by CHIRIPA (05-May-2021 14:57:21)
 ------------------------------------------------------
 Symbolic Z-matrix:
 Charge =  0 Multiplicity = 1

                         Standard orientation:
 ---------------------------------------------------------------------
 Center     Atomic      Atomic             Coordinates (Angstroms)
 Number     Number       Type             X           Y           Z
 ---------------------------------------------------------------------
      1          6           0       -2.074465   -0.469499    0.363640
      2          6           0       -2.981666   -1.507703    0.127758
      3          6           0       -4.342427   -1.236370   -0.043286
      4          6           0       -4.763308    0.090678    0.028061
      5          6           0       -3.883983    1.146850    0.261680
      6          6           0       -2.527720    0.852134    0.429732
      7          1           0       -1.019140   -0.689359    0.495350
      8          1           0       -2.632503   -2.535050    0.075922
      9          1           0       -5.066406   -2.020892   -0.227131
     10          1           0       -4.261973    2.160949    0.307995
     11          1           0       -1.825445    1.660431    0.612793
     12          7           0       -6.201504    0.390303   -0.151432
     13          8           0       -6.547035    1.567888   -0.084050
     14          8           0       -6.955999   -0.558109   -0.356101
     15          6           0        6.821325    1.005350   -0.001027
     16          6           0        6.682784   -0.383371    0.092664
     17          6           0        5.416069   -0.974186    0.062378
     18          6           0        4.304400   -0.142483   -0.063118
     19          6           0        4.409804    1.244263   -0.158588
     20          6           0        5.686394    1.813312   -0.126134
     21          1           0        7.809175    1.455856    0.023342
     22          1           0        7.562421   -1.013315    0.189902
     23          1           0        5.280027   -2.046529    0.133036
     24          1           0        3.514334    1.846189   -0.254694
     25          1           0        5.790968    2.892101   -0.199092
     26          7           0        2.958158   -0.756430   -0.096328
     27          8           0        1.994483   -0.001719   -0.207587
     28          8           0        2.892140   -1.980729   -0.010470
 ---------------------------------------------------------------------

 SCF Done:  E(RHF) =  -868.340889885     A.U. after   16 cycles
 E2 =    -0.2598010318D+01 EUMP2 =    -0.87093890020281D+03

 The electronic state is 1-A.
 Alpha  occ. eigenvalues --  -20.61943 -20.61932 -20.59994 -20.59989 -15.86946
 Alpha  occ. eigenvalues --  -15.85043 -11.31994 -11.30175 -11.28532 -11.28510
 Alpha  occ. eigenvalues --  -11.28196 -11.27462 -11.27448 -11.26758 -11.26746
 Alpha  occ. eigenvalues --  -11.26169 -11.25616 -11.25598  -1.60991  -1.59076
 Alpha  occ. eigenvalues --   -1.40553  -1.38637  -1.20133  -1.18313  -1.09587
 Alpha  occ. eigenvalues --   -1.07695  -1.05487  -1.03701  -0.96476  -0.94574
 Alpha  occ. eigenvalues --   -0.86900  -0.85075  -0.83322  -0.81438  -0.78403
 Alpha  occ. eigenvalues --   -0.76566  -0.73188  -0.72280  -0.71263  -0.71234
 Alpha  occ. eigenvalues --   -0.70400  -0.69264  -0.65789  -0.65484  -0.63939
 Alpha  occ. eigenvalues --   -0.63677  -0.62839  -0.61070  -0.55996  -0.53995
 Alpha  occ. eigenvalues --   -0.53831  -0.53572  -0.52028  -0.51771  -0.49947
 Alpha  occ. eigenvalues --   -0.49910  -0.48033  -0.47996  -0.46023  -0.44096
 Alpha  occ. eigenvalues --   -0.38089  -0.37075  -0.36199  -0.35336
 Alpha virt. eigenvalues --    0.04108   0.05987   0.10586   0.12343   0.15671
 Alpha virt. eigenvalues --    0.17564   0.20758   0.22713   0.26691   0.27616
 Alpha virt. eigenvalues --    0.28366   0.29732   0.30393   0.31809   0.32513

 Mulliken charges:
               1
     1  C   -0.176599
     2  C   -0.220992
     3  C   -0.171987
     4  C    0.156644
     5  C   -0.172432
     6  C   -0.220983
     7  H    0.250741
     8  H    0.224176
     9  H    0.272234
    10  H    0.271372
    11  H    0.222631
    12  N    0.488378
    13  O   -0.463723
    14  O   -0.463120
    15  C   -0.169563
    16  C   -0.218497
    17  C   -0.170181
    18  C    0.157667
    19  C   -0.170347
    20  C   -0.218418
    21  H    0.228389
    22  H    0.225933
    23  H    0.276503
    24  H    0.274330
    25  H    0.225656
    26  N    0.490180
    27  O   -0.469622
    28  O   -0.458370
 Sum of Mulliken charges =  -0.00000

 Dipole moment (field-independent basis, Debye):
    X=             10.5384    Y=              1.0407    Z=              0.7628  Tot=             10.6171
 Quadrupole moment (field-independent basis, Debye-Ang):
   XX=           -112.6218   YY=            -96.7960   ZZ=           -106.4789
   XY=             13.4735   XZ=             -2.3214   YZ=              0.0618

 Normal termination of Gaussian 16 at Wed May  5 17:45:47 2021.
