 Gaussian 16, Revision A.03,
 Gaussian 16:  EM64L-G16RevA.03 25-Dec-2016

 -------------
 #p 6-31g* mp2
 -------------

 ------------------------------------------------------
 Input file generated by CHIRIPA (05-May-2021 14:57:23)
 ------------------------------------------------------
 Symbolic Z-matrix:
 Charge =  0 Multiplicity = 1

                         Standard orientation:
 ---------------------------------------------------------------------
 Center     Atomic      Atomic             Coordinates (Angstroms)
 Number     Number       Type             X           Y           Z
 ---------------------------------------------------------------------
      1          6           0       -3.565116   -2.380448   -0.383733
      2          6           0       -4.824087   -1.776441   -0.465523
      3          6           0       -4.959094   -0.393148   -0.314461
      4          6           0       -3.808846    0.359192   -0.081639
      5          6           0       -2.540742   -0.213239    0.005104
      6          6           0       -2.429464   -1.598297   -0.149094
      7          1           0       -3.469457   -3.455709   -0.502299
      8          1           0       -5.707786   -2.381378   -0.647658
      9          1           0       -5.921605    0.100357   -0.373145
     10          1           0       -1.678118    0.416044    0.187596
     11          1           0       -1.450458   -2.064662   -0.085088
     12          7           0       -3.939211    1.824557    0.079944
     13          8           0       -2.910399    2.465206    0.284275
     14          8           0       -5.067735    2.304715   -0.000798
     15          6           0        1.907416   -1.066547    1.498013
     16          6           0        1.906780   -1.237301    0.109718
     17          6           0        2.943254   -0.715851   -0.670254
     18          6           0        3.969107   -0.025949   -0.026086
     19          6           0        3.998015    0.160765    1.355070
     20          6           0        2.951191   -0.369287    2.115170
     21          1           0        1.098237   -1.474963    2.096195
     22          1           0        1.097472   -1.778359   -0.372283
     23          1           0        2.967712   -0.833408   -1.746823
     24          1           0        4.818502    0.704791    1.807018
     25          1           0        2.954300   -0.235143    3.193150
     26          7           0        5.071854    0.530641   -0.841288
     27          8           0        5.964040    1.134500   -0.249684
     28          8           0        5.023121    0.352498   -2.056413
 ---------------------------------------------------------------------

 SCF Done:  E(RHF) =  -868.336595028     A.U. after   16 cycles
 E2 =    -0.2599803387D+01 EUMP2 =    -0.87093639841475D+03

 The electronic state is 1-A.
 Alpha  occ. eigenvalues --  -20.61244 -20.61238 -20.61044 -20.61036 -15.86305
 Alpha  occ. eigenvalues --  -15.86104 -11.31808 -11.31610 -11.28455 -11.28382
 Alpha  occ. eigenvalues --  -11.28258 -11.28208 -11.28175 -11.28057 -11.27588
 Alpha  occ. eigenvalues --  -11.27408 -11.27399 -11.27209  -1.60318  -1.60114
 Alpha  occ. eigenvalues --   -1.39867  -1.39664  -1.20016  -1.19819  -1.09384
 Alpha  occ. eigenvalues --   -1.09204  -1.05460  -1.05250  -0.96187  -0.96003
 Alpha  occ. eigenvalues --   -0.86857  -0.86655  -0.83034  -0.82834  -0.78067
 Alpha  occ. eigenvalues --   -0.77835  -0.72519  -0.72322  -0.71645  -0.71437
 Alpha  occ. eigenvalues --   -0.71113  -0.70948  -0.65685  -0.65629  -0.65477
 Alpha  occ. eigenvalues --   -0.65191  -0.62870  -0.62520  -0.55943  -0.55787
 Alpha  occ. eigenvalues --   -0.53761  -0.53646  -0.53558  -0.53282  -0.49292
 Alpha  occ. eigenvalues --   -0.49265  -0.49092  -0.49064  -0.45242  -0.45038
 Alpha  occ. eigenvalues --   -0.37997  -0.37827  -0.37066  -0.36843
 Alpha virt. eigenvalues --    0.04505   0.04712   0.10582   0.10722   0.15931
 Alpha virt. eigenvalues --    0.16159   0.17815   0.22001   0.24625   0.27416
 Alpha virt. eigenvalues --    0.27747   0.28716   0.29743   0.31324   0.31788

 Mulliken charges:
               1
     1  C   -0.170568
     2  C   -0.218460
     3  C   -0.169394
     4  C    0.159093
     5  C   -0.172638
     6  C   -0.222420
     7  H    0.226921
     8  H    0.225874
     9  H    0.278001
    10  H    0.276981
    11  H    0.215208
    12  N    0.488000
    13  O   -0.458997
    14  O   -0.458506
    15  C   -0.172224
    16  C   -0.224241
    17  C   -0.168865
    18  C    0.159585
    19  C   -0.169016
    20  C   -0.217258
    21  H    0.223394
    22  H    0.217027
    23  H    0.277450
    24  H    0.278258
    25  H    0.226393
    26  N    0.488048
    27  O   -0.458345
    28  O   -0.459300
 Sum of Mulliken charges =  -0.00000

 Dipole moment (field-independent basis, Debye):
    X=             -3.4069    Y=             -6.9630    Z=              2.3294  Tot=              8.0942
 Quadrupole moment (field-independent basis, Debye-Ang):
   XX=           -131.9132   YY=           -109.2164   ZZ=           -102.1959
   XY=             13.7806   XZ=             16.7738   YZ=              2.0450

 Normal termination of Gaussian 16 at Thu May  6 08:10:45 2021.
