 Gaussian 16, Revision A.03,
 Gaussian 16:  EM64L-G16RevA.03 25-Dec-2016

 -------------
 #p 6-31g* mp2
 -------------

 ------------------------------------------------------
 Input file generated by CHIRIPA (05-May-2021 14:53:18)
 ------------------------------------------------------
 Symbolic Z-matrix:
 Charge =  0 Multiplicity = 1

                         Standard orientation:
 ---------------------------------------------------------------------
 Center     Atomic      Atomic             Coordinates (Angstroms)
 Number     Number       Type             X           Y           Z
 ---------------------------------------------------------------------
      1          6           0       -3.126886   -0.478706    0.004022
      2          6           0       -2.814690   -1.611603   -0.974275
      3          6           0       -3.600649   -2.887649   -0.671345
      4          1           0       -2.904636   -0.813951    1.026353
      5          1           0       -4.203906   -0.263164   -0.027049
      6          1           0       -1.738361   -1.824007   -0.942383
      7          1           0       -3.037528   -1.273556   -1.994414
      8          1           0       -4.677690   -2.698041   -0.722650
      9          1           0       -3.371142   -3.251619    0.335359
     10          1           0       -3.362181   -3.684458   -1.382744
     11          6           0       -2.348861    0.803635   -0.285816
     12          6           0       -2.661058    1.936532    0.692481
     13          6           0       -1.875098    3.212578    0.389550
     14          1           0       -1.271842    0.588093   -0.254746
     15          1           0       -2.571111    1.138880   -1.308147
     16          1           0       -2.438220    1.598485    1.712620
     17          1           0       -3.737386    2.148936    0.660588
     18          1           0       -2.104605    3.576548   -0.617154
     19          1           0       -0.798057    3.022970    0.440855
     20          1           0       -2.113567    4.009387    1.100949
     21          6           0        2.590009    0.707852   -2.227792
     22          6           0        2.991138   -0.579102   -1.854477
     23          6           0        2.746435   -1.052098   -0.561828
     24          6           0        2.095359   -0.207628    0.336093
     25          6           0        1.683472    1.079527   -0.005771
     26          6           0        1.938605    1.531607   -1.303876
     27          1           0        2.784151    1.067162   -3.234073
     28          1           0        3.497218   -1.221038   -2.569912
     29          1           0        3.046184   -2.044065   -0.246277
     30          1           0        1.181001    1.696302    0.729437
     31          1           0        1.625952    2.531529   -1.591015
     32          7           0        1.830782   -0.697296    1.707451
     33          8           0        1.255482    0.066217    2.479924
     34          8           0        2.203717   -1.835340    1.983883
 ---------------------------------------------------------------------

 SCF Done:  E(RHF) =  -669.535209410     A.U. after   15 cycles
 E2 =    -0.2093246758D+01 EUMP2 =    -0.67162845616773D+03

 The electronic state is 1-A.
 Alpha  occ. eigenvalues --  -20.60858 -20.60853 -15.85909 -11.31265 -11.27823
 Alpha  occ. eigenvalues --  -11.27812 -11.27551 -11.26833 -11.26818 -11.21597
 Alpha  occ. eigenvalues --  -11.21488 -11.21452 -11.21325 -11.21203 -11.20905
 Alpha  occ. eigenvalues --   -1.59932  -1.39485  -1.19436  -1.08825  -1.08370
 Alpha  occ. eigenvalues --   -1.04837  -1.03528  -0.95999  -0.95666  -0.87020
 Alpha  occ. eigenvalues --   -0.86231  -0.82496  -0.79591  -0.78182  -0.77540
 Alpha  occ. eigenvalues --   -0.72126  -0.71258  -0.70549  -0.65093  -0.65052
 Alpha  occ. eigenvalues --   -0.64775  -0.62235  -0.60882  -0.59359  -0.57602
 Alpha  occ. eigenvalues --   -0.55401  -0.55239  -0.53185  -0.52922  -0.52693
 Alpha  occ. eigenvalues --   -0.52427  -0.49951  -0.48883  -0.48880  -0.47911
 Alpha  occ. eigenvalues --   -0.46598  -0.45726  -0.45615  -0.44881  -0.43753
 Alpha  occ. eigenvalues --   -0.37400  -0.36377
 Alpha virt. eigenvalues --    0.04956   0.11151   0.16444   0.20159   0.23002
 Alpha virt. eigenvalues --    0.23992   0.25957   0.26905   0.27622   0.27964
 Alpha virt. eigenvalues --    0.29210   0.30675   0.31460   0.31620   0.32184

 Mulliken charges:
               1
     1  C   -0.299781
     2  C   -0.299144
     3  C   -0.476079
     4  H    0.156708
     5  H    0.148635
     6  H    0.151635
     7  H    0.149036
     8  H    0.154497
     9  H    0.158972
    10  H    0.158835
    11  C   -0.302346
    12  C   -0.301522
    13  C   -0.475657
    14  H    0.151641
    15  H    0.145500
    16  H    0.162386
    17  H    0.152456
    18  H    0.153134
    19  H    0.142850
    20  H    0.164256
    21  C   -0.170620
    22  C   -0.218241
    23  C   -0.171007
    24  C    0.160111
    25  C   -0.177603
    26  C   -0.218510
    27  H    0.226106
    28  H    0.223860
    29  H    0.275799
    30  H    0.281883
    31  H    0.225199
    32  N    0.487971
    33  O   -0.460998
    34  O   -0.459962
 Sum of Mulliken charges =  -0.00000

 Dipole moment (field-independent basis, Debye):
    X=              0.9369    Y=              1.6691    Z=             -4.7508  Tot=              5.1219
 Quadrupole moment (field-independent basis, Debye-Ang):
   XX=            -90.0309   YY=            -92.8719   ZZ=            -97.9161
   XY=              0.5166   XZ=            -10.4950   YZ=              2.6002

 Normal termination of Gaussian 16 at Wed May  5 20:28:01 2021.
