 Gaussian 16, Revision A.03,
 Gaussian 16:  EM64L-G16RevA.03 25-Dec-2016

 -------------
 #p 6-31g* mp2
 -------------

 ------------------------------------------------------
 Input file generated by CHIRIPA (05-May-2021 14:57:23)
 ------------------------------------------------------
 Symbolic Z-matrix:
 Charge =  0 Multiplicity = 1

                         Standard orientation:
 ---------------------------------------------------------------------
 Center     Atomic      Atomic             Coordinates (Angstroms)
 Number     Number       Type             X           Y           Z
 ---------------------------------------------------------------------
      1          6           0        6.265033    0.400793    0.745480
      2          6           0        5.710950   -0.878152    0.863002
      3          6           0        4.387847   -1.116698    0.479541
      4          6           0        3.644137   -0.048496   -0.019587
      5          6           0        4.167777    1.236963   -0.148762
      6          6           0        5.493040    1.452415    0.240863
      7          1           0        7.293690    0.577132    1.045756
      8          1           0        6.308137   -1.696746    1.254558
      9          1           0        3.933829   -2.096920    0.559859
     10          1           0        3.547672    2.033053   -0.542627
     11          1           0        5.920721    2.446698    0.148476
     12          7           0        2.242283   -0.288810   -0.428802
     13          8           0        1.608011    0.669100   -0.865545
     14          8           0        1.804328   -1.430527   -0.305055
     15          6           0       -6.115934    0.443167    1.027475
     16          6           0       -5.316924    1.515366    0.616999
     17          6           0       -4.073597    1.286558    0.020062
     18          6           0       -3.658551   -0.033095   -0.151816
     19          6           0       -4.431788   -1.122449    0.246560
     20          6           0       -5.671600   -0.870004    0.841274
     21          1           0       -7.080416    0.630091    1.490327
     22          1           0       -5.659442    2.536237    0.760343
     23          1           0       -3.434879    2.098005   -0.307062
     24          1           0       -4.063396   -2.129083    0.090375
     25          1           0       -6.290010   -1.704639    1.159076
     26          7           0       -2.344157   -0.287836   -0.782589
     27          8           0       -2.001255   -1.459757   -0.922793
     28          8           0       -1.681725    0.689243   -1.124844
 ---------------------------------------------------------------------

 SCF Done:  E(RHF) =  -868.333322513     A.U. after   16 cycles
 E2 =    -0.2601265528D+01 EUMP2 =    -0.87093458804113D+03

 The electronic state is 1-A.
 Alpha  occ. eigenvalues --  -20.59360 -20.59326 -20.59194 -20.59159 -15.84434
 Alpha  occ. eigenvalues --  -15.84263 -11.30303 -11.30183 -11.26936 -11.26931
 Alpha  occ. eigenvalues --  -11.26820 -11.26815 -11.26775 -11.26671 -11.26067
 Alpha  occ. eigenvalues --  -11.26057 -11.25965 -11.25954  -1.58422  -1.58243
 Alpha  occ. eigenvalues --   -1.37968  -1.37788  -1.18527  -1.18410  -1.07826
 Alpha  occ. eigenvalues --   -1.07698  -1.04004  -1.03896  -0.94578  -0.94424
 Alpha  occ. eigenvalues --   -0.85379  -0.85268  -0.81413  -0.81265  -0.76368
 Alpha  occ. eigenvalues --   -0.76224  -0.70724  -0.70330  -0.69813  -0.69632
 Alpha  occ. eigenvalues --   -0.69604  -0.69516  -0.64164  -0.64045  -0.64011
 Alpha  occ. eigenvalues --   -0.63903  -0.61347  -0.61238  -0.54494  -0.54381
 Alpha  occ. eigenvalues --   -0.52309  -0.52196  -0.52104  -0.51997  -0.47716
 Alpha  occ. eigenvalues --   -0.47402  -0.47140  -0.46803  -0.43315  -0.43021
 Alpha  occ. eigenvalues --   -0.36540  -0.36423  -0.35633  -0.35526
 Alpha virt. eigenvalues --    0.06151   0.06339   0.12013   0.12120   0.17561
 Alpha virt. eigenvalues --    0.17733   0.22086   0.22180   0.27962   0.28051
 Alpha virt. eigenvalues --    0.29020   0.29122   0.31599   0.31689   0.33288

 Mulliken charges:
               1
     1  C   -0.172556
     2  C   -0.218527
     3  C   -0.172039
     4  C    0.159280
     5  C   -0.172130
     6  C   -0.218546
     7  H    0.222253
     8  H    0.220552
     9  H    0.275121
    10  H    0.275463
    11  H    0.220465
    12  N    0.484789
    13  O   -0.447851
    14  O   -0.456234
    15  C   -0.172760
    16  C   -0.218582
    17  C   -0.172116
    18  C    0.159769
    19  C   -0.171908
    20  C   -0.218563
    21  H    0.221759
    22  H    0.219930
    23  H    0.275174
    24  H    0.275266
    25  H    0.220194
    26  N    0.485955
    27  O   -0.455693
    28  O   -0.448466
 Sum of Mulliken charges =  -0.00000

 Dipole moment (field-independent basis, Debye):
    X=              0.3392    Y=              1.7226    Z=              3.4630  Tot=              3.8827
 Quadrupole moment (field-independent basis, Debye-Ang):
   XX=            -40.0551   YY=            -95.6684   ZZ=           -106.9033
   XY=              0.1060   XZ=             -2.2108   YZ=             -2.3219

 Normal termination of Gaussian 16 at Thu May  6 03:23:21 2021.
