 Gaussian 16, Revision A.03,
 Gaussian 16:  EM64L-G16RevA.03 25-Dec-2016

 -------------
 #p 6-31g* mp2
 -------------

 ------------------------------------------------------
 Input file generated by CHIRIPA (05-May-2021 14:55:22)
 ------------------------------------------------------
 Symbolic Z-matrix:
 Charge =  0 Multiplicity = 1

                         Standard orientation:
 ---------------------------------------------------------------------
 Center     Atomic      Atomic             Coordinates (Angstroms)
 Number     Number       Type             X           Y           Z
 ---------------------------------------------------------------------
      1          6           0       -1.979900    2.850738    0.178492
      2          6           0       -2.153133    2.265703   -1.080175
      3          6           0       -2.518048    0.920918   -1.193922
      4          6           0       -2.702349    0.187324   -0.022955
      5          6           0       -2.537304    0.741641    1.245423
      6          6           0       -2.172199    2.088185    1.335235
      7          1           0       -1.696351    3.896083    0.257557
      8          1           0       -2.004465    2.855493   -1.980226
      9          1           0       -2.658823    0.442794   -2.155691
     10          1           0       -2.692611    0.128217    2.124632
     11          1           0       -2.038363    2.539889    2.314059
     12          7           0       -3.088769   -1.237270   -0.130704
     13          8           0       -3.245137   -1.862045    0.916121
     14          8           0       -3.227960   -1.702118   -1.259943
     15          6           0        4.085232   -0.405282    0.260223
     16          6           0        4.785276    0.737646   -0.475736
     17          6           0        6.200290    0.995734    0.042839
     18          1           0        4.047341   -0.173120    1.333354
     19          1           0        4.686200   -1.319635    0.159264
     20          1           0        4.182471    1.649244   -0.374587
     21          1           0        4.821335    0.502824   -1.547265
     22          1           0        6.822020    0.102076   -0.073042
     23          1           0        6.179527    1.255010    1.106300
     24          1           0        6.682256    1.816689   -0.497163
     25          6           0        2.669743   -0.675330   -0.246919
     26          6           0        1.969698   -1.818260    0.489039
     27          6           0        0.554684   -2.076348   -0.029536
     28          1           0        2.068775    0.239022   -0.145960
     29          1           0        2.707633   -0.907493   -1.320050
     30          1           0        1.933640   -1.583437    1.560569
     31          1           0        2.572503   -2.729857    0.387890
     32          1           0        0.575447   -2.335624   -1.092995
     33          1           0       -0.067046   -1.182690    0.086346
     34          1           0        0.072718   -2.897302    0.510466
 ---------------------------------------------------------------------

 SCF Done:  E(RHF) =  -669.535349741     A.U. after   15 cycles
 E2 =    -0.2092485901D+01 EUMP2 =    -0.67162783564164D+03

 The electronic state is 1-A.
 Alpha  occ. eigenvalues --  -20.60753 -20.60743 -15.85798 -11.31200 -11.27779
 Alpha  occ. eigenvalues --  -11.27770 -11.27530 -11.26809 -11.26797 -11.21685
 Alpha  occ. eigenvalues --  -11.21388 -11.21368 -11.21277 -11.21165 -11.20610
 Alpha  occ. eigenvalues --   -1.59817  -1.39371  -1.19393  -1.08778  -1.08368
 Alpha  occ. eigenvalues --   -1.04793  -1.03425  -0.95863  -0.95602  -0.86881
 Alpha  occ. eigenvalues --   -0.86189  -0.82431  -0.79508  -0.78185  -0.77472
 Alpha  occ. eigenvalues --   -0.72023  -0.71145  -0.70488  -0.65039  -0.65005
 Alpha  occ. eigenvalues --   -0.64794  -0.62136  -0.60834  -0.59230  -0.57473
 Alpha  occ. eigenvalues --   -0.55298  -0.55182  -0.53167  -0.52883  -0.52514
 Alpha  occ. eigenvalues --   -0.52253  -0.49813  -0.48785  -0.48773  -0.47809
 Alpha  occ. eigenvalues --   -0.46554  -0.45718  -0.45653  -0.44756  -0.43663
 Alpha  occ. eigenvalues --   -0.37335  -0.36400
 Alpha virt. eigenvalues --    0.05061   0.11242   0.16525   0.21398   0.22897
 Alpha virt. eigenvalues --    0.24405   0.26652   0.27305   0.27484   0.27915
 Alpha virt. eigenvalues --    0.28334   0.30855   0.31391   0.31865   0.32334

 Mulliken charges:
               1
     1  C   -0.171278
     2  C   -0.218056
     3  C   -0.171417
     4  C    0.156675
     5  C   -0.172542
     6  C   -0.218148
     7  H    0.225674
     8  H    0.223724
     9  H    0.276047
    10  H    0.275923
    11  H    0.223520
    12  N    0.493581
    13  O   -0.460668
    14  O   -0.459992
    15  C   -0.297959
    16  C   -0.299068
    17  C   -0.475531
    18  H    0.148541
    19  H    0.150499
    20  H    0.149108
    21  H    0.152064
    22  H    0.156131
    23  H    0.154605
    24  H    0.159418
    25  C   -0.298028
    26  C   -0.299671
    27  C   -0.480451
    28  H    0.147082
    29  H    0.149592
    30  H    0.149867
    31  H    0.152640
    32  H    0.158093
    33  H    0.148241
    34  H    0.171783
 Sum of Mulliken charges =  -0.00000

 Dipole moment (field-independent basis, Debye):
    X=              1.2815    Y=              4.9355    Z=              0.3611  Tot=              5.1119
 Quadrupole moment (field-independent basis, Debye-Ang):
   XX=           -104.1633   YY=            -92.8363   ZZ=            -89.3771
   XY=            -14.0412   XZ=             -1.6378   YZ=             -0.0761

 Normal termination of Gaussian 16 at Thu May  6 06:14:48 2021.
