 Gaussian 16, Revision A.03,
 Gaussian 16:  EM64L-G16RevA.03 25-Dec-2016

 -------------
 #p 6-31g* mp2
 -------------

 ------------------------------------------------------
 Input file generated by CHIRIPA (05-May-2021 14:57:25)
 ------------------------------------------------------
 Symbolic Z-matrix:
 Charge =  0 Multiplicity = 1

                         Standard orientation:
 ---------------------------------------------------------------------
 Center     Atomic      Atomic             Coordinates (Angstroms)
 Number     Number       Type             X           Y           Z
 ---------------------------------------------------------------------
      1          6           0        5.303942    1.511469    0.934458
      2          6           0        4.146764    1.220264    1.664293
      3          6           0        3.181470    0.350870    1.147661
      4          6           0        3.406659   -0.212125   -0.107575
      5          6           0        4.549291    0.058334   -0.858929
      6          6           0        5.501165    0.930599   -0.322608
      7          1           0        6.048593    2.187949    1.343438
      8          1           0        3.990944    1.669919    2.640805
      9          1           0        2.276539    0.108068    1.691321
     10          1           0        4.676658   -0.405244   -1.829646
     11          1           0        6.398892    1.154932   -0.891646
     12          7           0        2.391849   -1.134033   -0.664933
     13          8           0        2.613849   -1.617081   -1.773092
     14          8           0        1.393658   -1.356119    0.016924
     15          6           0       -4.466173    2.322380   -0.656788
     16          6           0       -3.229857    1.884716   -1.143095
     17          6           0       -2.725670    0.633149   -0.777138
     18          6           0       -3.487652   -0.158518    0.080731
     19          6           0       -4.722803    0.249469    0.581968
     20          6           0       -5.207394    1.504800    0.202675
     21          1           0       -4.850226    3.296089   -0.946252
     22          1           0       -2.652044    2.517540   -1.810710
     23          1           0       -1.771537    0.269558   -1.138869
     24          1           0       -5.275908   -0.403686    1.245956
     25          1           0       -6.167845    1.842100    0.581894
     26          7           0       -2.964264   -1.485487    0.475212
     27          8           0       -3.654893   -2.164099    1.232282
     28          8           0       -1.873314   -1.821829    0.019867
 ---------------------------------------------------------------------

 SCF Done:  E(RHF) =  -868.335592410     A.U. after   16 cycles
 E2 =    -0.2600250701D+01 EUMP2 =    -0.87093584311096D+03

 The electronic state is 1-A.
 Alpha  occ. eigenvalues --  -20.60300 -20.60224 -20.59796 -20.59662 -15.85311
 Alpha  occ. eigenvalues --  -15.84774 -11.30931 -11.30479 -11.27536 -11.27514
 Alpha  occ. eigenvalues --  -11.27318 -11.27127 -11.27034 -11.26935 -11.26601
 Alpha  occ. eigenvalues --  -11.26587 -11.26212 -11.26179  -1.59346  -1.58817
 Alpha  occ. eigenvalues --   -1.38888  -1.38349  -1.19130  -1.18697  -1.08479
 Alpha  occ. eigenvalues --   -1.08039  -1.04565  -1.04145  -0.95266  -0.94806
 Alpha  occ. eigenvalues --   -0.85951  -0.85526  -0.82093  -0.81618  -0.77105
 Alpha  occ. eigenvalues --   -0.76605  -0.71546  -0.70920  -0.70694  -0.70233
 Alpha  occ. eigenvalues --   -0.70155  -0.69798  -0.64769  -0.64566  -0.64331
 Alpha  occ. eigenvalues --   -0.64155  -0.61905  -0.61474  -0.55057  -0.54654
 Alpha  occ. eigenvalues --   -0.52890  -0.52656  -0.52469  -0.52238  -0.48308
 Alpha  occ. eigenvalues --   -0.48260  -0.47790  -0.47712  -0.44243  -0.43663
 Alpha  occ. eigenvalues --   -0.37130  -0.36714  -0.36184  -0.35769
 Alpha virt. eigenvalues --    0.05413   0.05917   0.11466   0.11881   0.16859
 Alpha virt. eigenvalues --    0.17334   0.21592   0.21979   0.27492   0.27859
 Alpha virt. eigenvalues --    0.28498   0.28934   0.31117   0.31506   0.32742

 Mulliken charges:
               1
     1  C   -0.171721
     2  C   -0.218764
     3  C   -0.172550
     4  C    0.157606
     5  C   -0.171850
     6  C   -0.218664
     7  H    0.224348
     8  H    0.222632
     9  H    0.277693
    10  H    0.275164
    11  H    0.222322
    12  N    0.485791
    13  O   -0.463315
    14  O   -0.448099
    15  C   -0.172053
    16  C   -0.219502
    17  C   -0.172823
    18  C    0.157517
    19  C   -0.171991
    20  C   -0.219042
    21  H    0.222464
    22  H    0.221019
    23  H    0.283835
    24  H    0.274175
    25  H    0.220675
    26  N    0.485973
    27  O   -0.468012
    28  O   -0.442827
 Sum of Mulliken charges =  -0.00000

 Dipole moment (field-independent basis, Debye):
    X=              1.8740    Y=              7.6998    Z=              0.5632  Tot=              7.9446
 Quadrupole moment (field-independent basis, Debye-Ang):
   XX=            -65.4755   YY=           -109.1248   ZZ=           -101.5892
   XY=             -5.2112   XZ=              6.0907   YZ=             -0.0087

 Normal termination of Gaussian 16 at Thu May  6 05:08:38 2021.
