 Gaussian 16, Revision A.03,
 Gaussian 16:  EM64L-G16RevA.03 25-Dec-2016

 -------------
 #p 6-31g* mp2
 -------------

 ------------------------------------------------------
 Input file generated by CHIRIPA (05-May-2021 14:51:11)
 ------------------------------------------------------
 Symbolic Z-matrix:
 Charge =  0 Multiplicity = 1

                         Standard orientation:
 ---------------------------------------------------------------------
 Center     Atomic      Atomic             Coordinates (Angstroms)
 Number     Number       Type             X           Y           Z
 ---------------------------------------------------------------------
      1          6           0       -2.893893    1.060361   -0.334330
      2          6           0       -3.422275    2.200148    0.537268
      3          6           0       -2.814080    3.554544    0.171889
      4          1           0       -1.800574    1.010726   -0.238754
      5          1           0       -3.105560    1.285944   -1.388704
      6          1           0       -3.210904    1.971827    1.589793
      7          1           0       -4.514482    2.246953    0.439754
      8          1           0       -3.036566    3.808386   -0.869584
      9          1           0       -1.725581    3.531697    0.286989
     10          1           0       -3.205692    4.355027    0.807285
     11          6           0       -3.492593   -0.299984    0.018864
     12          6           0       -2.964211   -1.439770   -0.852735
     13          6           0       -3.572406   -2.794167   -0.487355
     14          1           0       -3.280926   -0.525567    1.073238
     15          1           0       -4.585912   -0.250348   -0.076713
     16          1           0       -1.872004   -1.486576   -0.755220
     17          1           0       -3.175582   -1.211450   -1.905259
     18          1           0       -4.660906   -2.771319   -0.602456
     19          1           0       -3.349921   -3.048008    0.554118
     20          1           0       -3.180794   -3.594649   -1.122751
     21          6           0        2.846099   -1.027115    0.368472
     22          6           0        1.331147   -0.881979    0.516254
     23          6           0        0.650870   -2.184627    0.938303
     24          1           0        3.062633   -1.811411   -0.369726
     25          1           0        3.269348   -1.370474    1.322600
     26          1           0        0.911049   -0.537667   -0.437466
     27          1           0        1.118194   -0.097804    1.254045
     28          1           0        1.042350   -2.529382    1.900846
     29          1           0        0.834029   -2.971744    0.199723
     30          1           0       -0.431691   -2.058205    1.038000
     31          6           0        3.540386    0.266737   -0.053006
     32          6           0        5.055339    0.121601   -0.200787
     33          6           0        5.735616    1.424250   -0.622837
     34          1           0        3.117138    0.610097   -1.007133
     35          1           0        3.323853    1.051034    0.685193
     36          1           0        5.268294   -0.662573   -0.938579
     37          1           0        5.475438   -0.222711    0.752933
     38          1           0        5.552457    2.211367    0.115744
     39          1           0        5.344136    1.769005   -1.585379
     40          1           0        6.818177    1.297827   -0.722533
 ---------------------------------------------------------------------

 SCF Done:  E(RHF) =  -470.733128991     A.U. after   11 cycles
 E2 =    -0.1583372683D+01 EUMP2 =    -0.47231650167345D+03

 The electronic state is 1-A.
 Alpha  occ. eigenvalues --  -11.21691 -11.21631 -11.21582 -11.21534 -11.21457
 Alpha  occ. eigenvalues --  -11.21394 -11.21382 -11.21321 -11.21123 -11.21091
 Alpha  occ. eigenvalues --  -11.21053 -11.21048  -1.08489  -1.08402  -1.03601
 Alpha  occ. eigenvalues --   -1.03491  -0.96037  -0.95951  -0.87054  -0.86966
 Alpha  occ. eigenvalues --   -0.79655  -0.79560  -0.78313  -0.78203  -0.65154
 Alpha  occ. eigenvalues --   -0.65037  -0.61086  -0.60894  -0.59394  -0.59275
 Alpha  occ. eigenvalues --   -0.57634  -0.57557  -0.55336  -0.55226  -0.52729
 Alpha  occ. eigenvalues --   -0.52645  -0.52472  -0.52362  -0.49973  -0.49890
 Alpha  occ. eigenvalues --   -0.48014  -0.47828  -0.46686  -0.46581  -0.45909
 Alpha  occ. eigenvalues --   -0.45783  -0.45730  -0.45581  -0.43826  -0.43755
 Alpha virt. eigenvalues --    0.20084   0.23040   0.23827   0.24380   0.25967
 Alpha virt. eigenvalues --    0.26537   0.26915   0.27683   0.28111   0.29334
 Alpha virt. eigenvalues --    0.30591   0.31151   0.31618   0.31775   0.32039

 Mulliken charges:
               1
     1  C   -0.300822
     2  C   -0.299514
     3  C   -0.475768
     4  H    0.152520
     5  H    0.149305
     6  H    0.151783
     7  H    0.151874
     8  H    0.155098
     9  H    0.155386
    10  H    0.160117
    11  C   -0.298611
    12  C   -0.307437
    13  C   -0.475879
    14  H    0.149015
    15  H    0.149820
    16  H    0.159909
    17  H    0.151922
    18  H    0.155199
    19  H    0.155188
    20  H    0.160364
    21  C   -0.298304
    22  C   -0.302971
    23  C   -0.480271
    24  H    0.150017
    25  H    0.149886
    26  H    0.153917
    27  H    0.151842
    28  H    0.155733
    29  H    0.155691
    30  H    0.164578
    31  C   -0.298430
    32  C   -0.299707
    33  C   -0.475757
    34  H    0.149766
    35  H    0.149596
    36  H    0.152057
    37  H    0.151987
    38  H    0.155222
    39  H    0.155311
    40  H    0.160369
 Sum of Mulliken charges =  -0.00000

 Dipole moment (field-independent basis, Debye):
    X=              0.0373    Y=             -0.0098    Z=             -0.0043  Tot=              0.0388
 Quadrupole moment (field-independent basis, Debye-Ang):
   XX=            -84.7650   YY=            -86.5408   ZZ=            -83.4785
   XY=             -1.0135   XZ=              0.8650   YZ=              0.5653

 Normal termination of Gaussian 16 at Wed May  5 21:29:52 2021.
