 Gaussian 16, Revision A.03,
 Gaussian 16:  EM64L-G16RevA.03 25-Dec-2016

 -------------
 #p 6-31g* mp2
 -------------

 ------------------------------------------------------
 Input file generated by CHIRIPA (05-May-2021 14:53:18)
 ------------------------------------------------------
 Symbolic Z-matrix:
 Charge =  0 Multiplicity = 1

                         Standard orientation:
 ---------------------------------------------------------------------
 Center     Atomic      Atomic             Coordinates (Angstroms)
 Number     Number       Type             X           Y           Z
 ---------------------------------------------------------------------
      1          6           0       -3.693937   -0.692024    0.382337
      2          6           0       -2.853131   -1.525743   -0.585104
      3          6           0       -2.024027   -2.596845    0.124206
      4          1           0       -3.031114   -0.216916    1.118464
      5          1           0       -4.360416   -1.359063    0.946482
      6          1           0       -2.189418   -0.857177   -1.148239
      7          1           0       -3.518014   -1.998767   -1.319130
      8          1           0       -2.673822   -3.287014    0.671959
      9          1           0       -1.337677   -2.138937    0.843821
     10          1           0       -1.430697   -3.181039   -0.586103
     11          6           0       -4.528356    0.382991   -0.311793
     12          6           0       -5.369163    1.216710    0.655648
     13          6           0       -6.198267    2.287812   -0.053662
     14          1           0       -3.861877    1.050030   -0.875938
     15          1           0       -5.191180   -0.092117   -1.047920
     16          1           0       -4.704279    1.689735    1.389674
     17          1           0       -6.032876    0.548145    1.218783
     18          1           0       -6.884617    1.829905   -0.773277
     19          1           0       -5.548472    2.977981   -0.601415
     20          1           0       -6.791596    2.872006    0.656647
     21          6           0        4.773374    2.100277    0.066517
     22          6           0        3.432119    2.282857   -0.285931
     23          6           0        2.557894    1.193262   -0.341289
     24          6           0        3.060869   -0.070661   -0.036651
     25          6           0        4.391936   -0.284814    0.317875
     26          6           0        5.248165    0.819283    0.366766
     27          1           0        5.445502    2.952333    0.107010
     28          1           0        3.060621    3.276550   -0.519615
     29          1           0        1.514899    1.306157   -0.611166
     30          1           0        4.733096   -1.287424    0.545470
     31          1           0        6.289316    0.674508    0.640794
     32          7           0        2.144893   -1.231842   -0.091834
     33          8           0        2.612640   -2.335188    0.181073
     34          8           0        0.976548   -1.016643   -0.406947
 ---------------------------------------------------------------------

 SCF Done:  E(RHF) =  -669.535691302     A.U. after   15 cycles
 E2 =    -0.2091374158D+01 EUMP2 =    -0.67162706546041D+03

 The electronic state is 1-A.
 Alpha  occ. eigenvalues --  -20.60958 -20.60953 -15.85994 -11.31319 -11.27885
 Alpha  occ. eigenvalues --  -11.27877 -11.27618 -11.26889 -11.26879 -11.21104
 Alpha  occ. eigenvalues --  -11.20710 -11.20699 -11.20402 -11.20199 -11.19177
 Alpha  occ. eigenvalues --   -1.60022  -1.39578  -1.19487  -1.08890  -1.07558
 Alpha  occ. eigenvalues --   -1.04884  -1.02520  -0.95737  -0.94951  -0.86285
 Alpha  occ. eigenvalues --   -0.85978  -0.82565  -0.78665  -0.77620  -0.77295
 Alpha  occ. eigenvalues --   -0.72222  -0.71340  -0.70595  -0.65146  -0.64887
 Alpha  occ. eigenvalues --   -0.64194  -0.62232  -0.59902  -0.58438  -0.56545
 Alpha  occ. eigenvalues --   -0.55389  -0.54252  -0.53215  -0.52974  -0.51627
 Alpha  occ. eigenvalues --   -0.51398  -0.49243  -0.48967  -0.48614  -0.46952
 Alpha  occ. eigenvalues --   -0.45734  -0.45024  -0.44820  -0.44654  -0.42782
 Alpha  occ. eigenvalues --   -0.37465  -0.36485
 Alpha virt. eigenvalues --    0.04896   0.11170   0.16387   0.21270   0.23614
 Alpha virt. eigenvalues --    0.25330   0.27159   0.27419   0.28118   0.28429
 Alpha virt. eigenvalues --    0.29115   0.30850   0.32098   0.32478   0.32763

 Mulliken charges:
               1
     1  C   -0.297607
     2  C   -0.300581
     3  C   -0.466993
     4  H    0.148023
     5  H    0.146768
     6  H    0.157068
     7  H    0.144880
     8  H    0.141453
     9  H    0.164718
    10  H    0.166107
    11  C   -0.296895
    12  C   -0.298711
    13  C   -0.474938
    14  H    0.146325
    15  H    0.148435
    16  H    0.149862
    17  H    0.151561
    18  H    0.154894
    19  H    0.152976
    20  H    0.158231
    21  C   -0.170599
    22  C   -0.218487
    23  C   -0.170819
    24  C    0.157750
    25  C   -0.170612
    26  C   -0.218549
    27  H    0.226094
    28  H    0.223873
    29  H    0.275214
    30  H    0.275980
    31  H    0.223923
    32  N    0.490793
    33  O   -0.458615
    34  O   -0.461522
 Sum of Mulliken charges =  -0.00000

 Dipole moment (field-independent basis, Debye):
    X=              3.6169    Y=              4.0470    Z=              0.1728  Tot=              5.4305
 Quadrupole moment (field-independent basis, Debye-Ang):
   XX=            -73.5137   YY=            -94.3456   ZZ=            -95.5088
   XY=             10.9186   XZ=              1.6087   YZ=             -0.6940

 Normal termination of Gaussian 16 at Thu May  6 17:19:20 2021.
