 Gaussian 16, Revision A.03,
 Gaussian 16:  EM64L-G16RevA.03 25-Dec-2016

 -------------
 #p 6-31g* mp2
 -------------

 ------------------------------------------------------
 Input file generated by CHIRIPA (05-May-2021 14:57:22)
 ------------------------------------------------------
 Symbolic Z-matrix:
 Charge =  0 Multiplicity = 1

                         Standard orientation:
 ---------------------------------------------------------------------
 Center     Atomic      Atomic             Coordinates (Angstroms)
 Number     Number       Type             X           Y           Z
 ---------------------------------------------------------------------
      1          6           0       -1.523938    2.095307    0.764958
      2          6           0       -2.473722    2.401480   -0.215190
      3          6           0       -3.352317    1.420061   -0.683630
      4          6           0       -3.252854    0.137107   -0.147508
      5          6           0       -2.317363   -0.198947    0.829843
      6          6           0       -1.448923    0.798358    1.283433
      7          1           0       -0.845369    2.863867    1.123086
      8          1           0       -2.534267    3.407854   -0.619653
      9          1           0       -4.097138    1.629730   -1.441718
     10          1           0       -2.281103   -1.211145    1.213976
     11          1           0       -0.712307    0.557713    2.044704
     12          7           0       -4.177607   -0.910286   -0.635563
     13          8           0       -4.069638   -2.032976   -0.147150
     14          8           0       -4.992888   -0.588710   -1.497272
     15          6           0        1.496286   -1.133682    1.831640
     16          6           0        2.081031    0.131181    1.952947
     17          6           0        2.971255    0.597989    0.981279
     18          6           0        3.255527   -0.230073   -0.103522
     19          6           0        2.689107   -1.495082   -0.252563
     20          6           0        1.801652   -1.941353    0.731212
     21          1           0        0.805815   -1.488334    2.591159
     22          1           0        1.845727    0.760589    2.806483
     23          1           0        3.438218    1.572973    1.050325
     24          1           0        2.943134   -2.099740   -1.114698
     25          1           0        1.349028   -2.924105    0.634398
     26          7           0        4.196501    0.253244   -1.138592
     27          8           0        4.430513   -0.495501   -2.084773
     28          8           0        4.682207    1.371663   -0.984101
 ---------------------------------------------------------------------

 SCF Done:  E(RHF) =  -868.334993701     A.U. after   16 cycles
 E2 =    -0.2602637342D+01 EUMP2 =    -0.87093763104256D+03

 The electronic state is 1-A.
 Alpha  occ. eigenvalues --  -20.61340 -20.61326 -20.61159 -20.61139 -15.86395
 Alpha  occ. eigenvalues --  -15.86205 -11.31922 -11.31593 -11.28567 -11.28463
 Alpha  occ. eigenvalues --  -11.28369 -11.28202 -11.28096 -11.27878 -11.27676
 Alpha  occ. eigenvalues --  -11.27505 -11.27172 -11.27131  -1.60407  -1.60225
 Alpha  occ. eigenvalues --   -1.39956  -1.39779  -1.20136  -1.19750  -1.09541
 Alpha  occ. eigenvalues --   -1.09137  -1.05561  -1.05166  -0.96330  -0.95981
 Alpha  occ. eigenvalues --   -0.87015  -0.86538  -0.83158  -0.82814  -0.78151
 Alpha  occ. eigenvalues --   -0.77874  -0.72615  -0.72424  -0.71731  -0.71547
 Alpha  occ. eigenvalues --   -0.71322  -0.70870  -0.65875  -0.65656  -0.65410
 Alpha  occ. eigenvalues --   -0.65102  -0.62906  -0.62527  -0.56136  -0.55676
 Alpha  occ. eigenvalues --   -0.54103  -0.53660  -0.53428  -0.53070  -0.49386
 Alpha  occ. eigenvalues --   -0.49355  -0.49186  -0.49174  -0.45326  -0.45181
 Alpha  occ. eigenvalues --   -0.38300  -0.37710  -0.37105  -0.36578
 Alpha virt. eigenvalues --    0.04273   0.04757   0.10140   0.11106   0.15617
 Alpha virt. eigenvalues --    0.16298   0.18925   0.22219   0.25587   0.25677
 Alpha virt. eigenvalues --    0.28273   0.29236   0.30190   0.30739   0.32019

 Mulliken charges:
               1
     1  C   -0.172549
     2  C   -0.217379
     3  C   -0.170902
     4  C    0.159468
     5  C   -0.173444
     6  C   -0.206688
     7  H    0.224001
     8  H    0.225784
     9  H    0.277131
    10  H    0.268609
    11  H    0.213657
    12  N    0.488187
    13  O   -0.462665
    14  O   -0.458069
    15  C   -0.175197
    16  C   -0.223216
    17  C   -0.170637
    18  C    0.159812
    19  C   -0.168507
    20  C   -0.216677
    21  H    0.223580
    22  H    0.219494
    23  H    0.276007
    24  H    0.279889
    25  H    0.229434
    26  N    0.487945
    27  O   -0.456921
    28  O   -0.460146
 Sum of Mulliken charges =  -0.00000

 Dipole moment (field-independent basis, Debye):
    X=              0.0996    Y=              1.9441    Z=              5.0906  Tot=              5.4501
 Quadrupole moment (field-independent basis, Debye-Ang):
   XX=           -147.4728   YY=            -97.3214   ZZ=           -104.2799
   XY=            -17.9285   XZ=              7.9586   YZ=             -0.8859

 Normal termination of Gaussian 16 at Thu May  6 00:12:35 2021.
