 Gaussian 16, Revision A.03,
 Gaussian 16:  EM64L-G16RevA.03 25-Dec-2016

 -------------
 #p 6-31g* mp2
 -------------

 ------------------------------------------------------
 Input file generated by CHIRIPA (05-May-2021 14:57:21)
 ------------------------------------------------------
 Symbolic Z-matrix:
 Charge =  0 Multiplicity = 1

                         Standard orientation:
 ---------------------------------------------------------------------
 Center     Atomic      Atomic             Coordinates (Angstroms)
 Number     Number       Type             X           Y           Z
 ---------------------------------------------------------------------
      1          6           0        2.498933    2.298415   -0.878192
      2          6           0        3.795033    1.773517   -0.844636
      3          6           0        4.022376    0.472063   -0.387383
      4          6           0        2.925598   -0.279995    0.030681
      5          6           0        1.622503    0.214753    0.009254
      6          6           0        1.418709    1.518732   -0.451891
      7          1           0        2.331474    3.310396   -1.234909
      8          1           0        4.635848    2.376739   -1.175090
      9          1           0        5.015399    0.040804   -0.350812
     10          1           0        0.804340   -0.410698    0.345167
     11          1           0        0.411052    1.923764   -0.476841
     12          7           0        3.153810   -1.659122    0.516815
     13          8           0        2.170661   -2.301314    0.879642
     14          8           0        4.311512   -2.071777    0.525815
     15          6           0       -2.338400    1.847838    1.735071
     16          6           0       -2.740489    0.580149    2.168442
     17          6           0       -3.047479   -0.422138    1.243388
     18          6           0       -2.941117   -0.120849   -0.113521
     19          6           0       -2.543309    1.132410   -0.576532
     20          6           0       -2.241266    2.119443    0.366379
     21          1           0       -2.101845    2.620514    2.460611
     22          1           0       -2.816812    0.366379    3.230762
     23          1           0       -3.361233   -1.412162    1.551333
     24          1           0       -2.476566    1.315605   -1.642085
     25          1           0       -1.929258    3.103043    0.026928
     26          7           0       -3.263496   -1.173852   -1.102287
     27          8           0       -3.161906   -0.883173   -2.292171
     28          8           0       -3.611660   -2.269936   -0.668676
 ---------------------------------------------------------------------

 SCF Done:  E(RHF) =  -868.336620775     A.U. after   16 cycles
 E2 =    -0.2602020946D+01 EUMP2 =    -0.87093864172063D+03

 The electronic state is 1-A.
 Alpha  occ. eigenvalues --  -20.61232 -20.61208 -20.60771 -20.60764 -15.86291
 Alpha  occ. eigenvalues --  -15.85824 -11.31938 -11.31237 -11.28611 -11.28470
 Alpha  occ. eigenvalues --  -11.28305 -11.27815 -11.27787 -11.27673 -11.27598
 Alpha  occ. eigenvalues --  -11.27486 -11.26856 -11.26763  -1.60295  -1.59844
 Alpha  occ. eigenvalues --   -1.39839  -1.39396  -1.20157  -1.19415  -1.09475
 Alpha  occ. eigenvalues --   -1.08816  -1.05604  -1.04813  -0.96254  -0.95639
 Alpha  occ. eigenvalues --   -0.86956  -0.86232  -0.83094  -0.82460  -0.78100
 Alpha  occ. eigenvalues --   -0.77495  -0.72496  -0.72042  -0.71629  -0.71186
 Alpha  occ. eigenvalues --   -0.71167  -0.70553  -0.65782  -0.65595  -0.65070
 Alpha  occ. eigenvalues --   -0.64843  -0.62911  -0.62181  -0.56022  -0.55395
 Alpha  occ. eigenvalues --   -0.53927  -0.53652  -0.53158  -0.52842  -0.49280
 Alpha  occ. eigenvalues --   -0.49236  -0.48805  -0.48794  -0.45182  -0.44790
 Alpha  occ. eigenvalues --   -0.38139  -0.37425  -0.37181  -0.36406
 Alpha virt. eigenvalues --    0.04423   0.05034   0.10323   0.11268   0.15727
 Alpha virt. eigenvalues --    0.16513   0.20135   0.21791   0.25818   0.27632
 Alpha virt. eigenvalues --    0.27781   0.28340   0.30096   0.31579   0.31909

 Mulliken charges:
               1
     1  C   -0.172950
     2  C   -0.218212
     3  C   -0.171007
     4  C    0.159146
     5  C   -0.174312
     6  C   -0.221633
     7  H    0.222553
     8  H    0.223121
     9  H    0.275908
    10  H    0.276568
    11  H    0.223934
    12  N    0.488087
    13  O   -0.459400
    14  O   -0.460372
    15  C   -0.169833
    16  C   -0.218674
    17  C   -0.168762
    18  C    0.157813
    19  C   -0.174712
    20  C   -0.230844
    21  H    0.229000
    22  H    0.229163
    23  H    0.281927
    24  H    0.277625
    25  H    0.221530
    26  N    0.488360
    27  O   -0.459460
    28  O   -0.454561
 Sum of Mulliken charges =  -0.00000

 Dipole moment (field-independent basis, Debye):
    X=              0.0462    Y=              8.3202    Z=              1.9241  Tot=              8.5399
 Quadrupole moment (field-independent basis, Debye-Ang):
   XX=           -111.1517   YY=           -107.5816   ZZ=           -103.5141
   XY=              4.9990   XZ=            -17.7128   YZ=             -2.9010

 Normal termination of Gaussian 16 at Thu May  6 21:04:23 2021.
