 Gaussian 16, Revision A.03,
 Gaussian 16:  EM64L-G16RevA.03 25-Dec-2016

 -------------
 #p 6-31g* mp2
 -------------

 ------------------------------------------------------
 Input file generated by CHIRIPA (05-May-2021 14:53:15)
 ------------------------------------------------------
 Symbolic Z-matrix:
 Charge =  0 Multiplicity = 1

                         Standard orientation:
 ---------------------------------------------------------------------
 Center     Atomic      Atomic             Coordinates (Angstroms)
 Number     Number       Type             X           Y           Z
 ---------------------------------------------------------------------
      1          6           0        3.736159   -0.420258   -0.188002
      2          6           0        2.721316   -0.666469    0.928895
      3          6           0        1.316327   -0.953361    0.398335
      4          1           0        3.396102    0.423201   -0.804349
      5          1           0        3.764676   -1.298240   -0.848100
      6          1           0        2.695728    0.211157    1.587480
      7          1           0        3.063925   -1.509318    1.542769
      8          1           0        1.320279   -1.841200   -0.242233
      9          1           0        0.949991   -0.110950   -0.197267
     10          1           0        0.606898   -1.126372    1.213589
     11          6           0        5.145359   -0.132050    0.326603
     12          6           0        6.160202    0.114161   -0.790294
     13          6           0        7.565191    0.401053   -0.259734
     14          1           0        5.116841    0.745932    0.986701
     15          1           0        5.485416   -0.975509    0.942950
     16          1           0        5.817593    0.957010   -1.404167
     17          1           0        6.185790   -0.763464   -1.448879
     18          1           0        7.931527   -0.441358    0.335869
     19          1           0        7.561238    1.288892    0.380834
     20          1           0        8.274619    0.574064   -1.074988
     21          6           0       -4.702702   -1.977920   -0.234634
     22          6           0       -3.310477   -1.966636   -0.100087
     23          6           0       -2.616686   -0.757077    0.000758
     24          6           0       -3.350107    0.427821   -0.036692
     25          6           0       -4.737582    0.449407   -0.169858
     26          6           0       -5.410564   -0.771990   -0.269029
     27          1           0       -5.233573   -2.922133   -0.312324
     28          1           0       -2.758138   -2.901642   -0.073082
     29          1           0       -1.539197   -0.719371    0.105701
     30          1           0       -5.260738    1.397647   -0.193678
     31          1           0       -6.491818   -0.777717   -0.373438
     32          7           0       -2.626636    1.714593    0.069183
     33          8           0       -3.295950    2.744829    0.033573
     34          8           0       -1.403965    1.668563    0.185773
 ---------------------------------------------------------------------

 SCF Done:  E(RHF) =  -669.535654477     A.U. after   15 cycles
 E2 =    -0.2091743237D+01 EUMP2 =    -0.67162739771379D+03

 The electronic state is 1-A.
 Alpha  occ. eigenvalues --  -20.60780 -20.60768 -15.85822 -11.31117 -11.27708
 Alpha  occ. eigenvalues --  -11.27609 -11.27448 -11.26715 -11.26684 -11.21413
 Alpha  occ. eigenvalues --  -11.21388 -11.21173 -11.21113 -11.21001 -11.20877
 Alpha  occ. eigenvalues --   -1.59849  -1.39404  -1.19298  -1.08711  -1.08214
 Alpha  occ. eigenvalues --   -1.04692  -1.03350  -0.95844  -0.95539  -0.86881
 Alpha  occ. eigenvalues --   -0.86085  -0.82386  -0.79448  -0.78029  -0.77418
 Alpha  occ. eigenvalues --   -0.72049  -0.71166  -0.70415  -0.64961  -0.64833
 Alpha  occ. eigenvalues --   -0.64699  -0.62071  -0.60715  -0.59192  -0.57428
 Alpha  occ. eigenvalues --   -0.55228  -0.55071  -0.53033  -0.52975  -0.52357
 Alpha  occ. eigenvalues --   -0.52231  -0.49761  -0.48797  -0.48770  -0.47736
 Alpha  occ. eigenvalues --   -0.46404  -0.45569  -0.45471  -0.44819  -0.43613
 Alpha  occ. eigenvalues --   -0.37291  -0.36293
 Alpha virt. eigenvalues --    0.05075   0.11339   0.16578   0.21216   0.23133
 Alpha virt. eigenvalues --    0.24440   0.26343   0.26892   0.27749   0.27904
 Alpha virt. eigenvalues --    0.29318   0.30785   0.31574   0.31791   0.31871

 Mulliken charges:
               1
     1  C   -0.299692
     2  C   -0.297606
     3  C   -0.490928
     4  H    0.154508
     5  H    0.146816
     6  H    0.158695
     7  H    0.149011
     8  H    0.147700
     9  H    0.177381
    10  H    0.153242
    11  C   -0.298627
    12  C   -0.299685
    13  C   -0.475680
    14  H    0.151471
    15  H    0.148187
    16  H    0.153410
    17  H    0.150679
    18  H    0.154303
    19  H    0.155927
    20  H    0.159820
    21  C   -0.170185
    22  C   -0.224673
    23  C   -0.181580
    24  C    0.154495
    25  C   -0.169599
    26  C   -0.219521
    27  H    0.225319
    28  H    0.223838
    29  H    0.300227
    30  H    0.275260
    31  H    0.223116
    32  N    0.488637
    33  O   -0.460157
    34  O   -0.464110
 Sum of Mulliken charges =  -0.00000

 Dipole moment (field-independent basis, Debye):
    X=             -2.5010    Y=             -4.3966    Z=             -0.3825  Tot=              5.0726
 Quadrupole moment (field-independent basis, Debye-Ang):
   XX=            -75.3222   YY=            -97.1907   ZZ=            -95.7196
   XY=             11.7214   XZ=              1.5158   YZ=             -0.1576

 Normal termination of Gaussian 16 at Wed May  5 15:36:29 2021.
