 Gaussian 16, Revision A.03,
 Gaussian 16:  EM64L-G16RevA.03 25-Dec-2016

 -------------
 #p 6-31g* mp2
 -------------

 ------------------------------------------------------
 Input file generated by CHIRIPA (05-May-2021 14:55:21)
 ------------------------------------------------------
 Symbolic Z-matrix:
 Charge =  0 Multiplicity = 1

                         Standard orientation:
 ---------------------------------------------------------------------
 Center     Atomic      Atomic             Coordinates (Angstroms)
 Number     Number       Type             X           Y           Z
 ---------------------------------------------------------------------
      1          6           0       -6.389608    0.838360    0.453016
      2          6           0       -6.090086   -0.521190    0.588773
      3          6           0       -4.801823   -0.994456    0.322416
      4          6           0       -3.832995   -0.076227   -0.079478
      5          6           0       -4.100433    1.284256   -0.223881
      6          6           0       -5.395578    1.735163    0.047836
      7          1           0       -7.393035    1.197320    0.662010
      8          1           0       -6.860069   -1.219946    0.903275
      9          1           0       -4.542604   -2.041743    0.419446
     10          1           0       -3.311875    1.956717   -0.539143
     11          1           0       -5.625326    2.791556   -0.058441
     12          7           0       -2.465526   -0.565418   -0.364296
     13          8           0       -1.629718    0.263884   -0.716886
     14          8           0       -2.255405   -1.768884   -0.229552
     15          6           0        5.783059    0.479634   -0.000823
     16          6           0        7.123826   -0.159761    0.361810
     17          6           0        8.291197    0.823599    0.272140
     18          1           0        5.842476    0.888603   -1.018743
     19          1           0        5.598214    1.331608    0.668031
     20          1           0        7.305437   -1.011126   -0.306629
     21          1           0        7.061148   -0.567426    1.378912
     22          1           0        8.136596    1.668068    0.951530
     23          1           0        8.382272    1.221846   -0.743589
     24          1           0        9.239901    0.345603    0.535464
     25          6           0        4.606370   -0.490890    0.084117
     26          6           0        3.265603    0.148505   -0.278516
     27          6           0        2.098231   -0.834855   -0.188847
     28          1           0        4.791214   -1.342865   -0.584737
     29          1           0        4.546952   -0.899858    1.102036
     30          1           0        3.328280    0.556169   -1.295619
     31          1           0        3.083992    0.999870    0.389923
     32          1           0        2.007156   -1.233103    0.826883
     33          1           0        2.252833   -1.679325   -0.868236
     34          1           0        1.149528   -0.356859   -0.452171
 ---------------------------------------------------------------------

 SCF Done:  E(RHF) =  -669.536472136     A.U. after   15 cycles
 E2 =    -0.2090930872D+01 EUMP2 =    -0.67162740300850D+03

 The electronic state is 1-A.
 Alpha  occ. eigenvalues --  -20.61005 -20.60985 -15.86012 -11.31321 -11.27879
 Alpha  occ. eigenvalues --  -11.27875 -11.27613 -11.26882 -11.26872 -11.20974
 Alpha  occ. eigenvalues --  -11.20605 -11.20560 -11.20382 -11.20288 -11.19172
 Alpha  occ. eigenvalues --   -1.60041  -1.39600  -1.19484  -1.08892  -1.07507
 Alpha  occ. eigenvalues --   -1.04877  -1.02496  -0.95736  -0.94910  -0.86279
 Alpha  occ. eigenvalues --   -0.85920  -0.82570  -0.78602  -0.77625  -0.77280
 Alpha  occ. eigenvalues --   -0.72229  -0.71351  -0.70592  -0.65140  -0.64880
 Alpha  occ. eigenvalues --   -0.64156  -0.62224  -0.59915  -0.58347  -0.56499
 Alpha  occ. eigenvalues --   -0.55381  -0.54229  -0.53210  -0.52970  -0.51565
 Alpha  occ. eigenvalues --   -0.51348  -0.48979  -0.48937  -0.48894  -0.46871
 Alpha  occ. eigenvalues --   -0.45683  -0.45016  -0.44812  -0.44743  -0.42683
 Alpha  occ. eigenvalues --   -0.37463  -0.36477
 Alpha virt. eigenvalues --    0.04903   0.11178   0.16404   0.21315   0.23705
 Alpha virt. eigenvalues --    0.25428   0.27234   0.27504   0.28189   0.28353
 Alpha virt. eigenvalues --    0.29178   0.30877   0.32371   0.32408   0.32593

 Mulliken charges:
               1
     1  C   -0.170525
     2  C   -0.218606
     3  C   -0.170624
     4  C    0.157948
     5  C   -0.170735
     6  C   -0.218560
     7  H    0.226079
     8  H    0.223926
     9  H    0.276027
    10  H    0.275849
    11  H    0.223913
    12  N    0.489327
    13  O   -0.460161
    14  O   -0.457664
    15  C   -0.297230
    16  C   -0.298871
    17  C   -0.475145
    18  H    0.148289
    19  H    0.147642
    20  H    0.151239
    21  H    0.150911
    22  H    0.154085
    23  H    0.154373
    24  H    0.158348
    25  C   -0.296852
    26  C   -0.299234
    27  C   -0.485814
    28  H    0.148071
    29  H    0.147538
    30  H    0.148989
    31  H    0.147732
    32  H    0.148760
    33  H    0.150578
    34  H    0.190395
 Sum of Mulliken charges =  -0.00000

 Dipole moment (field-independent basis, Debye):
    X=             -5.2763    Y=              1.7123    Z=              0.9661  Tot=              5.6307
 Quadrupole moment (field-independent basis, Debye-Ang):
   XX=            -60.2697   YY=            -91.0996   ZZ=            -94.6453
   XY=             -5.4260   XZ=             -4.1974   YZ=             -1.1507

 Normal termination of Gaussian 16 at Thu May  6 07:44:47 2021.
