 Gaussian 16, Revision A.03,
 Gaussian 16:  EM64L-G16RevA.03 25-Dec-2016

 -------------
 #p 6-31g* mp2
 -------------

 ------------------------------------------------------
 Input file generated by CHIRIPA (05-May-2021 14:51:13)
 ------------------------------------------------------
 Symbolic Z-matrix:
 Charge =  0 Multiplicity = 1

                         Standard orientation:
 ---------------------------------------------------------------------
 Center     Atomic      Atomic             Coordinates (Angstroms)
 Number     Number       Type             X           Y           Z
 ---------------------------------------------------------------------
      1          6           0       -4.760896    0.017788   -0.048951
      2          6           0       -5.608474   -1.236122   -0.266450
      3          6           0       -7.032804   -0.915440   -0.720587
      4          1           0       -5.249937    0.658219    0.697798
      5          1           0       -4.727585    0.595907   -0.982794
      6          1           0       -5.639034   -1.812407    0.667134
      7          1           0       -5.117262   -1.873732   -1.012626
      8          1           0       -7.020529   -0.360602   -1.664306
      9          1           0       -7.545266   -0.298928    0.024998
     10          1           0       -7.621140   -1.826138   -0.870090
     11          6           0       -3.334417   -0.286481    0.405256
     12          6           0       -2.486839    0.967429    0.622755
     13          6           0       -1.062509    0.646747    1.076893
     14          1           0       -3.367728   -0.864600    1.339099
     15          1           0       -2.845376   -0.926912   -0.341492
     16          1           0       -2.978051    1.605040    1.368931
     17          1           0       -2.456279    1.543714   -0.310828
     18          1           0       -0.550047    0.030235    0.331308
     19          1           0       -1.074784    0.091909    2.020611
     20          1           0       -0.474173    1.557445    1.226395
     21          6           0        3.825133    0.795992   -0.488217
     22          6           0        2.491742    1.304755    0.060615
     23          6           0        2.059937    2.629316   -0.569366
     24          1           0        4.599537    1.555747   -0.314964
     25          1           0        3.743428    0.675663   -1.577364
     26          1           0        2.575510    1.422769    1.148581
     27          1           0        1.720464    0.543620   -0.113794
     28          1           0        1.948583    2.522210   -1.653217
     29          1           0        2.808488    3.406354   -0.383668
     30          1           0        1.104346    2.974669   -0.162628
     31          6           0        4.270180   -0.527300    0.131912
     32          6           0        5.603571   -1.036062   -0.416920
     33          6           0        6.035376   -2.360623    0.213061
     34          1           0        4.351884   -0.406971    1.221058
     35          1           0        3.495777   -1.287054   -0.041342
     36          1           0        6.374849   -0.274927   -0.242511
     37          1           0        5.519803   -1.154077   -1.504886
     38          1           0        5.286826   -3.137661    0.027363
     39          1           0        6.146730   -2.253517    1.296911
     40          1           0        6.990967   -2.705977   -0.193678
 ---------------------------------------------------------------------

 SCF Done:  E(RHF) =  -470.732283294     A.U. after   11 cycles
 E2 =    -0.1583263901D+01 EUMP2 =    -0.47231554719541D+03

 The electronic state is 1-A.
 Alpha  occ. eigenvalues --  -11.21606 -11.21589 -11.21569 -11.21460 -11.21408
 Alpha  occ. eigenvalues --  -11.21349 -11.21349 -11.21284 -11.21074 -11.21046
 Alpha  occ. eigenvalues --  -11.21026 -11.21019  -1.08437  -1.08369  -1.03568
 Alpha  occ. eigenvalues --   -1.03441  -0.96037  -0.95881  -0.87005  -0.86950
 Alpha  occ. eigenvalues --   -0.79699  -0.79449  -0.78269  -0.78151  -0.65097
 Alpha  occ. eigenvalues --   -0.64981  -0.61057  -0.60776  -0.59646  -0.59086
 Alpha  occ. eigenvalues --   -0.57726  -0.57396  -0.55338  -0.55144  -0.52815
 Alpha  occ. eigenvalues --   -0.52521  -0.52492  -0.52201  -0.50019  -0.49809
 Alpha  occ. eigenvalues --   -0.48032  -0.47746  -0.46777  -0.46422  -0.45851
 Alpha  occ. eigenvalues --   -0.45730  -0.45689  -0.45503  -0.43756  -0.43729
 Alpha virt. eigenvalues --    0.21726   0.23077   0.23425   0.25221   0.25732
 Alpha virt. eigenvalues --    0.26718   0.26881   0.27137   0.27865   0.29188
 Alpha virt. eigenvalues --    0.29768   0.30998   0.31568   0.31810   0.32369

 Mulliken charges:
               1
     1  C   -0.298235
     2  C   -0.299634
     3  C   -0.475704
     4  H    0.149689
     5  H    0.149533
     6  H    0.151932
     7  H    0.151852
     8  H    0.155187
     9  H    0.155201
    10  H    0.160248
    11  C   -0.298518
    12  C   -0.300225
    13  C   -0.479414
    14  H    0.149579
    15  H    0.149451
    16  H    0.151690
    17  H    0.151980
    18  H    0.156291
    19  H    0.154941
    20  H    0.165166
    21  C   -0.298120
    22  C   -0.302917
    23  C   -0.478435
    24  H    0.149074
    25  H    0.148834
    26  H    0.151220
    27  H    0.158572
    28  H    0.154646
    29  H    0.154997
    30  H    0.161589
    31  C   -0.298033
    32  C   -0.299566
    33  C   -0.475659
    34  H    0.149574
    35  H    0.149229
    36  H    0.151897
    37  H    0.151732
    38  H    0.155081
    39  H    0.155165
    40  H    0.160111
 Sum of Mulliken charges =  -0.00000

 Dipole moment (field-independent basis, Debye):
    X=             -0.0241    Y=             -0.0062    Z=              0.0164  Tot=              0.0298
 Quadrupole moment (field-independent basis, Debye-Ang):
   XX=            -86.0192   YY=            -85.5152   ZZ=            -83.5202
   XY=              0.7178   XZ=             -0.4015   YZ=              0.8193

 Normal termination of Gaussian 16 at Wed May  5 15:19:14 2021.
