 Gaussian 16, Revision A.03,
 Gaussian 16:  EM64L-G16RevA.03 25-Dec-2016

 -------------
 #p 6-31g* mp2
 -------------

 ------------------------------------------------------
 Input file generated by CHIRIPA (05-May-2021 14:53:13)
 ------------------------------------------------------
 Symbolic Z-matrix:
 Charge =  0 Multiplicity = 1

                         Standard orientation:
 ---------------------------------------------------------------------
 Center     Atomic      Atomic             Coordinates (Angstroms)
 Number     Number       Type             X           Y           Z
 ---------------------------------------------------------------------
      1          6           0       -3.109730   -0.267447    0.106912
      2          6           0       -2.650091   -1.618600   -0.441816
      3          6           0       -3.456910   -2.789924    0.119288
      4          1           0       -3.030426   -0.277681    1.202609
      5          1           0       -4.173866   -0.126898   -0.128155
      6          1           0       -1.586790   -1.755948   -0.206992
      7          1           0       -2.730318   -1.605081   -1.536346
      8          1           0       -4.517925   -2.680049   -0.127240
      9          1           0       -3.367900   -2.831773    1.209668
     10          1           0       -3.111636   -3.746061   -0.286232
     11          6           0       -2.312684    0.913295   -0.444716
     12          6           0       -2.772323    2.264448    0.104012
     13          6           0       -1.965505    3.435772   -0.457092
     14          1           0       -1.248549    0.772747   -0.209649
     15          1           0       -2.391989    0.923529   -1.540413
     16          1           0       -2.692097    2.250929    1.198542
     17          1           0       -3.835625    2.401796   -0.130812
     18          1           0       -2.054515    3.477622   -1.547472
     19          1           0       -0.904490    3.325898   -0.210564
     20          1           0       -2.310779    4.391910   -0.051572
     21          6           0        1.665006   -0.111292    2.610002
     22          6           0        1.036025   -1.093725    1.838166
     23          6           0        1.279616   -1.181194    0.464282
     24          6           0        2.161937   -0.265915   -0.107613
     25          6           0        2.803965    0.724131    0.634612
     26          6           0        2.545417    0.792905    2.006825
     27          1           0        1.469969   -0.050606    3.676621
     28          1           0        0.351810   -1.797269    2.303914
     29          1           0        0.806230   -1.931854   -0.156873
     30          1           0        3.481008    1.411424    0.142005
     31          1           0        3.035313    1.556913    2.603767
     32          7           0        2.427733   -0.348618   -1.561200
     33          8           0        3.209295    0.469594   -2.041126
     34          8           0        1.849470   -1.230088   -2.193071
 ---------------------------------------------------------------------

 SCF Done:  E(RHF) =  -669.535153812     A.U. after   15 cycles
 E2 =    -0.2093284817D+01 EUMP2 =    -0.67162843862875D+03

 The electronic state is 1-A.
 Alpha  occ. eigenvalues --  -20.60807 -20.60801 -15.85864 -11.31280 -11.27850
 Alpha  occ. eigenvalues --  -11.27843 -11.27595 -11.26879 -11.26863 -11.21876
 Alpha  occ. eigenvalues --  -11.21672 -11.21590 -11.21406 -11.21375 -11.21083
 Alpha  occ. eigenvalues --   -1.59882  -1.39433  -1.19462  -1.08839  -1.08579
 Alpha  occ. eigenvalues --   -1.04872  -1.03700  -0.96137  -0.95668  -0.87154
 Alpha  occ. eigenvalues --   -0.86259  -0.82500  -0.79773  -0.78384  -0.77531
 Alpha  occ. eigenvalues --   -0.72081  -0.71206  -0.70566  -0.65265  -0.65088
 Alpha  occ. eigenvalues --   -0.64857  -0.62254  -0.61074  -0.59506  -0.57744
 Alpha  occ. eigenvalues --   -0.55443  -0.55353  -0.53217  -0.52975  -0.52823
 Alpha  occ. eigenvalues --   -0.52547  -0.50082  -0.48844  -0.48833  -0.48073
 Alpha  occ. eigenvalues --   -0.46813  -0.45909  -0.45830  -0.44822  -0.43935
 Alpha  occ. eigenvalues --   -0.37430  -0.36424
 Alpha virt. eigenvalues --    0.04957   0.11133   0.16388   0.20410   0.22909
 Alpha virt. eigenvalues --    0.23969   0.25790   0.26781   0.27741   0.27929
 Alpha virt. eigenvalues --    0.28619   0.30413   0.31388   0.31607   0.32177

 Mulliken charges:
               1
     1  C   -0.297111
     2  C   -0.302421
     3  C   -0.476021
     4  H    0.144510
     5  H    0.150959
     6  H    0.144187
     7  H    0.159848
     8  H    0.158168
     9  H    0.149837
    10  H    0.161540
    11  C   -0.302179
    12  C   -0.299140
    13  C   -0.475816
    14  H    0.152080
    15  H    0.154116
    16  H    0.148545
    17  H    0.152014
    18  H    0.158359
    19  H    0.154732
    20  H    0.159141
    21  C   -0.171008
    22  C   -0.218670
    23  C   -0.172481
    24  C    0.158990
    25  C   -0.171470
    26  C   -0.218408
    27  H    0.226100
    28  H    0.224536
    29  H    0.278750
    30  H    0.276167
    31  H    0.224011
    32  N    0.488095
    33  O   -0.460274
    34  O   -0.459687
 Sum of Mulliken charges =  -0.00000

 Dipole moment (field-independent basis, Debye):
    X=             -0.9014    Y=              0.3170    Z=              5.0231  Tot=              5.1132
 Quadrupole moment (field-independent basis, Debye-Ang):
   XX=            -97.0496   YY=            -93.1963   ZZ=            -95.8351
   XY=              3.2224   XZ=             12.5851   YZ=             -0.8017

 Normal termination of Gaussian 16 at Thu May  6 04:09:36 2021.
