 Gaussian 16, Revision A.03,
 Gaussian 16:  EM64L-G16RevA.03 25-Dec-2016

 -------------
 #p 6-31g* mp2
 -------------

 ------------------------------------------------------
 Input file generated by CHIRIPA (05-May-2021 14:55:24)
 ------------------------------------------------------
 Symbolic Z-matrix:
 Charge =  0 Multiplicity = 1

                         Standard orientation:
 ---------------------------------------------------------------------
 Center     Atomic      Atomic             Coordinates (Angstroms)
 Number     Number       Type             X           Y           Z
 ---------------------------------------------------------------------
      1          6           0       -1.488115   -2.193633    1.054141
      2          6           0       -2.821087   -1.960733    1.408349
      3          6           0       -3.536828   -0.909599    0.827505
      4          6           0       -2.885540   -0.107386   -0.108213
      5          6           0       -1.558518   -0.313990   -0.481867
      6          6           0       -0.862188   -1.370968    0.111825
      7          1           0       -0.939650   -3.012449    1.510345
      8          1           0       -3.309749   -2.598013    2.139874
      9          1           0       -4.569699   -0.706849    1.083413
     10          1           0       -1.098354    0.338267   -1.214143
     11          1           0        0.172919   -1.549488   -0.165177
     12          7           0       -3.632988    1.008496   -0.729927
     13          8           0       -3.036442    1.700908   -1.551715
     14          8           0       -4.801231    1.169584   -0.383666
     15          6           0        4.031270   -0.203820   -0.066075
     16          6           0        3.454130   -1.407968   -0.811006
     17          6           0        4.457267   -2.553487   -0.949913
     18          1           0        4.925762    0.152346   -0.595202
     19          1           0        4.364488   -0.523565    0.930983
     20          1           0        3.120833   -1.085756   -1.805847
     21          1           0        2.560797   -1.761189   -0.280151
     22          1           0        4.781990   -2.902817    0.035545
     23          1           0        5.345208   -2.223547   -1.498821
     24          1           0        4.023893   -3.403909   -1.485476
     25          6           0        3.040350    0.949540    0.080787
     26          6           0        3.617489    2.153687    0.825718
     27          6           0        2.614352    3.299206    0.964624
     28          1           0        2.707132    1.269284   -0.916272
     29          1           0        2.145857    0.593374    0.609913
     30          1           0        4.510822    2.506908    0.294862
     31          1           0        3.950786    1.831476    1.820560
     32          1           0        1.726411    2.969265    1.513533
     33          1           0        2.289629    3.648536   -0.020832
     34          1           0        3.047727    4.149628    1.500188
 ---------------------------------------------------------------------

 SCF Done:  E(RHF) =  -669.535685583     A.U. after   15 cycles
 E2 =    -0.2091545135D+01 EUMP2 =    -0.67162723071792D+03

 The electronic state is 1-A.
 Alpha  occ. eigenvalues --  -20.60725 -20.60720 -15.85778 -11.31138 -11.27716
 Alpha  occ. eigenvalues --  -11.27695 -11.27453 -11.26732 -11.26675 -11.22592
 Alpha  occ. eigenvalues --  -11.22097 -11.22027 -11.21970 -11.21842 -11.21283
 Alpha  occ. eigenvalues --   -1.59800  -1.39354  -1.19312  -1.09102  -1.08709
 Alpha  occ. eigenvalues --   -1.04711  -1.04139  -0.96549  -0.95544  -0.87568
 Alpha  occ. eigenvalues --   -0.86114  -0.82376  -0.80247  -0.78916  -0.77414
 Alpha  occ. eigenvalues --   -0.71996  -0.71123  -0.70424  -0.65764  -0.64962
 Alpha  occ. eigenvalues --   -0.64700  -0.62078  -0.61515  -0.59946  -0.58170
 Alpha  occ. eigenvalues --   -0.55820  -0.55222  -0.53262  -0.53055  -0.52970
 Alpha  occ. eigenvalues --   -0.52796  -0.50493  -0.48772  -0.48751  -0.48514
 Alpha  occ. eigenvalues --   -0.47281  -0.46422  -0.46337  -0.44760  -0.44396
 Alpha  occ. eigenvalues --   -0.37298  -0.36309
 Alpha virt. eigenvalues --    0.05100   0.11308   0.16528   0.19726   0.22714
 Alpha virt. eigenvalues --    0.23688   0.24828   0.26081   0.27458   0.28213
 Alpha virt. eigenvalues --    0.29421   0.30166   0.31121   0.31380   0.32070

 Mulliken charges:
               1
     1  C   -0.173544
     2  C   -0.218576
     3  C   -0.171202
     4  C    0.158796
     5  C   -0.173678
     6  C   -0.227716
     7  H    0.225340
     8  H    0.223157
     9  H    0.275426
    10  H    0.276721
    11  H    0.237280
    12  N    0.488068
    13  O   -0.460355
    14  O   -0.460734
    15  C   -0.297802
    16  C   -0.305666
    17  C   -0.475334
    18  H    0.153699
    19  H    0.150720
    20  H    0.154158
    21  H    0.143501
    22  H    0.156263
    23  H    0.159500
    24  H    0.160750
    25  C   -0.301660
    26  C   -0.299999
    27  C   -0.476734
    28  H    0.150377
    29  H    0.146662
    30  H    0.153664
    31  H    0.152211
    32  H    0.156424
    33  H    0.158148
    34  H    0.162137
 Sum of Mulliken charges =  -0.00000

 Dipole moment (field-independent basis, Debye):
    X=              2.8210    Y=             -3.8462    Z=              2.1758  Tot=              5.2427
 Quadrupole moment (field-independent basis, Debye-Ang):
   XX=           -106.4240   YY=            -94.7015   ZZ=            -93.5784
   XY=             13.0421   XZ=             -9.4791   YZ=             -1.0831

 Normal termination of Gaussian 16 at Thu May  6 16:01:17 2021.
