 Gaussian 16, Revision A.03,
 Gaussian 16:  EM64L-G16RevA.03 25-Dec-2016

 -------------
 #p 6-31g* mp2
 -------------

 ------------------------------------------------------
 Input file generated by CHIRIPA (05-May-2021 14:55:23)
 ------------------------------------------------------
 Symbolic Z-matrix:
 Charge =  0 Multiplicity = 1

                         Standard orientation:
 ---------------------------------------------------------------------
 Center     Atomic      Atomic             Coordinates (Angstroms)
 Number     Number       Type             X           Y           Z
 ---------------------------------------------------------------------
      1          6           0       -1.537803    2.495298    0.640149
      2          6           0       -2.936026    2.466295    0.614600
      3          6           0       -3.614919    1.315473    0.203186
      4          6           0       -2.860646    0.206741   -0.177703
      5          6           0       -1.466704    0.204655   -0.163114
      6          6           0       -0.808890    1.366376    0.251895
      7          1           0       -1.018610    3.393518    0.961142
      8          1           0       -3.504703    3.341547    0.915575
      9          1           0       -4.696619    1.265681    0.173819
     10          1           0       -0.927144   -0.683472   -0.468928
     11          1           0        0.277068    1.386035    0.270731
     12          7           0       -3.568202   -1.017352   -0.615152
     13          8           0       -2.880617   -1.980947   -0.945829
     14          8           0       -4.796971   -0.990021   -0.619065
     15          6           0        3.923812   -0.244747   -0.445161
     16          6           0        4.975254    0.775982   -0.008623
     17          6           0        5.790302    1.323258   -1.180793
     18          1           0        4.421285   -1.073975   -0.966551
     19          1           0        3.249116    0.223575   -1.175131
     20          1           0        5.646930    0.306289    0.721346
     21          1           0        4.475241    1.602784    0.511955
     22          1           0        5.136693    1.816605   -1.907433
     23          1           0        6.315039    0.512744   -1.696852
     24          1           0        6.535951    2.051179   -0.846131
     25          6           0        3.100910   -0.800978    0.715514
     26          6           0        2.049468   -1.821708    0.278975
     27          6           0        1.234421   -2.368984    1.451144
     28          1           0        3.775605   -1.269300    1.445483
     29          1           0        2.603437    0.028250    1.236902
     30          1           0        2.549481   -2.648509   -0.241603
     31          1           0        1.377791   -1.352014   -0.450994
     32          1           0        0.709683   -1.558469    1.967203
     33          1           0        1.888028   -2.862331    2.177784
     34          1           0        0.488770   -3.096904    1.116484
 ---------------------------------------------------------------------

 SCF Done:  E(RHF) =  -669.535406324     A.U. after   15 cycles
 E2 =    -0.2092417126D+01 EUMP2 =    -0.67162782345052D+03

 The electronic state is 1-A.
 Alpha  occ. eigenvalues --  -20.60757 -20.60752 -15.85808 -11.31166 -11.27753
 Alpha  occ. eigenvalues --  -11.27718 -11.27501 -11.26767 -11.26755 -11.22280
 Alpha  occ. eigenvalues --  -11.22202 -11.22118 -11.22019 -11.21563 -11.21440
 Alpha  occ. eigenvalues --   -1.59830  -1.39384  -1.19350  -1.09093  -1.08746
 Alpha  occ. eigenvalues --   -1.04762  -1.04105  -0.96530  -0.95579  -0.87536
 Alpha  occ. eigenvalues --   -0.86152  -0.82416  -0.80172  -0.78905  -0.77464
 Alpha  occ. eigenvalues --   -0.72029  -0.71152  -0.70476  -0.65791  -0.64998
 Alpha  occ. eigenvalues --   -0.64766  -0.62273  -0.61330  -0.59878  -0.58130
 Alpha  occ. eigenvalues --   -0.55845  -0.55249  -0.53179  -0.53082  -0.52933
 Alpha  occ. eigenvalues --   -0.52832  -0.50481  -0.48787  -0.48786  -0.48460
 Alpha  occ. eigenvalues --   -0.47237  -0.46420  -0.46394  -0.44791  -0.44365
 Alpha  occ. eigenvalues --   -0.37335  -0.36349
 Alpha virt. eigenvalues --    0.05055   0.11281   0.16479   0.18347   0.22716
 Alpha virt. eigenvalues --    0.23669   0.25258   0.25770   0.27102   0.28482
 Alpha virt. eigenvalues --    0.29331   0.30613   0.31334   0.31446   0.32257

 Mulliken charges:
               1
     1  C   -0.170934
     2  C   -0.218821
     3  C   -0.170275
     4  C    0.159941
     5  C   -0.178991
     6  C   -0.225002
     7  H    0.225662
     8  H    0.223451
     9  H    0.275610
    10  H    0.285365
    11  H    0.227109
    12  N    0.487958
    13  O   -0.460490
    14  O   -0.460473
    15  C   -0.299212
    16  C   -0.299262
    17  C   -0.475999
    18  H    0.154087
    19  H    0.146291
    20  H    0.154344
    21  H    0.148029
    22  H    0.154823
    23  H    0.157490
    24  H    0.161554
    25  C   -0.299961
    26  C   -0.304463
    27  C   -0.481329
    28  H    0.154511
    29  H    0.142681
    30  H    0.159205
    31  H    0.143820
    32  H    0.153405
    33  H    0.158099
    34  H    0.171774
 Sum of Mulliken charges =  -0.00000

 Dipole moment (field-independent basis, Debye):
    X=              2.6202    Y=              4.1619    Z=              1.5600  Tot=              5.1594
 Quadrupole moment (field-independent basis, Debye-Ang):
   XX=           -104.5508   YY=            -91.6108   ZZ=            -96.5757
   XY=            -15.4006   XZ=             -5.1201   YZ=              0.1303

 Normal termination of Gaussian 16 at Thu May  6 12:38:32 2021.
