 Gaussian 16, Revision A.03,
 Gaussian 16:  EM64L-G16RevA.03 25-Dec-2016

 -------------
 #p 6-31g* mp2
 -------------

 ------------------------------------------------------
 Input file generated by CHIRIPA (05-May-2021 14:51:13)
 ------------------------------------------------------
 Symbolic Z-matrix:
 Charge =  0 Multiplicity = 1

                         Standard orientation:
 ---------------------------------------------------------------------
 Center     Atomic      Atomic             Coordinates (Angstroms)
 Number     Number       Type             X           Y           Z
 ---------------------------------------------------------------------
      1          6           0       -2.572317   -0.879837    0.021144
      2          6           0       -2.266395   -1.674305    1.291270
      3          6           0       -1.384177   -2.894817    1.027007
      4          1           0       -3.064733   -1.539330   -0.706551
      5          1           0       -1.627423   -0.557899   -0.438122
      6          1           0       -3.211626   -1.993469    1.748751
      7          1           0       -1.774823   -1.012794    2.016099
      8          1           0       -0.426521   -2.591018    0.592032
      9          1           0       -1.871488   -3.577265    0.323165
     10          1           0       -1.177938   -3.448188    1.948476
     11          6           0       -3.453305    0.343314    0.269112
     12          6           0       -3.759226    1.137781   -1.001013
     13          6           0       -4.641445    2.358293   -0.736750
     14          1           0       -4.398199    0.021375    0.728379
     15          1           0       -2.960889    1.002807    0.996808
     16          1           0       -4.250799    0.476271   -1.725842
     17          1           0       -2.813995    1.456945   -1.458495
     18          1           0       -4.154133    3.040741   -0.032909
     19          1           0       -5.599100    2.054495   -0.301775
     20          1           0       -4.847684    2.911664   -1.658220
     21          6           0        2.696395    0.922889    0.088913
     22          6           0        3.717255    2.031640    0.346797
     23          6           0        3.068950    3.335032    0.814412
     24          1           0        1.974447    1.265986   -0.664760
     25          1           0        2.124370    0.739485    1.008992
     26          1           0        4.288124    2.211941   -0.573103
     27          1           0        4.436968    1.685793    1.099803
     28          1           0        2.514552    3.177256    1.745190
     29          1           0        2.364861    3.706394    0.062780
     30          1           0        3.816816    4.113952    0.992850
     31          6           0        3.329226   -0.386366   -0.379169
     32          6           0        2.308367   -1.495116   -0.637054
     33          6           0        2.956671   -2.798508   -1.104668
     34          1           0        3.901251   -0.202962   -1.299248
     35          1           0        4.051174   -0.729463    0.374503
     36          1           0        1.588653   -1.149269   -1.390059
     37          1           0        1.737498   -1.675417    0.282847
     38          1           0        3.660760   -3.169870   -0.353036
     39          1           0        3.511069   -2.640733   -2.035447
     40          1           0        2.208804   -3.577428   -1.283106
 ---------------------------------------------------------------------

 SCF Done:  E(RHF) =  -470.733320494     A.U. after   11 cycles
 E2 =    -0.1582889983D+01 EUMP2 =    -0.47231621047638D+03

 The electronic state is 1-A.
 Alpha  occ. eigenvalues --  -11.21660 -11.21649 -11.21584 -11.21566 -11.21464
 Alpha  occ. eigenvalues --  -11.21403 -11.21370 -11.21309 -11.21115 -11.21100
 Alpha  occ. eigenvalues --  -11.21056 -11.20990  -1.08489  -1.08395  -1.03588
 Alpha  occ. eigenvalues --   -1.03491  -0.96028  -0.95941  -0.87042  -0.86962
 Alpha  occ. eigenvalues --   -0.79691  -0.79528  -0.78328  -0.78187  -0.65134
 Alpha  occ. eigenvalues --   -0.65015  -0.61053  -0.60843  -0.59412  -0.59299
 Alpha  occ. eigenvalues --   -0.57693  -0.57507  -0.55343  -0.55199  -0.52718
 Alpha  occ. eigenvalues --   -0.52640  -0.52448  -0.52371  -0.50032  -0.49850
 Alpha  occ. eigenvalues --   -0.48069  -0.47798  -0.46766  -0.46511  -0.45940
 Alpha  occ. eigenvalues --   -0.45764  -0.45720  -0.45509  -0.43832  -0.43752
 Alpha virt. eigenvalues --    0.21236   0.23286   0.23431   0.24770   0.25730
 Alpha virt. eigenvalues --    0.26249   0.27018   0.27545   0.28525   0.28988
 Alpha virt. eigenvalues --    0.30598   0.31157   0.31702   0.31767   0.32073

 Mulliken charges:
               1
     1  C   -0.299279
     2  C   -0.298851
     3  C   -0.484358
     4  H    0.149364
     5  H    0.150859
     6  H    0.151738
     7  H    0.151286
     8  H    0.164379
     9  H    0.154818
    10  H    0.159480
    11  C   -0.298272
    12  C   -0.299552
    13  C   -0.475709
    14  H    0.149397
    15  H    0.149752
    16  H    0.151824
    17  H    0.151711
    18  H    0.155269
    19  H    0.155155
    20  H    0.160109
    21  C   -0.298491
    22  C   -0.299657
    23  C   -0.475763
    24  H    0.149261
    25  H    0.149218
    26  H    0.152159
    27  H    0.152177
    28  H    0.155108
    29  H    0.155123
    30  H    0.160516
    31  C   -0.297533
    32  C   -0.305685
    33  C   -0.476474
    34  H    0.149816
    35  H    0.149957
    36  H    0.152360
    37  H    0.156260
    38  H    0.155430
    39  H    0.155458
    40  H    0.161640
 Sum of Mulliken charges =  -0.00000

 Dipole moment (field-independent basis, Debye):
    X=              0.0464    Y=             -0.0003    Z=             -0.0124  Tot=              0.0480
 Quadrupole moment (field-independent basis, Debye-Ang):
   XX=            -84.5598   YY=            -86.2414   ZZ=            -83.9505
   XY=              1.2922   XZ=              0.3660   YZ=             -0.5340

 Normal termination of Gaussian 16 at Wed May  5 16:51:42 2021.
