 Gaussian 16, Revision A.03,
 Gaussian 16:  EM64L-G16RevA.03 25-Dec-2016

 -------------
 #p 6-31g* mp2
 -------------

 ------------------------------------------------------
 Input file generated by CHIRIPA (05-May-2021 14:55:22)
 ------------------------------------------------------
 Symbolic Z-matrix:
 Charge =  0 Multiplicity = 1

                         Standard orientation:
 ---------------------------------------------------------------------
 Center     Atomic      Atomic             Coordinates (Angstroms)
 Number     Number       Type             X           Y           Z
 ---------------------------------------------------------------------
      1          6           0        3.034909    0.123946    0.700366
      2          6           0        2.720656    0.018483   -0.658547
      3          6           0        1.654587   -0.781375   -1.080768
      4          6           0        0.920557   -1.464994   -0.112700
      5          6           0        1.208935   -1.380271    1.248531
      6          6           0        2.279377   -0.574536    1.647897
      7          1           0        3.864755    0.747577    1.019481
      8          1           0        3.305681    0.559796   -1.396633
      9          1           0        1.389492   -0.880979   -2.126340
     10          1           0        0.607505   -1.931862    1.960884
     11          1           0        2.521143   -0.494515    2.703923
     12          7           0       -0.210358   -2.314878   -0.547589
     13          8           0       -0.841632   -2.907030    0.325042
     14          8           0       -0.444080   -2.372774   -1.752852
     15          6           0       -0.758169    2.006480    0.282858
     16          6           0       -0.152719    2.970639   -0.737835
     17          6           0        1.164824    3.583862   -0.262616
     18          1           0       -0.920569    2.539407    1.229726
     19          1           0       -0.035493    1.206273    0.494528
     20          1           0       -0.876863    3.768026   -0.948556
     21          1           0        0.008081    2.435403   -1.682442
     22          1           0        1.906586    2.801868   -0.070592
     23          1           0        1.016614    4.142063    0.667463
     24          1           0        1.580106    4.269841   -1.007487
     25          6           0       -2.075611    1.385322   -0.177834
     26          6           0       -2.681061    0.421163    0.842859
     27          6           0       -3.998603   -0.192061    0.367641
     28          1           0       -2.798287    2.185529   -0.389504
     29          1           0       -1.913211    0.852395   -1.124702
     30          1           0       -2.841861    0.956399    1.787466
     31          1           0       -1.956916   -0.376225    1.053581
     32          1           0       -3.850394   -0.750261   -0.562439
     33          1           0       -4.740367    0.589934    0.175617
     34          1           0       -4.413886   -0.878040    1.112512
 ---------------------------------------------------------------------

 SCF Done:  E(RHF) =  -669.534408212     A.U. after   15 cycles
 E2 =    -0.2098504473D+01 EUMP2 =    -0.67163291268514D+03

 The electronic state is 1-A.
 Alpha  occ. eigenvalues --  -20.61069 -20.61062 -15.86073 -11.31407 -11.27977
 Alpha  occ. eigenvalues --  -11.27969 -11.27720 -11.27001 -11.26989 -11.21621
 Alpha  occ. eigenvalues --  -11.21256 -11.21104 -11.21031 -11.20961 -11.20256
 Alpha  occ. eigenvalues --   -1.60116  -1.39673  -1.19625  -1.09009  -1.08159
 Alpha  occ. eigenvalues --   -1.05003  -1.03238  -0.95855  -0.95672  -0.86727
 Alpha  occ. eigenvalues --   -0.86381  -0.82664  -0.79353  -0.77950  -0.77716
 Alpha  occ. eigenvalues --   -0.72303  -0.71475  -0.70697  -0.65254  -0.64996
 Alpha  occ. eigenvalues --   -0.64829  -0.62340  -0.60669  -0.59109  -0.57291
 Alpha  occ. eigenvalues --   -0.55489  -0.55042  -0.53407  -0.53072  -0.52379
 Alpha  occ. eigenvalues --   -0.52126  -0.49667  -0.49073  -0.49059  -0.47625
 Alpha  occ. eigenvalues --   -0.46412  -0.45546  -0.45419  -0.44684  -0.43474
 Alpha  occ. eigenvalues --   -0.37525  -0.36578
 Alpha virt. eigenvalues --    0.04756   0.10900   0.16198   0.20894   0.23076
 Alpha virt. eigenvalues --    0.24396   0.26587   0.27134   0.27520   0.28183
 Alpha virt. eigenvalues --    0.28581   0.30858   0.31715   0.31965   0.32330

 Mulliken charges:
               1
     1  C   -0.171123
     2  C   -0.215927
     3  C   -0.172468
     4  C    0.159576
     5  C   -0.175102
     6  C   -0.215756
     7  H    0.228074
     8  H    0.226229
     9  H    0.276461
    10  H    0.276837
    11  H    0.225349
    12  N    0.489079
    13  O   -0.457436
    14  O   -0.458454
    15  C   -0.305684
    16  C   -0.296280
    17  C   -0.480192
    18  H    0.146131
    19  H    0.158655
    20  H    0.152707
    21  H    0.147887
    22  H    0.151813
    23  H    0.154376
    24  H    0.157139
    25  C   -0.302316
    26  C   -0.305101
    27  C   -0.474567
    28  H    0.148655
    29  H    0.152783
    30  H    0.147140
    31  H    0.154819
    32  H    0.165032
    33  H    0.149970
    34  H    0.161696
 Sum of Mulliken charges =  -0.00000

 Dipole moment (field-independent basis, Debye):
    X=              4.0682    Y=              2.6724    Z=              1.5186  Tot=              5.0988
 Quadrupole moment (field-independent basis, Debye-Ang):
   XX=            -88.2967   YY=           -104.2467   ZZ=            -90.4360
   XY=             -3.5576   XZ=             -0.1448   YZ=             -3.6930

 Normal termination of Gaussian 16 at Thu May  6 01:29:08 2021.
