 Gaussian 16, Revision A.03,
 Gaussian 16:  EM64L-G16RevA.03 25-Dec-2016

 -------------
 #p 6-31g* mp2
 -------------

 ------------------------------------------------------
 Input file generated by CHIRIPA (05-May-2021 14:55:23)
 ------------------------------------------------------
 Symbolic Z-matrix:
 Charge =  0 Multiplicity = 1

                         Standard orientation:
 ---------------------------------------------------------------------
 Center     Atomic      Atomic             Coordinates (Angstroms)
 Number     Number       Type             X           Y           Z
 ---------------------------------------------------------------------
      1          6           0        2.387609   -1.885812   -1.674629
      2          6           0        2.293476   -0.521370   -1.967812
      3          6           0        2.093088    0.412117   -0.946541
      4          6           0        1.990867   -0.055885    0.362587
      5          6           0        2.080493   -1.408759    0.686606
      6          6           0        2.281005   -2.324379   -0.350690
      7          1           0        2.543324   -2.604027   -2.474202
      8          1           0        2.375898   -0.177902   -2.995081
      9          1           0        2.016542    1.474205   -1.145354
     10          1           0        1.994442   -1.720888    1.720332
     11          1           0        2.353725   -3.383417   -0.120048
     12          7           0        1.778659    0.922898    1.452244
     13          8           0        1.691886    0.485044    2.597403
     14          8           0        1.703122    2.109390    1.140524
     15          6           0       -2.533591    1.035799   -0.159018
     16          6           0       -1.568283    1.670643   -1.160587
     17          6           0       -1.460011    3.187050   -0.997543
     18          1           0       -3.526577    1.490600   -0.277680
     19          1           0       -2.201023    1.273018    0.861042
     20          1           0       -1.901796    1.431137   -2.178439
     21          1           0       -0.577526    1.214142   -1.039657
     22          1           0       -1.105195    3.442220    0.006246
     23          1           0       -2.436988    3.660448   -1.139006
     24          1           0       -0.764819    3.620253   -1.723424
     25          6           0       -2.652563   -0.479767   -0.309458
     26          6           0       -3.617871   -1.114611    0.692111
     27          6           0       -3.726143   -2.631017    0.529068
     28          1           0       -2.985131   -0.716985   -1.329517
     29          1           0       -1.659577   -0.934568   -0.190796
     30          1           0       -4.608627   -0.658110    0.571181
     31          1           0       -3.284358   -0.875105    1.709963
     32          1           0       -2.749166   -3.104415    0.670531
     33          1           0       -4.080959   -2.886188   -0.474722
     34          1           0       -4.421335   -3.064222    1.254948
 ---------------------------------------------------------------------

 SCF Done:  E(RHF) =  -669.535414863     A.U. after   15 cycles
 E2 =    -0.2093907951D+01 EUMP2 =    -0.67162932281429D+03

 The electronic state is 1-A.
 Alpha  occ. eigenvalues --  -20.60941 -20.60925 -15.85970 -11.31309 -11.27886
 Alpha  occ. eigenvalues --  -11.27855 -11.27603 -11.26879 -11.26861 -11.21444
 Alpha  occ. eigenvalues --  -11.21261 -11.21212 -11.21050 -11.21043 -11.20532
 Alpha  occ. eigenvalues --   -1.59999  -1.39552  -1.19489  -1.08879  -1.08189
 Alpha  occ. eigenvalues --   -1.04886  -1.03279  -0.95748  -0.95692  -0.86735
 Alpha  occ. eigenvalues --   -0.86281  -0.82547  -0.79363  -0.78017  -0.77595
 Alpha  occ. eigenvalues --   -0.72188  -0.71330  -0.70588  -0.65139  -0.64920
 Alpha  occ. eigenvalues --   -0.64774  -0.62241  -0.60661  -0.59114  -0.57348
 Alpha  occ. eigenvalues --   -0.55376  -0.54987  -0.53258  -0.52962  -0.52416
 Alpha  occ. eigenvalues --   -0.52147  -0.49640  -0.48950  -0.48943  -0.47683
 Alpha  occ. eigenvalues --   -0.46397  -0.45562  -0.45448  -0.44912  -0.43538
 Alpha  occ. eigenvalues --   -0.37431  -0.36417
 Alpha virt. eigenvalues --    0.04901   0.11089   0.16394   0.21151   0.22944
 Alpha virt. eigenvalues --    0.24305   0.26728   0.27000   0.27684   0.27772
 Alpha virt. eigenvalues --    0.28927   0.30955   0.31659   0.31921   0.32083

 Mulliken charges:
               1
     1  C   -0.170336
     2  C   -0.217249
     3  C   -0.174626
     4  C    0.161361
     5  C   -0.171800
     6  C   -0.218332
     7  H    0.226368
     8  H    0.224535
     9  H    0.277855
    10  H    0.275945
    11  H    0.224101
    12  N    0.488465
    13  O   -0.459679
    14  O   -0.460384
    15  C   -0.300261
    16  C   -0.304878
    17  C   -0.477063
    18  H    0.149173
    19  H    0.156673
    20  H    0.146143
    21  H    0.151854
    22  H    0.171823
    23  H    0.152191
    24  H    0.153395
    25  C   -0.298516
    26  C   -0.300149
    27  C   -0.474931
    28  H    0.146589
    29  H    0.147885
    30  H    0.152109
    31  H    0.155540
    32  H    0.152135
    33  H    0.153551
    34  H    0.160513
 Sum of Mulliken charges =  -0.00000

 Dipole moment (field-independent basis, Debye):
    X=              0.8777    Y=             -3.4101    Z=             -3.7201  Tot=              5.1223
 Quadrupole moment (field-independent basis, Debye-Ang):
   XX=            -92.1119   YY=            -93.0119   ZZ=            -95.3341
   XY=             -7.4442   XZ=             -7.3641   YZ=             -3.6042

 Normal termination of Gaussian 16 at Thu May  6 10:59:06 2021.
