 Gaussian 16, Revision A.03,
 Gaussian 16:  EM64L-G16RevA.03 25-Dec-2016

 -------------
 #p 6-31g* mp2
 -------------

 ------------------------------------------------------
 Input file generated by CHIRIPA (05-May-2021 14:51:10)
 ------------------------------------------------------
 Symbolic Z-matrix:
 Charge =  0 Multiplicity = 1

                         Standard orientation:
 ---------------------------------------------------------------------
 Center     Atomic      Atomic             Coordinates (Angstroms)
 Number     Number       Type             X           Y           Z
 ---------------------------------------------------------------------
      1          6           0        4.077975    0.021543   -0.171562
      2          6           0        5.082180   -0.302072    0.935160
      3          6           0        6.052476   -1.417566    0.545299
      4          1           0        3.513068   -0.886702   -0.422391
      5          1           0        4.624506    0.310563   -1.079948
      6          1           0        4.533892   -0.589061    1.841600
      7          1           0        5.644630    0.607095    1.183517
      8          1           0        6.624984   -1.136603   -0.344586
      9          1           0        5.507935   -2.339555    0.317236
     10          1           0        6.761441   -1.632707    1.350869
     11          6           0        3.101223    1.134742    0.203231
     12          6           0        2.097018    1.458356   -0.903491
     13          6           0        1.126722    2.573851   -0.513630
     14          1           0        2.554692    0.845722    1.111617
     15          1           0        3.666130    2.042987    0.454060
     16          1           0        1.534568    0.549190   -1.151848
     17          1           0        2.645305    1.745345   -1.809931
     18          1           0        1.671263    3.495840   -0.285567
     19          1           0        0.554214    2.292888    0.376255
     20          1           0        0.417757    2.788991   -1.319200
     21          6           0       -4.353405   -0.578783   -0.010090
     22          6           0       -4.955837    0.660125    0.653360
     23          6           0       -6.484734    0.644267    0.657110
     24          1           0       -4.723299   -0.650735   -1.042053
     25          1           0       -4.710420   -1.476597    0.513231
     26          1           0       -4.596695    1.555405    0.129807
     27          1           0       -4.584315    0.729240    1.683802
     28          1           0       -6.859587   -0.231353    1.196903
     29          1           0       -6.872037    0.599505   -0.365921
     30          1           0       -6.894329    1.539072    1.136086
     31          6           0       -2.825793   -0.577501   -0.021579
     32          6           0       -2.223361   -1.816409   -0.685029
     33          6           0       -0.694463   -1.800552   -0.688779
     34          1           0       -2.468778    0.320313   -0.544900
     35          1           0       -2.455898   -0.505551    1.010384
     36          1           0       -2.594884   -1.885525   -1.715471
     37          1           0       -2.582504   -2.711689   -0.161476
     38          1           0       -0.307161   -1.755790    0.334253
     39          1           0       -0.319612   -0.924931   -1.228572
     40          1           0       -0.284869   -2.695356   -1.167755
 ---------------------------------------------------------------------

 SCF Done:  E(RHF) =  -470.733330546     A.U. after   11 cycles
 E2 =    -0.1582745017D+01 EUMP2 =    -0.47231607556342D+03

 The electronic state is 1-A.
 Alpha  occ. eigenvalues --  -11.21647 -11.21610 -11.21562 -11.21518 -11.21428
 Alpha  occ. eigenvalues --  -11.21368 -11.21349 -11.21290 -11.21135 -11.21077
 Alpha  occ. eigenvalues --  -11.21040 -11.21038  -1.08457  -1.08376  -1.03568
 Alpha  occ. eigenvalues --   -1.03479  -0.96016  -0.95935  -0.87041  -0.86946
 Alpha  occ. eigenvalues --   -0.79658  -0.79521  -0.78275  -0.78182  -0.65107
 Alpha  occ. eigenvalues --   -0.64994  -0.61042  -0.60822  -0.59382  -0.59304
 Alpha  occ. eigenvalues --   -0.57641  -0.57529  -0.55339  -0.55190  -0.52710
 Alpha  occ. eigenvalues --   -0.52635  -0.52463  -0.52353  -0.50027  -0.49823
 Alpha  occ. eigenvalues --   -0.48055  -0.47784  -0.46760  -0.46456  -0.45875
 Alpha  occ. eigenvalues --   -0.45751  -0.45695  -0.45519  -0.43814  -0.43738
 Alpha virt. eigenvalues --    0.21290   0.23028   0.23702   0.24985   0.25892
 Alpha virt. eigenvalues --    0.26437   0.27029   0.27460   0.28424   0.29029
 Alpha virt. eigenvalues --    0.30400   0.31453   0.31749   0.31832   0.32172

 Mulliken charges:
               1
     1  C   -0.298789
     2  C   -0.299580
     3  C   -0.475695
     4  H    0.150721
     5  H    0.149252
     6  H    0.151775
     7  H    0.151763
     8  H    0.155089
     9  H    0.155259
    10  H    0.160059
    11  C   -0.297470
    12  C   -0.307313
    13  C   -0.475858
    14  H    0.149400
    15  H    0.149269
    16  H    0.159670
    17  H    0.151413
    18  H    0.155169
    19  H    0.156040
    20  H    0.159020
    21  C   -0.298330
    22  C   -0.299714
    23  C   -0.475731
    24  H    0.149712
    25  H    0.149532
    26  H    0.152245
    27  H    0.151912
    28  H    0.155149
    29  H    0.155195
    30  H    0.160352
    31  C   -0.298780
    32  C   -0.299357
    33  C   -0.481695
    34  H    0.150450
    35  H    0.149313
    36  H    0.152175
    37  H    0.152082
    38  H    0.154705
    39  H    0.161036
    40  H    0.160552
 Sum of Mulliken charges =  -0.00000

 Dipole moment (field-independent basis, Debye):
    X=             -0.0278    Y=             -0.0166    Z=             -0.0056  Tot=              0.0329
 Quadrupole moment (field-independent basis, Debye-Ang):
   XX=            -86.2521   YY=            -84.7682   ZZ=            -83.8435
   XY=              1.1735   XZ=             -0.0423   YZ=             -0.7971

 Normal termination of Gaussian 16 at Thu May  6 00:38:21 2021.
