 Gaussian 16, Revision A.03,
 Gaussian 16:  EM64L-G16RevA.03 25-Dec-2016

 -------------
 #p 6-31g* mp2
 -------------

 ------------------------------------------------------
 Input file generated by CHIRIPA (05-May-2021 14:53:17)
 ------------------------------------------------------
 Symbolic Z-matrix:
 Charge =  0 Multiplicity = 1

                         Standard orientation:
 ---------------------------------------------------------------------
 Center     Atomic      Atomic             Coordinates (Angstroms)
 Number     Number       Type             X           Y           Z
 ---------------------------------------------------------------------
      1          6           0        3.526878    0.485758    0.629124
      2          6           0        3.181116    1.893409    0.142344
      3          6           0        2.323248    2.670331    1.141467
      4          1           0        2.597409   -0.066604    0.823878
      5          1           0        4.055274    0.557053    1.589910
      6          1           0        2.654750    1.819545   -0.817916
      7          1           0        4.111516    2.442420   -0.051457
      8          1           0        2.844780    2.773577    2.098518
      9          1           0        1.379737    2.147162    1.327703
     10          1           0        2.087838    3.673810    0.773403
     11          6           0        4.384115   -0.303392   -0.358861
     12          6           0        4.729876   -1.711042    0.127919
     13          6           0        5.587745   -2.487964   -0.871205
     14          1           0        3.855719   -0.374687   -1.319647
     15          1           0        5.313583    0.248970   -0.553615
     16          1           0        3.799477   -2.260054    0.321720
     17          1           0        5.256242   -1.637178    1.088179
     18          1           0        6.531256   -1.964796   -1.057441
     19          1           0        5.066213   -2.591211   -1.828255
     20          1           0        5.823155   -3.491444   -0.503140
     21          6           0       -5.098911   -1.483104    0.475600
     22          6           0       -3.855449   -1.764351    1.051121
     23          6           0       -2.735671   -0.988725    0.736404
     24          6           0       -2.896040    0.065257   -0.161757
     25          6           0       -4.121620    0.370519   -0.751719
     26          6           0       -5.227801   -0.418444   -0.422400
     27          1           0       -5.963499   -2.090811    0.725752
     28          1           0       -3.752396   -2.590555    1.748842
     29          1           0       -1.761280   -1.184354    1.167344
     30          1           0       -4.193209    1.200714   -1.443868
     31          1           0       -6.192258   -0.197707   -0.870889
     32          7           0       -1.717778    0.893438   -0.502663
     33          8           0       -1.885355    1.816431   -1.296792
     34          8           0       -0.648992    0.603891    0.030717
 ---------------------------------------------------------------------

 SCF Done:  E(RHF) =  -669.536404140     A.U. after   15 cycles
 E2 =    -0.2091182147D+01 EUMP2 =    -0.67162758628725D+03

 The electronic state is 1-A.
 Alpha  occ. eigenvalues --  -20.61043 -20.61037 -15.86071 -11.31356 -11.27915
 Alpha  occ. eigenvalues --  -11.27910 -11.27645 -11.26913 -11.26903 -11.20898
 Alpha  occ. eigenvalues --  -11.20510 -11.20424 -11.20147 -11.20083 -11.19375
 Alpha  occ. eigenvalues --   -1.60097  -1.39655  -1.19520  -1.08931  -1.07338
 Alpha  occ. eigenvalues --   -1.04911  -1.02399  -0.95779  -0.94861  -0.86313
 Alpha  occ. eigenvalues --   -0.85889  -0.82615  -0.78535  -0.77673  -0.77097
 Alpha  occ. eigenvalues --   -0.72300  -0.71407  -0.70629  -0.65179  -0.64914
 Alpha  occ. eigenvalues --   -0.63952  -0.62259  -0.59767  -0.58306  -0.56466
 Alpha  occ. eigenvalues --   -0.55417  -0.54134  -0.53244  -0.53002  -0.51588
 Alpha  occ. eigenvalues --   -0.51301  -0.49122  -0.49044  -0.48717  -0.46833
 Alpha  occ. eigenvalues --   -0.45589  -0.45046  -0.44645  -0.44480  -0.42672
 Alpha  occ. eigenvalues --   -0.37496  -0.36510
 Alpha virt. eigenvalues --    0.04837   0.11145   0.16331   0.21252   0.23860
 Alpha virt. eigenvalues --    0.25442   0.27179   0.27538   0.28212   0.28616
 Alpha virt. eigenvalues --    0.29172   0.30853   0.32212   0.32645   0.32705

 Mulliken charges:
               1
     1  C   -0.299882
     2  C   -0.296047
     3  C   -0.481764
     4  H    0.157449
     5  H    0.143133
     6  H    0.160993
     7  H    0.143652
     8  H    0.143739
     9  H    0.175747
    10  H    0.156531
    11  C   -0.297860
    12  C   -0.298462
    13  C   -0.475029
    14  H    0.150985
    15  H    0.146726
    16  H    0.149908
    17  H    0.149682
    18  H    0.154342
    19  H    0.154649
    20  H    0.156925
    21  C   -0.170469
    22  C   -0.218523
    23  C   -0.170650
    24  C    0.157707
    25  C   -0.170509
    26  C   -0.218576
    27  H    0.226249
    28  H    0.224094
    29  H    0.275498
    30  H    0.276015
    31  H    0.224048
    32  N    0.491203
    33  O   -0.457973
    34  O   -0.463530
 Sum of Mulliken charges =  -0.00000

 Dipole moment (field-independent basis, Debye):
    X=             -4.5773    Y=             -2.9226    Z=              1.1158  Tot=              5.5442
 Quadrupole moment (field-independent basis, Debye-Ang):
   XX=            -70.4835   YY=            -94.9798   ZZ=            -94.2184
   XY=              7.2151   XZ=             -0.3903   YZ=             -2.0573

 Normal termination of Gaussian 16 at Wed May  5 18:46:40 2021.
