 Gaussian 16, Revision A.03,
 Gaussian 16:  EM64L-G16RevA.03 25-Dec-2016

 -------------
 #p 6-31g* mp2
 -------------

 ------------------------------------------------------
 Input file generated by CHIRIPA (05-May-2021 14:51:14)
 ------------------------------------------------------
 Symbolic Z-matrix:
 Charge =  0 Multiplicity = 1

                         Standard orientation:
 ---------------------------------------------------------------------
 Center     Atomic      Atomic             Coordinates (Angstroms)
 Number     Number       Type             X           Y           Z
 ---------------------------------------------------------------------
      1          6           0        2.844135   -1.144235   -0.092697
      2          6           0        1.380604   -1.577382   -0.000791
      3          6           0        1.202181   -3.089930   -0.135539
      4          1           0        3.259622   -1.479807   -1.052752
      5          1           0        3.420033   -1.653685    0.692285
      6          1           0        0.807380   -1.066207   -0.784839
      7          1           0        0.968499   -1.240572    0.959075
      8          1           0        1.749220   -3.614278    0.654657
      9          1           0        1.587186   -3.438922   -1.099166
     10          1           0        0.148416   -3.377565   -0.066942
     11          6           0        3.038701    0.365136    0.040241
     12          6           0        4.502232    0.798283   -0.051664
     13          6           0        4.680655    2.310831    0.083083
     14          1           0        2.462804    0.874586   -0.744741
     15          1           0        2.623214    0.700709    1.000297
     16          1           0        4.914338    0.461473   -1.011531
     17          1           0        5.075456    0.287108    0.732384
     18          1           0        4.295650    2.659823    1.046711
     19          1           0        4.133617    2.835179   -0.707113
     20          1           0        5.734420    2.598466    0.014487
     21          6           0       -3.173860   -0.286267   -0.243355
     22          6           0       -2.574463   -1.476691    0.506046
     23          6           0       -3.048944   -2.821732   -0.044885
     24          1           0       -4.269746   -0.340626   -0.188376
     25          1           0       -2.910174   -0.361304   -1.307420
     26          1           0       -2.838038   -1.398695    1.568619
     27          1           0       -1.479873   -1.419387    0.449441
     28          1           0       -2.772396   -2.925397   -1.099104
     29          1           0       -4.138278   -2.904588    0.026433
     30          1           0       -2.608277   -3.658932    0.505360
     31          6           0       -2.708976    1.065366    0.295810
     32          6           0       -3.308373    2.255789   -0.453590
     33          6           0       -2.833893    3.600832    0.097341
     34          1           0       -2.972661    1.140402    1.359875
     35          1           0       -1.613089    1.119725    0.240832
     36          1           0       -4.402963    2.198485   -0.396985
     37          1           0       -3.044799    2.177793   -1.516163
     38          1           0       -1.744558    3.683687    0.026022
     39          1           0       -3.110440    3.704497    1.151560
     40          1           0       -3.274559    4.438031   -0.452903
 ---------------------------------------------------------------------

 SCF Done:  E(RHF) =  -470.732770422     A.U. after   11 cycles
 E2 =    -0.1583913606D+01 EUMP2 =    -0.47231668402882D+03

 The electronic state is 1-A.
 Alpha  occ. eigenvalues --  -11.21678 -11.21638 -11.21576 -11.21475 -11.21456
 Alpha  occ. eigenvalues --  -11.21397 -11.21360 -11.21301 -11.21099 -11.21087
 Alpha  occ. eigenvalues --  -11.21056 -11.21049  -1.08496  -1.08378  -1.03621
 Alpha  occ. eigenvalues --   -1.03460  -0.96050  -0.95927  -0.87050  -0.86953
 Alpha  occ. eigenvalues --   -0.79739  -0.79492  -0.78374  -0.78124  -0.65115
 Alpha  occ. eigenvalues --   -0.65037  -0.61004  -0.60975  -0.59552  -0.59145
 Alpha  occ. eigenvalues --   -0.57763  -0.57391  -0.55303  -0.55229  -0.52775
 Alpha  occ. eigenvalues --   -0.52589  -0.52448  -0.52337  -0.49960  -0.49899
 Alpha  occ. eigenvalues --   -0.48099  -0.47785  -0.46693  -0.46582  -0.46027
 Alpha  occ. eigenvalues --   -0.45769  -0.45705  -0.45401  -0.43843  -0.43724
 Alpha virt. eigenvalues --    0.20947   0.23058   0.23364   0.25052   0.25734
 Alpha virt. eigenvalues --    0.26438   0.26833   0.27250   0.28446   0.29256
 Alpha virt. eigenvalues --    0.30908   0.31206   0.31434   0.31764   0.32493

 Mulliken charges:
               1
     1  C   -0.297106
     2  C   -0.303777
     3  C   -0.482155
     4  H    0.149814
     5  H    0.149916
     6  H    0.151643
     7  H    0.153417
     8  H    0.155474
     9  H    0.155407
    10  H    0.167355
    11  C   -0.298542
    12  C   -0.299679
    13  C   -0.475758
    14  H    0.148997
    15  H    0.149904
    16  H    0.152034
    17  H    0.152122
    18  H    0.155341
    19  H    0.155125
    20  H    0.160429
    21  C   -0.297095
    22  C   -0.313216
    23  C   -0.476591
    24  H    0.149290
    25  H    0.148691
    26  H    0.150997
    27  H    0.168257
    28  H    0.155034
    29  H    0.155407
    30  H    0.159865
    31  C   -0.299371
    32  C   -0.299538
    33  C   -0.475736
    34  H    0.149272
    35  H    0.150729
    36  H    0.151889
    37  H    0.151622
    38  H    0.155332
    39  H    0.155095
    40  H    0.160103
 Sum of Mulliken charges =  -0.00000

 Dipole moment (field-independent basis, Debye):
    X=              0.0474    Y=             -0.0102    Z=              0.0101  Tot=              0.0495
 Quadrupole moment (field-independent basis, Debye-Ang):
   XX=            -84.4229   YY=            -87.0487   ZZ=            -83.4126
   XY=             -0.6217   XZ=             -0.5020   YZ=             -0.4795

 Normal termination of Gaussian 16 at Thu May  6 04:01:51 2021.
