 Gaussian 16, Revision A.03,
 Gaussian 16:  EM64L-G16RevA.03 25-Dec-2016

 -------------
 #p 6-31g* mp2
 -------------

 ------------------------------------------------------
 Input file generated by CHIRIPA (05-May-2021 14:53:13)
 ------------------------------------------------------
 Symbolic Z-matrix:
 Charge =  0 Multiplicity = 1

                         Standard orientation:
 ---------------------------------------------------------------------
 Center     Atomic      Atomic             Coordinates (Angstroms)
 Number     Number       Type             X           Y           Z
 ---------------------------------------------------------------------
      1          6           0       -3.734560   -0.379716    0.241608
      2          6           0       -3.440089   -1.634151   -0.581596
      3          6           0       -4.434203   -2.764359   -0.312968
      4          1           0       -3.718987   -0.637581    1.309413
      5          1           0       -4.753379   -0.033921    0.018387
      6          1           0       -2.421629   -1.976679   -0.357922
      7          1           0       -3.456175   -1.373229   -1.647559
      8          1           0       -5.453622   -2.446161   -0.554080
      9          1           0       -4.413198   -3.053040    0.742884
     10          1           0       -4.205076   -3.651345   -0.911814
     11          6           0       -2.749308    0.759003   -0.015928
     12          6           0       -3.043779    2.013438    0.807275
     13          6           0       -2.049664    3.143646    0.538647
     14          1           0       -1.730488    0.413209    0.207293
     15          1           0       -2.764880    1.016869   -1.083734
     16          1           0       -3.027692    1.752516    1.873238
     17          1           0       -4.062239    2.355967    0.583602
     18          1           0       -2.070669    3.432328   -0.517204
     19          1           0       -1.030245    2.825448    0.779760
     20          1           0       -2.278791    4.030632    1.137494
     21          6           0        2.995236   -2.554544    0.512969
     22          6           0        1.714225   -2.168793    0.104647
     23          6           0        1.446552   -0.838244   -0.230822
     24          6           0        2.488050    0.084481   -0.146270
     25          6           0        3.774802   -0.268910    0.257060
     26          6           0        4.019630   -1.605046    0.587741
     27          1           0        3.194298   -3.590316    0.771710
     28          1           0        0.916738   -2.904033    0.045648
     29          1           0        0.464055   -0.512307   -0.550012
     30          1           0        4.549439    0.486705    0.306074
     31          1           0        5.015447   -1.901762    0.904526
     32          7           0        2.216769    1.496030   -0.498882
     33          8           0        3.151501    2.289796   -0.416120
     34          8           0        1.074543    1.781911   -0.851343
 ---------------------------------------------------------------------

 SCF Done:  E(RHF) =  -669.535690212     A.U. after   15 cycles
 E2 =    -0.2092564448D+01 EUMP2 =    -0.67162825465985D+03

 The electronic state is 1-A.
 Alpha  occ. eigenvalues --  -20.60885 -20.60880 -15.85910 -11.31243 -11.27811
 Alpha  occ. eigenvalues --  -11.27783 -11.27550 -11.26823 -11.26810 -11.21901
 Alpha  occ. eigenvalues --  -11.21356 -11.21334 -11.21103 -11.21009 -11.19903
 Alpha  occ. eigenvalues --   -1.59948  -1.39503  -1.19414  -1.08818  -1.08279
 Alpha  occ. eigenvalues --   -1.04811  -1.03260  -0.95681  -0.95644  -0.86681
 Alpha  occ. eigenvalues --   -0.86211  -0.82491  -0.79402  -0.78067  -0.77489
 Alpha  occ. eigenvalues --   -0.72132  -0.71264  -0.70526  -0.65069  -0.64973
 Alpha  occ. eigenvalues --   -0.64778  -0.62158  -0.60666  -0.59140  -0.57263
 Alpha  occ. eigenvalues --   -0.55322  -0.54943  -0.53145  -0.52919  -0.52379
 Alpha  occ. eigenvalues --   -0.52047  -0.49622  -0.48902  -0.48883  -0.47661
 Alpha  occ. eigenvalues --   -0.46482  -0.45608  -0.45465  -0.44733  -0.43534
 Alpha  occ. eigenvalues --   -0.37396  -0.36411
 Alpha virt. eigenvalues --    0.04934   0.11200   0.16423   0.19698   0.23116
 Alpha virt. eigenvalues --    0.24512   0.24727   0.27155   0.27647   0.28419
 Alpha virt. eigenvalues --    0.29400   0.30938   0.31800   0.31932   0.32580

 Mulliken charges:
               1
     1  C   -0.298061
     2  C   -0.297626
     3  C   -0.475511
     4  H    0.148267
     5  H    0.151251
     6  H    0.138561
     7  H    0.154526
     8  H    0.158016
     9  H    0.154741
    10  H    0.158349
    11  C   -0.300611
    12  C   -0.300710
    13  C   -0.476492
    14  H    0.147850
    15  H    0.153718
    16  H    0.147631
    17  H    0.149161
    18  H    0.159034
    19  H    0.170795
    20  H    0.154127
    21  C   -0.170460
    22  C   -0.221303
    23  C   -0.177621
    24  C    0.156527
    25  C   -0.170258
    26  C   -0.218740
    27  H    0.225883
    28  H    0.224451
    29  H    0.286570
    30  H    0.275694
    31  H    0.223659
    32  N    0.487954
    33  O   -0.459140
    34  O   -0.460230
 Sum of Mulliken charges =  -0.00000

 Dipole moment (field-independent basis, Debye):
    X=              1.0619    Y=             -4.8383    Z=              1.1723  Tot=              5.0903
 Quadrupole moment (field-independent basis, Debye-Ang):
   XX=            -85.5628   YY=            -96.6079   ZZ=            -95.2903
   XY=            -11.9940   XZ=              4.8922   YZ=              0.6811

 Normal termination of Gaussian 16 at Thu May  6 02:35:02 2021.
