 Gaussian 16, Revision A.03,
 Gaussian 16:  EM64L-G16RevA.03 25-Dec-2016

 -------------
 #p 6-31g* mp2
 -------------

 ------------------------------------------------------
 Input file generated by CHIRIPA (05-May-2021 14:53:14)
 ------------------------------------------------------
 Symbolic Z-matrix:
 Charge =  0 Multiplicity = 1

                         Standard orientation:
 ---------------------------------------------------------------------
 Center     Atomic      Atomic             Coordinates (Angstroms)
 Number     Number       Type             X           Y           Z
 ---------------------------------------------------------------------
      1          6           0       -3.413335    0.593591   -0.341737
      2          6           0       -2.767883    1.541057    0.670036
      3          6           0       -1.639767    2.375342    0.062487
      4          1           0       -2.643171   -0.072999   -0.753382
      5          1           0       -3.802996    1.179646   -1.185595
      6          1           0       -2.380781    0.953519    1.512394
      7          1           0       -3.539708    2.205341    1.079462
      8          1           0       -2.014967    2.986045   -0.765081
      9          1           0       -0.849455    1.727110   -0.329690
     10          1           0       -1.192457    3.045599    0.803115
     11          6           0       -4.542851   -0.247228    0.250669
     12          6           0       -5.188302   -1.194695   -0.761104
     13          6           0       -6.316418   -2.028980   -0.153554
     14          1           0       -4.153189   -0.833284    1.094528
     15          1           0       -5.313014    0.419361    0.662314
     16          1           0       -4.416478   -1.858979   -1.170530
     17          1           0       -5.575405   -0.607157   -1.603462
     18          1           0       -7.106731   -1.380748    0.238622
     19          1           0       -5.941219   -2.639682    0.674014
     20          1           0       -6.763729   -2.699236   -0.894183
     21          6           0        2.157180    2.200882   -0.030358
     22          6           0        1.712929    1.291337    0.934988
     23          6           0        2.232685   -0.005696    0.980904
     24          6           0        3.199795   -0.361151    0.041947
     25          6           0        3.662743    0.522281   -0.931972
     26          6           0        3.128956    1.814132   -0.959119
     27          1           0        1.747971    3.206436   -0.058736
     28          1           0        0.958336    1.588929    1.657535
     29          1           0        1.906700   -0.729926    1.717545
     30          1           0        4.416024    0.196513   -1.638981
     31          1           0        3.475846    2.518391   -1.709940
     32          7           0        3.757466   -1.731519    0.080621
     33          8           0        4.608591   -2.020098   -0.757797
     34          8           0        3.332881   -2.491088    0.948620
 ---------------------------------------------------------------------

 SCF Done:  E(RHF) =  -669.534681344     A.U. after   15 cycles
 E2 =    -0.2092242712D+01 EUMP2 =    -0.67162692405614D+03

 The electronic state is 1-A.
 Alpha  occ. eigenvalues --  -20.60766 -20.60761 -15.85819 -11.31181 -11.27745
 Alpha  occ. eigenvalues --  -11.27732 -11.27455 -11.26757 -11.26712 -11.22309
 Alpha  occ. eigenvalues --  -11.21916 -11.21870 -11.21846 -11.21720 -11.21250
 Alpha  occ. eigenvalues --   -1.59842  -1.39395  -1.19355  -1.08895  -1.08741
 Alpha  occ. eigenvalues --   -1.04761  -1.04020  -0.96493  -0.95575  -0.87529
 Alpha  occ. eigenvalues --   -0.86137  -0.82410  -0.80103  -0.78662  -0.77462
 Alpha  occ. eigenvalues --   -0.72037  -0.71165  -0.70445  -0.65544  -0.65000
 Alpha  occ. eigenvalues --   -0.64758  -0.62148  -0.61376  -0.59883  -0.58081
 Alpha  occ. eigenvalues --   -0.55798  -0.55234  -0.53320  -0.53129  -0.52813
 Alpha  occ. eigenvalues --   -0.52771  -0.50378  -0.48794  -0.48791  -0.48407
 Alpha  occ. eigenvalues --   -0.47114  -0.46212  -0.46111  -0.44802  -0.44276
 Alpha  occ. eigenvalues --   -0.37275  -0.36336
 Alpha virt. eigenvalues --    0.05057   0.11234   0.16517   0.20269   0.22629
 Alpha virt. eigenvalues --    0.23922   0.26146   0.26366   0.26974   0.27818
 Alpha virt. eigenvalues --    0.28771   0.30320   0.31016   0.31354   0.31938

 Mulliken charges:
               1
     1  C   -0.299228
     2  C   -0.299312
     3  C   -0.485554
     4  H    0.152338
     5  H    0.150530
     6  H    0.148930
     7  H    0.154081
     8  H    0.157884
     9  H    0.165052
    10  H    0.148744
    11  C   -0.298762
    12  C   -0.300281
    13  C   -0.476052
    14  H    0.150260
    15  H    0.149876
    16  H    0.153787
    17  H    0.152030
    18  H    0.155022
    19  H    0.156156
    20  H    0.161589
    21  C   -0.170482
    22  C   -0.218890
    23  C   -0.173167
    24  C    0.158466
    25  C   -0.171213
    26  C   -0.218944
    27  H    0.227799
    28  H    0.227962
    29  H    0.275255
    30  H    0.275539
    31  H    0.223545
    32  N    0.488084
    33  O   -0.460431
    34  O   -0.460615
 Sum of Mulliken charges =  -0.00000

 Dipole moment (field-independent basis, Debye):
    X=             -2.0599    Y=              4.7836    Z=             -0.1991  Tot=              5.2121
 Quadrupole moment (field-independent basis, Debye-Ang):
   XX=           -106.0392   YY=            -98.7427   ZZ=            -92.1079
   XY=             16.2222   XZ=             -2.6697   YZ=             -0.8348

 Normal termination of Gaussian 16 at Wed May  5 17:06:44 2021.
