 Gaussian 16, Revision A.03,
 Gaussian 16:  EM64L-G16RevA.03 25-Dec-2016

 -------------
 #p 6-31g* mp2
 -------------

 ------------------------------------------------------
 Input file generated by CHIRIPA (05-May-2021 14:51:10)
 ------------------------------------------------------
 Symbolic Z-matrix:
 Charge =  0 Multiplicity = 1

                         Standard orientation:
 ---------------------------------------------------------------------
 Center     Atomic      Atomic             Coordinates (Angstroms)
 Number     Number       Type             X           Y           Z
 ---------------------------------------------------------------------
      1          6           0       -3.769393    0.743889   -0.407032
      2          6           0       -3.233918    1.891792    0.449455
      3          6           0       -3.242685    3.232170   -0.286145
      4          1           0       -3.166581    0.665506   -1.322137
      5          1           0       -4.793566    0.981040   -0.726756
      6          1           0       -2.211560    1.651924    0.768615
      7          1           0       -3.837955    1.967329    1.362717
      8          1           0       -4.260158    3.497772   -0.590783
      9          1           0       -2.624522    3.180575   -1.188261
     10          1           0       -2.855905    4.038746    0.344487
     11          6           0       -3.766936   -0.602608    0.314542
     12          6           0       -4.302412   -1.750512   -0.541945
     13          6           0       -4.293645   -3.090889    0.193655
     14          1           0       -2.742763   -0.839759    0.634266
     15          1           0       -4.369749   -0.524225    1.229647
     16          1           0       -3.698374   -1.826048   -1.455207
     17          1           0       -5.324770   -1.510643   -0.861105
     18          1           0       -4.911808   -3.039295    1.095771
     19          1           0       -3.276172   -3.356492    0.498293
     20          1           0       -4.680425   -3.897465   -0.436977
     21          6           0        3.068976   -0.113540   -0.258266
     22          6           0        1.953958    0.217331    0.734329
     23          6           0        0.561029    0.127170    0.110297
     24          1           0        3.004187    0.571699   -1.114533
     25          1           0        2.908742   -1.125614   -0.655036
     26          1           0        2.117018    1.227952    1.130148
     27          1           0        2.021527   -0.468651    1.588424
     28          1           0        0.373273   -0.882676   -0.268595
     29          1           0        0.469307    0.823568   -0.729476
     30          1           0       -0.220929    0.367569    0.837351
     31          6           0        4.467353   -0.027740    0.350756
     32          6           0        5.582371   -0.358611   -0.641839
     33          6           0        6.975300   -0.268451   -0.017807
     34          1           0        4.627588    0.984333    0.747525
     35          1           0        4.532142   -0.712979    1.207023
     36          1           0        5.514803    0.327371   -1.495934
     37          1           0        5.419312   -1.369232   -1.037658
     38          1           0        7.067023   -0.964848    0.821966
     39          1           0        7.163056    0.741395    0.361085
     40          1           0        7.757260   -0.508850   -0.744862
 ---------------------------------------------------------------------

 SCF Done:  E(RHF) =  -470.733114164     A.U. after   11 cycles
 E2 =    -0.1582981098D+01 EUMP2 =    -0.47231609526161D+03

 The electronic state is 1-A.
 Alpha  occ. eigenvalues --  -11.21678 -11.21633 -11.21545 -11.21501 -11.21456
 Alpha  occ. eigenvalues --  -11.21394 -11.21320 -11.21261 -11.21177 -11.21095
 Alpha  occ. eigenvalues --  -11.21034 -11.21018  -1.08485  -1.08355  -1.03594
 Alpha  occ. eigenvalues --   -1.03464  -0.96047  -0.95916  -0.87071  -0.86931
 Alpha  occ. eigenvalues --   -0.79669  -0.79524  -0.78296  -0.78168  -0.65113
 Alpha  occ. eigenvalues --   -0.65004  -0.61022  -0.60858  -0.59441  -0.59253
 Alpha  occ. eigenvalues --   -0.57654  -0.57530  -0.55351  -0.55182  -0.52807
 Alpha  occ. eigenvalues --   -0.52589  -0.52473  -0.52340  -0.50014  -0.49828
 Alpha  occ. eigenvalues --   -0.48005  -0.47830  -0.46704  -0.46530  -0.45839
 Alpha  occ. eigenvalues --   -0.45759  -0.45717  -0.45638  -0.43772  -0.43696
 Alpha virt. eigenvalues --    0.21103   0.22996   0.23982   0.24547   0.25892
 Alpha virt. eigenvalues --    0.26595   0.26903   0.27617   0.27938   0.29210
 Alpha virt. eigenvalues --    0.30543   0.31155   0.31738   0.31955   0.32171

 Mulliken charges:
               1
     1  C   -0.297425
     2  C   -0.306076
     3  C   -0.475222
     4  H    0.150229
     5  H    0.149052
     6  H    0.158373
     7  H    0.151160
     8  H    0.154953
     9  H    0.154891
    10  H    0.159714
    11  C   -0.301911
    12  C   -0.299486
    13  C   -0.475641
    14  H    0.153354
    15  H    0.148964
    16  H    0.151996
    17  H    0.151704
    18  H    0.155034
    19  H    0.154943
    20  H    0.160009
    21  C   -0.298802
    22  C   -0.299429
    23  C   -0.482474
    24  H    0.149768
    25  H    0.149593
    26  H    0.152408
    27  H    0.152272
    28  H    0.155281
    29  H    0.155530
    30  H    0.166676
    31  C   -0.298311
    32  C   -0.299673
    33  C   -0.475736
    34  H    0.149678
    35  H    0.149768
    36  H    0.152005
    37  H    0.151973
    38  H    0.155239
    39  H    0.155253
    40  H    0.160365
 Sum of Mulliken charges =  -0.00000

 Dipole moment (field-independent basis, Debye):
    X=              0.0579    Y=             -0.0050    Z=              0.0030  Tot=              0.0582
 Quadrupole moment (field-independent basis, Debye-Ang):
   XX=            -85.1875   YY=            -84.9351   ZZ=            -84.8579
   XY=             -0.1664   XZ=             -0.6292   YZ=              0.1978

 Normal termination of Gaussian 16 at Thu May  6 02:13:14 2021.
