 Gaussian 16, Revision A.03,
 Gaussian 16:  EM64L-G16RevA.03 25-Dec-2016

 -------------
 #p 6-31g* mp2
 -------------

 ------------------------------------------------------
 Input file generated by CHIRIPA (05-May-2021 14:51:08)
 ------------------------------------------------------
 Symbolic Z-matrix:
 Charge =  0 Multiplicity = 1

                         Standard orientation:
 ---------------------------------------------------------------------
 Center     Atomic      Atomic             Coordinates (Angstroms)
 Number     Number       Type             X           Y           Z
 ---------------------------------------------------------------------
      1          6           0       -3.255705    0.612918    0.009310
      2          6           0       -4.736315    0.662913   -0.369211
      3          6           0       -5.116988    1.952065   -1.097888
      4          1           0       -3.016267    1.478132    0.642570
      5          1           0       -2.648162    0.713935   -0.900680
      6          1           0       -5.340890    0.560443    0.541066
      7          1           0       -4.972299   -0.202625   -1.001487
      8          1           0       -4.538976    2.057489   -2.021679
      9          1           0       -4.909662    2.824892   -0.470362
     10          1           0       -6.179727    1.966758   -1.359097
     11          6           0       -2.859791   -0.669792    0.738443
     12          6           0       -1.379180   -0.719787    1.116964
     13          6           0       -0.998508   -2.008939    1.845641
     14          1           0       -3.467334   -0.770809    1.648433
     15          1           0       -3.099228   -1.535007    0.105182
     16          1           0       -1.143196    0.145750    1.749239
     17          1           0       -0.774605   -0.617318    0.206687
     18          1           0       -1.205834   -2.881767    1.218115
     19          1           0       -1.576519   -2.114363    2.769432
     20          1           0        0.064231   -2.023632    2.106850
     21          6           0        2.962518   -0.727793   -0.324089
     22          6           0        2.020608   -1.291709   -1.388415
     23          6           0        1.840181   -2.805826   -1.275779
     24          1           0        3.939833   -1.222298   -0.409329
     25          1           0        2.571257   -0.978292    0.671683
     26          1           0        2.412801   -1.039026   -2.381870
     27          1           0        1.045480   -0.795666   -1.300756
     28          1           0        1.426740   -3.072828   -0.297833
     29          1           0        2.801829   -3.317570   -1.385090
     30          1           0        1.163080   -3.187855   -2.046135
     31          6           0        3.152977    0.784668   -0.423663
     32          6           0        4.094888    1.348583    0.640662
     33          6           0        4.275315    2.862701    0.528026
     34          1           0        3.544238    1.035167   -1.419435
     35          1           0        2.175663    1.279173   -0.338424
     36          1           0        5.070015    0.852541    0.553002
     37          1           0        3.702694    1.095901    1.634117
     38          1           0        3.313666    3.374445    0.637337
     39          1           0        4.688755    3.129702   -0.449920
     40          1           0        4.952415    3.244730    1.298383
 ---------------------------------------------------------------------

 SCF Done:  E(RHF) =  -470.733189364     A.U. after   11 cycles
 E2 =    -0.1583626069D+01 EUMP2 =    -0.47231681543308D+03

 The electronic state is 1-A.
 Alpha  occ. eigenvalues --  -11.21653 -11.21630 -11.21592 -11.21590 -11.21448
 Alpha  occ. eigenvalues --  -11.21398 -11.21389 -11.21337 -11.21148 -11.21092
 Alpha  occ. eigenvalues --  -11.21062 -11.21044  -1.08486  -1.08413  -1.03603
 Alpha  occ. eigenvalues --   -1.03497  -0.96036  -0.95959  -0.87055  -0.86974
 Alpha  occ. eigenvalues --   -0.79698  -0.79539  -0.78316  -0.78210  -0.65251
 Alpha  occ. eigenvalues --   -0.64945  -0.61220  -0.60706  -0.59381  -0.59330
 Alpha  occ. eigenvalues --   -0.57628  -0.57581  -0.55417  -0.55136  -0.52728
 Alpha  occ. eigenvalues --   -0.52665  -0.52454  -0.52386  -0.50102  -0.49797
 Alpha  occ. eigenvalues --   -0.48040  -0.47871  -0.46932  -0.46423  -0.45959
 Alpha  occ. eigenvalues --   -0.45794  -0.45738  -0.45416  -0.43823  -0.43775
 Alpha virt. eigenvalues --    0.19647   0.23133   0.23664   0.24884   0.25582
 Alpha virt. eigenvalues --    0.26152   0.26738   0.27804   0.28774   0.29146
 Alpha virt. eigenvalues --    0.30604   0.30876   0.31642   0.31861   0.32280

 Mulliken charges:
               1
     1  C   -0.298393
     2  C   -0.299691
     3  C   -0.475770
     4  H    0.149622
     5  H    0.149230
     6  H    0.152035
     7  H    0.152092
     8  H    0.155302
     9  H    0.155189
    10  H    0.160378
    11  C   -0.297782
    12  C   -0.307892
    13  C   -0.477596
    14  H    0.149729
    15  H    0.149979
    16  H    0.151679
    17  H    0.159586
    18  H    0.156488
    19  H    0.155601
    20  H    0.160665
    21  C   -0.299736
    22  C   -0.304340
    23  C   -0.479252
    24  H    0.149780
    25  H    0.150745
    26  H    0.152146
    27  H    0.155831
    28  H    0.159692
    29  H    0.155151
    30  H    0.159438
    31  C   -0.298610
    32  C   -0.299639
    33  C   -0.475729
    34  H    0.149441
    35  H    0.150258
    36  H    0.151871
    37  H    0.151889
    38  H    0.155279
    39  H    0.155149
    40  H    0.160186
 Sum of Mulliken charges =  -0.00000

 Dipole moment (field-independent basis, Debye):
    X=             -0.0213    Y=             -0.0050    Z=              0.0081  Tot=              0.0233
 Quadrupole moment (field-independent basis, Debye-Ang):
   XX=            -84.3214   YY=            -86.5109   ZZ=            -83.9010
   XY=             -0.0678   XZ=             -0.9239   YZ=              0.8803

 Normal termination of Gaussian 16 at Wed May  5 19:41:25 2021.
