 Gaussian 16, Revision A.03,
 Gaussian 16:  EM64L-G16RevA.03 25-Dec-2016

 -------------
 #p 6-31g* mp2
 -------------

 ------------------------------------------------------
 Input file generated by CHIRIPA (05-May-2021 14:55:20)
 ------------------------------------------------------
 Symbolic Z-matrix:
 Charge =  0 Multiplicity = 1

                         Standard orientation:
 ---------------------------------------------------------------------
 Center     Atomic      Atomic             Coordinates (Angstroms)
 Number     Number       Type             X           Y           Z
 ---------------------------------------------------------------------
      1          6           0       -0.714456    0.217245    2.308616
      2          6           0       -1.206191    1.295126    1.565050
      3          6           0       -2.041133    1.076842    0.465154
      4          6           0       -2.365568   -0.238194    0.135441
      5          6           0       -1.891598   -1.333000    0.856580
      6          6           0       -1.058123   -1.091071    1.952636
      7          1           0       -0.066423    0.395997    3.161551
      8          1           0       -0.940956    2.312248    1.839201
      9          1           0       -2.435898    1.892872   -0.127867
     10          1           0       -2.173509   -2.335683    0.558969
     11          1           0       -0.677711   -1.930100    2.528277
     12          7           0       -3.248707   -0.481797   -1.026937
     13          8           0       -3.519751   -1.649831   -1.296879
     14          8           0       -3.653146    0.499914   -1.646058
     15          6           0        2.777571   -0.487459   -0.592681
     16          6           0        3.936064   -1.336067   -0.067569
     17          6           0        3.793640   -2.816124   -0.423857
     18          1           0        1.833621   -0.874900   -0.185505
     19          1           0        2.716142   -0.598548   -1.684140
     20          1           0        3.996155   -1.222325    1.022417
     21          1           0        4.877383   -0.946444   -0.475891
     22          1           0        3.756211   -2.949050   -1.509919
     23          1           0        2.869976   -3.226500   -0.003099
     24          1           0        4.632483   -3.404278   -0.038789
     25          6           0        2.905670    0.994456   -0.244476
     26          6           0        1.747177    1.843064   -0.769589
     27          6           0        1.889601    3.323120   -0.413300
     28          1           0        2.967099    1.105544    0.846982
     29          1           0        3.849620    1.381896   -0.651653
     30          1           0        0.805858    1.453439   -0.361266
     31          1           0        1.687086    1.729322   -1.859574
     32          1           0        2.813265    3.733496   -0.834059
     33          1           0        1.927030    3.456047    0.672761
     34          1           0        1.050759    3.911274   -0.798369
 ---------------------------------------------------------------------

 SCF Done:  E(RHF) =  -669.534966247     A.U. after   15 cycles
 E2 =    -0.2093888151D+01 EUMP2 =    -0.67162885439817D+03

 The electronic state is 1-A.
 Alpha  occ. eigenvalues --  -20.60855 -20.60850 -15.85911 -11.31333 -11.27909
 Alpha  occ. eigenvalues --  -11.27886 -11.27654 -11.26954 -11.26902 -11.21907
 Alpha  occ. eigenvalues --  -11.21731 -11.21674 -11.21586 -11.21532 -11.21360
 Alpha  occ. eigenvalues --   -1.59929  -1.39481  -1.19523  -1.08908  -1.08697
 Alpha  occ. eigenvalues --   -1.04939  -1.03831  -0.96307  -0.95721  -0.87319
 Alpha  occ. eigenvalues --   -0.86315  -0.82553  -0.79888  -0.78513  -0.77587
 Alpha  occ. eigenvalues --   -0.72128  -0.71252  -0.70608  -0.65384  -0.65166
 Alpha  occ. eigenvalues --   -0.64903  -0.62273  -0.61260  -0.59674  -0.57910
 Alpha  occ. eigenvalues --   -0.55624  -0.55405  -0.53343  -0.53002  -0.52978
 Alpha  occ. eigenvalues --   -0.52720  -0.50252  -0.48892  -0.48879  -0.48207
 Alpha  occ. eigenvalues --   -0.46928  -0.46045  -0.45934  -0.44872  -0.44077
 Alpha  occ. eigenvalues --   -0.37484  -0.36427
 Alpha virt. eigenvalues --    0.04932   0.11060   0.16377   0.20591   0.22843
 Alpha virt. eigenvalues --    0.23801   0.26291   0.26692   0.27064   0.28305
 Alpha virt. eigenvalues --    0.28402   0.30513   0.31156   0.31437   0.31796

 Mulliken charges:
               1
     1  C   -0.170021
     2  C   -0.220553
     3  C   -0.171229
     4  C    0.160805
     5  C   -0.171222
     6  C   -0.218553
     7  H    0.226545
     8  H    0.226712
     9  H    0.276784
    10  H    0.276486
    11  H    0.224447
    12  N    0.488130
    13  O   -0.459901
    14  O   -0.459871
    15  C   -0.301029
    16  C   -0.299345
    17  C   -0.475101
    18  H    0.150829
    19  H    0.152316
    20  H    0.147820
    21  H    0.153105
    22  H    0.157972
    23  H    0.152295
    24  H    0.160369
    25  C   -0.295824
    26  C   -0.310361
    27  C   -0.476228
    28  H    0.142490
    29  H    0.150324
    30  H    0.162542
    31  H    0.154730
    32  H    0.158405
    33  H    0.147307
    34  H    0.158823
 Sum of Mulliken charges =  -0.00000

 Dipole moment (field-independent basis, Debye):
    X=              2.9870    Y=              0.8016    Z=              4.0562  Tot=              5.1007
 Quadrupole moment (field-independent basis, Debye-Ang):
   XX=           -110.1172   YY=            -91.7174   ZZ=            -93.3342
   XY=             -3.1491   XZ=             -9.9593   YZ=             -2.1246

 Normal termination of Gaussian 16 at Thu May  6 02:57:14 2021.
