 Gaussian 16, Revision A.03,
 Gaussian 16:  EM64L-G16RevA.03 25-Dec-2016

 -------------
 #p 6-31g* mp2
 -------------

 ------------------------------------------------------
 Input file generated by CHIRIPA (05-May-2021 14:53:13)
 ------------------------------------------------------
 Symbolic Z-matrix:
 Charge =  0 Multiplicity = 1

                         Standard orientation:
 ---------------------------------------------------------------------
 Center     Atomic      Atomic             Coordinates (Angstroms)
 Number     Number       Type             X           Y           Z
 ---------------------------------------------------------------------
      1          6           0       -3.622867    0.754423    0.013964
      2          6           0       -4.161333   -0.602702    0.468113
      3          6           0       -5.687911   -0.636702    0.546824
      4          1           0       -3.973094    1.531361    0.707256
      5          1           0       -4.047200    0.998910   -0.969684
      6          1           0       -3.735032   -0.845191    1.449990
      7          1           0       -3.809625   -1.376526   -0.226232
      8          1           0       -6.129023   -0.419997   -0.431471
      9          1           0       -6.054006    0.114357    1.254275
     10          1           0       -6.051358   -1.616036    0.873431
     11          6           0       -2.098311    0.804110   -0.069630
     12          6           0       -1.559845    2.161235   -0.523778
     13          6           0       -0.033267    2.195235   -0.602490
     14          1           0       -1.673979    0.559623    0.914018
     15          1           0       -1.748084    0.027172   -0.762921
     16          1           0       -1.911553    2.935059    0.170566
     17          1           0       -1.986146    2.403724   -1.505655
     18          1           0        0.332827    1.444176   -1.309941
     19          1           0        0.407845    1.978530    0.375805
     20          1           0        0.330179    3.174569   -0.929096
     21          6           0        3.976466    1.001822    0.881125
     22          6           0        3.214141    0.249539    1.780820
     23          6           0        2.246364   -0.645910    1.315928
     24          6           0        2.066461   -0.764512   -0.061337
     25          6           0        2.810153   -0.028990   -0.982869
     26          6           0        3.772399    0.860406   -0.495422
     27          1           0        4.726111    1.695077    1.251024
     28          1           0        3.370458    0.357302    2.850398
     29          1           0        1.642229   -1.240654    1.990256
     30          1           0        2.631510   -0.158143   -2.043447
     31          1           0        4.362966    1.443345   -1.196463
     32          7           0        1.044845   -1.709279   -0.565437
     33          8           0        0.905617   -1.795421   -1.783563
     34          8           0        0.402678   -2.345757    0.267122
 ---------------------------------------------------------------------

 SCF Done:  E(RHF) =  -669.534831366     A.U. after   15 cycles
 E2 =    -0.2094580140D+01 EUMP2 =    -0.67162941150674D+03

 The electronic state is 1-A.
 Alpha  occ. eigenvalues --  -20.60853 -20.60848 -15.85872 -11.31147 -11.27773
 Alpha  occ. eigenvalues --  -11.27738 -11.27523 -11.26794 -11.26766 -11.21226
 Alpha  occ. eigenvalues --  -11.20869 -11.20838 -11.20810 -11.20753 -11.20484
 Alpha  occ. eigenvalues --   -1.59909  -1.39467  -1.19372  -1.08776  -1.07881
 Alpha  occ. eigenvalues --   -1.04778  -1.03041  -0.95633  -0.95501  -0.86553
 Alpha  occ. eigenvalues --   -0.86169  -0.82457  -0.79109  -0.77678  -0.77505
 Alpha  occ. eigenvalues --   -0.72104  -0.71214  -0.70497  -0.65032  -0.64785
 Alpha  occ. eigenvalues --   -0.64506  -0.62132  -0.60439  -0.58899  -0.57180
 Alpha  occ. eigenvalues --   -0.55290  -0.54812  -0.53387  -0.52871  -0.52206
 Alpha  occ. eigenvalues --   -0.51668  -0.49482  -0.48867  -0.48858  -0.47371
 Alpha  occ. eigenvalues --   -0.46140  -0.45230  -0.45133  -0.44800  -0.43279
 Alpha  occ. eigenvalues --   -0.37293  -0.36327
 Alpha virt. eigenvalues --    0.04993   0.11197   0.16515   0.21340   0.23337
 Alpha virt. eigenvalues --    0.24605   0.26904   0.27419   0.27626   0.28453
 Alpha virt. eigenvalues --    0.28522   0.30839   0.31543   0.31919   0.32366

 Mulliken charges:
               1
     1  C   -0.298040
     2  C   -0.300039
     3  C   -0.475735
     4  H    0.145848
     5  H    0.148872
     6  H    0.151899
     7  H    0.160975
     8  H    0.154136
     9  H    0.152031
    10  H    0.160172
    11  C   -0.303996
    12  C   -0.298145
    13  C   -0.480104
    14  H    0.147058
    15  H    0.162136
    16  H    0.148755
    17  H    0.151991
    18  H    0.155804
    19  H    0.154879
    20  H    0.155442
    21  C   -0.170476
    22  C   -0.218973
    23  C   -0.172504
    24  C    0.164859
    25  C   -0.171103
    26  C   -0.216397
    27  H    0.225754
    28  H    0.223423
    29  H    0.275423
    30  H    0.274945
    31  H    0.223565
    32  N    0.489113
    33  O   -0.462450
    34  O   -0.459119
 Sum of Mulliken charges =  -0.00000

 Dipole moment (field-independent basis, Debye):
    X=              3.7007    Y=              3.1661    Z=              1.7460  Tot=              5.1737
 Quadrupole moment (field-independent basis, Debye-Ang):
   XX=            -81.6629   YY=           -100.5659   ZZ=            -89.7350
   XY=              4.8414   XZ=              2.6099   YZ=             -2.5942

 Normal termination of Gaussian 16 at Wed May  5 21:46:45 2021.
