 Gaussian 16, Revision A.03,
 Gaussian 16:  EM64L-G16RevA.03 25-Dec-2016

 -------------
 #p 6-31g* mp2
 -------------

 ------------------------------------------------------
 Input file generated by CHIRIPA (05-May-2021 14:51:08)
 ------------------------------------------------------
 Symbolic Z-matrix:
 Charge =  0 Multiplicity = 1

                         Standard orientation:
 ---------------------------------------------------------------------
 Center     Atomic      Atomic             Coordinates (Angstroms)
 Number     Number       Type             X           Y           Z
 ---------------------------------------------------------------------
      1          6           0        2.261688    0.721165   -0.074561
      2          6           0        3.176192    1.749701    0.591607
      3          6           0        2.592032    3.162515    0.569071
      4          1           0        2.073895    1.025303   -1.113397
      5          1           0        1.287144    0.724131    0.433031
      6          1           0        4.149180    1.743815    0.083793
      7          1           0        3.361984    1.442978    1.628921
      8          1           0        1.631172    3.190496    1.093062
      9          1           0        2.422841    3.493043   -0.460845
     10          1           0        3.262040    3.881700    1.050445
     11          6           0        2.831969   -0.695978   -0.059938
     12          6           0        1.917464   -1.724513   -0.726107
     13          6           0        2.501624   -3.137327   -0.703570
     14          1           0        3.806513   -0.698943   -0.567531
     15          1           0        3.019761   -1.000115    0.978897
     16          1           0        1.731672   -1.417791   -1.763420
     17          1           0        0.944476   -1.718627   -0.218292
     18          1           0        2.670816   -3.467855    0.326345
     19          1           0        3.462484   -3.165309   -1.227561
     20          1           0        1.831616   -3.856512   -1.184945
     21          6           0       -2.917178    0.560734   -0.275633
     22          6           0       -2.246493    1.920446   -0.077270
     23          6           0       -2.999139    3.057396   -0.769127
     24          1           0       -2.994067    0.350362   -1.351168
     25          1           0       -3.945778    0.607607    0.108007
     26          1           0       -1.219011    1.870615   -0.459912
     27          1           0       -2.171018    2.127520    0.997923
     28          1           0       -4.019854    3.135899   -0.381083
     29          1           0       -3.062438    2.877534   -1.847201
     30          1           0       -2.502380    4.020285   -0.614414
     31          6           0       -2.176479   -0.585922    0.410133
     32          6           0       -2.847163   -1.945634    0.211770
     33          6           0       -2.094518   -3.082584    0.903627
     34          1           0       -1.147878   -0.632795    0.026493
     35          1           0       -2.099589   -0.375549    1.485668
     36          1           0       -2.922638   -2.152708   -0.863423
     37          1           0       -3.874645   -1.895803    0.594412
     38          1           0       -2.031219   -2.902722    1.981700
     39          1           0       -1.073802   -3.161086    0.515582
     40          1           0       -2.591276   -4.045472    0.748913
 ---------------------------------------------------------------------

 SCF Done:  E(RHF) =  -470.732981031     A.U. after   11 cycles
 E2 =    -0.1584515960D+01 EUMP2 =    -0.47231749699134D+03

 The electronic state is 1-A.
 Alpha  occ. eigenvalues --  -11.21633 -11.21614 -11.21603 -11.21572 -11.21428
 Alpha  occ. eigenvalues --  -11.21386 -11.21368 -11.21326 -11.21110 -11.21080
 Alpha  occ. eigenvalues --  -11.21071 -11.21049  -1.08484  -1.08402  -1.03576
 Alpha  occ. eigenvalues --   -1.03506  -0.96011  -0.95965  -0.87025  -0.86985
 Alpha  occ. eigenvalues --   -0.79692  -0.79527  -0.78467  -0.78069  -0.65252
 Alpha  occ. eigenvalues --   -0.64909  -0.61100  -0.60800  -0.59429  -0.59275
 Alpha  occ. eigenvalues --   -0.57671  -0.57533  -0.55339  -0.55210  -0.52705
 Alpha  occ. eigenvalues --   -0.52663  -0.52453  -0.52376  -0.49952  -0.49915
 Alpha  occ. eigenvalues --   -0.48132  -0.47779  -0.46900  -0.46484  -0.46389
 Alpha  occ. eigenvalues --   -0.45785  -0.45732  -0.44897  -0.43809  -0.43767
 Alpha virt. eigenvalues --    0.20820   0.22130   0.23450   0.24575   0.25361
 Alpha virt. eigenvalues --    0.26361   0.26713   0.27064   0.28717   0.30041
 Alpha virt. eigenvalues --    0.30813   0.31448   0.31661   0.31855   0.32072

 Mulliken charges:
               1
     1  C   -0.304191
     2  C   -0.299494
     3  C   -0.476492
     4  H    0.148864
     5  H    0.155785
     6  H    0.151977
     7  H    0.152056
     8  H    0.156376
     9  H    0.154953
    10  H    0.160283
    11  C   -0.297374
    12  C   -0.311538
    13  C   -0.475390
    14  H    0.149671
    15  H    0.149815
    16  H    0.151284
    17  H    0.162412
    18  H    0.155656
    19  H    0.155523
    20  H    0.160337
    21  C   -0.297284
    22  C   -0.303435
    23  C   -0.475668
    24  H    0.149604
    25  H    0.149408
    26  H    0.156389
    27  H    0.150961
    28  H    0.155034
    29  H    0.155093
    30  H    0.160503
    31  C   -0.308919
    32  C   -0.299042
    33  C   -0.480722
    34  H    0.159975
    35  H    0.148522
    36  H    0.151946
    37  H    0.152049
    38  H    0.154869
    39  H    0.159651
    40  H    0.160551
 Sum of Mulliken charges =  -0.00000

 Dipole moment (field-independent basis, Debye):
    X=              0.0219    Y=             -0.0027    Z=              0.0006  Tot=              0.0221
 Quadrupole moment (field-independent basis, Debye-Ang):
   XX=            -84.6104   YY=            -86.7463   ZZ=            -83.4509
   XY=              0.7003   XZ=             -0.9928   YZ=              0.3186

 Normal termination of Gaussian 16 at Thu May  6 00:31:41 2021.
