 Gaussian 16, Revision A.03,
 Gaussian 16:  EM64L-G16RevA.03 25-Dec-2016

 -------------
 #p 6-31g* mp2
 -------------

 ------------------------------------------------------
 Input file generated by CHIRIPA (05-May-2021 14:57:25)
 ------------------------------------------------------
 Symbolic Z-matrix:
 Charge =  0 Multiplicity = 1

                         Standard orientation:
 ---------------------------------------------------------------------
 Center     Atomic      Atomic             Coordinates (Angstroms)
 Number     Number       Type             X           Y           Z
 ---------------------------------------------------------------------
      1          6           0       -0.553131   -1.260724    1.752895
      2          6           0       -0.673413   -1.712790    0.434681
      3          6           0       -1.713173   -1.255802   -0.380555
      4          6           0       -2.618972   -0.342807    0.157272
      5          6           0       -2.525821    0.126324    1.466672
      6          6           0       -1.478087   -0.344226    2.263783
      7          1           0        0.257677   -1.620991    2.379150
      8          1           0        0.043463   -2.424543    0.035253
      9          1           0       -1.829842   -1.589253   -1.404575
     10          1           0       -3.255796    0.835965    1.836757
     11          1           0       -1.387143    0.008586    3.287158
     12          7           0       -3.723940    0.148165   -0.696188
     13          8           0       -4.508984    0.952404   -0.198652
     14          8           0       -3.784047   -0.280547   -1.846505
     15          6           0        1.547770    2.769531   -0.028417
     16          6           0        2.330625    2.197511    0.979774
     17          6           0        2.828571    0.898516    0.841171
     18          6           0        2.522814    0.196941   -0.323988
     19          6           0        1.745568    0.739358   -1.346222
     20          6           0        1.258250    2.039915   -1.186157
     21          1           0        1.165081    3.779227    0.087589
     22          1           0        2.557070    2.761795    1.879969
     23          1           0        3.437044    0.431411    1.606020
     24          1           0        1.536698    0.152137   -2.232203
     25          1           0        0.650526    2.481609   -1.970773
     26          7           0        3.044342   -1.179074   -0.482081
     27          8           0        2.760734   -1.776296   -1.518193
     28          8           0        3.726847   -1.634316    0.433112
 ---------------------------------------------------------------------

 SCF Done:  E(RHF) =  -868.339146925     A.U. after   16 cycles
 E2 =    -0.2602141479D+01 EUMP2 =    -0.87094128840411D+03

 The electronic state is 1-A.
 Alpha  occ. eigenvalues --  -20.61633 -20.61626 -20.60939 -20.60933 -15.86646
 Alpha  occ. eigenvalues --  -15.85986 -11.31718 -11.31239 -11.28306 -11.28238
 Alpha  occ. eigenvalues --  -11.27937 -11.27817 -11.27743 -11.27455 -11.27252
 Alpha  occ. eigenvalues --  -11.27160 -11.26810 -11.26646  -1.60712  -1.60020
 Alpha  occ. eigenvalues --   -1.40270  -1.39576  -1.19878  -1.19386  -1.09324
 Alpha  occ. eigenvalues --   -1.08799  -1.05241  -1.04766  -0.96205  -0.95656
 Alpha  occ. eigenvalues --   -0.86655  -0.86173  -0.83047  -0.82484  -0.78138
 Alpha  occ. eigenvalues --   -0.77558  -0.72867  -0.72213  -0.72051  -0.71349
 Alpha  occ. eigenvalues --   -0.70986  -0.70473  -0.65534  -0.65238  -0.65032
 Alpha  occ. eigenvalues --   -0.64737  -0.62602  -0.62103  -0.55739  -0.55246
 Alpha  occ. eigenvalues --   -0.53898  -0.53329  -0.52838  -0.52789  -0.49650
 Alpha  occ. eigenvalues --   -0.49603  -0.48968  -0.48951  -0.45725  -0.45006
 Alpha  occ. eigenvalues --   -0.38085  -0.37334  -0.36842  -0.36089
 Alpha virt. eigenvalues --    0.04320   0.04936   0.10762   0.11254   0.15945
 Alpha virt. eigenvalues --    0.16531   0.20840   0.21612   0.26720   0.27198
 Alpha virt. eigenvalues --    0.28107   0.28330   0.30687   0.30976   0.32255

 Mulliken charges:
               1
     1  C   -0.171318
     2  C   -0.227171
     3  C   -0.174080
     4  C    0.157890
     5  C   -0.172756
     6  C   -0.218119
     7  H    0.229856
     8  H    0.238392
     9  H    0.276279
    10  H    0.273462
    11  H    0.221219
    12  N    0.487382
    13  O   -0.461942
    14  O   -0.460984
    15  C   -0.169146
    16  C   -0.218403
    17  C   -0.174458
    18  C    0.159725
    19  C   -0.168929
    20  C   -0.217678
    21  H    0.228696
    22  H    0.223321
    23  H    0.272865
    24  H    0.275338
    25  H    0.229095
    26  N    0.484819
    27  O   -0.461775
    28  O   -0.461580
 Sum of Mulliken charges =  -0.00000

 Dipole moment (field-independent basis, Debye):
    X=              2.1299    Y=              3.1968    Z=              3.4983  Tot=              5.1956
 Quadrupole moment (field-independent basis, Debye-Ang):
   XX=           -135.0400   YY=           -100.7359   ZZ=            -97.7785
   XY=             14.4581   XZ=             -4.4536   YZ=             -0.1557

 Normal termination of Gaussian 16 at Thu May  6 06:45:55 2021.
