 Gaussian 16, Revision A.03,
 Gaussian 16:  EM64L-G16RevA.03 25-Dec-2016

 -------------
 #p 6-31g* mp2
 -------------

 ------------------------------------------------------
 Input file generated by CHIRIPA (05-May-2021 14:51:11)
 ------------------------------------------------------
 Symbolic Z-matrix:
 Charge =  0 Multiplicity = 1

                         Standard orientation:
 ---------------------------------------------------------------------
 Center     Atomic      Atomic             Coordinates (Angstroms)
 Number     Number       Type             X           Y           Z
 ---------------------------------------------------------------------
      1          6           0       -2.901463   -0.840274   -0.295605
      2          6           0       -1.479795   -1.259074   -0.671706
      3          6           0       -1.349510   -2.764304   -0.906448
      4          1           0       -3.209176   -1.381929    0.609308
      5          1           0       -3.590463   -1.148786   -1.094038
      6          1           0       -0.793490   -0.948636    0.126560
      7          1           0       -1.175360   -0.716217   -1.575720
      8          1           0       -2.011161   -3.086480   -1.717017
      9          1           0       -1.627121   -3.320220   -0.005065
     10          1           0       -0.325172   -3.041701   -1.174110
     11          6           0       -3.047665    0.661650   -0.057744
     12          6           0       -4.469332    1.080450    0.318357
     13          6           0       -4.599617    2.585679    0.553098
     14          1           0       -2.358665    0.970161    0.740688
     15          1           0       -2.739951    1.203304   -0.962658
     16          1           0       -4.773768    0.537592    1.222370
     17          1           0       -5.155638    0.770011   -0.479909
     18          1           0       -4.322007    3.141595   -0.348284
     19          1           0       -3.937967    2.907855    1.363667
     20          1           0       -5.623955    2.863077    0.820761
     21          6           0        3.178261    0.620436   -0.333077
     22          6           0        3.683247    1.913692    0.307596
     23          6           0        4.086937    2.966551   -0.725029
     24          1           0        3.960965    0.212997   -0.987534
     25          1           0        2.319372    0.850348   -0.978712
     26          1           0        4.540065    1.681210    0.952911
     27          1           0        2.899321    2.317997    0.960752
     28          1           0        3.235774    3.227326   -1.362305
     29          1           0        4.885840    2.586920   -1.370191
     30          1           0        4.444854    3.882852   -0.245291
     31          6           0        2.770866   -0.441811    0.686428
     32          6           0        2.265880   -1.735067    0.045753
     33          6           0        1.862191   -2.787927    1.078379
     34          1           0        3.629756   -0.671724    1.332063
     35          1           0        1.988163   -0.034373    1.340884
     36          1           0        3.049806   -2.139372   -0.607403
     37          1           0        1.409063   -1.502584   -0.599561
     38          1           0        1.063287   -2.408295    1.723541
     39          1           0        2.713353   -3.048701    1.715655
     40          1           0        1.504273   -3.704227    0.598641
 ---------------------------------------------------------------------

 SCF Done:  E(RHF) =  -470.731809645     A.U. after   11 cycles
 E2 =    -0.1584649096D+01 EUMP2 =    -0.47231645874136D+03

 The electronic state is 1-A.
 Alpha  occ. eigenvalues --  -11.21652 -11.21638 -11.21582 -11.21485 -11.21452
 Alpha  occ. eigenvalues --  -11.21393 -11.21377 -11.21318 -11.21103 -11.21056
 Alpha  occ. eigenvalues --  -11.21043 -11.21025  -1.08506  -1.08376  -1.03666
 Alpha  occ. eigenvalues --   -1.03416  -0.96096  -0.95876  -0.87065  -0.86932
 Alpha  occ. eigenvalues --   -0.79710  -0.79515  -0.78345  -0.78173  -0.65261
 Alpha  occ. eigenvalues --   -0.64940  -0.61310  -0.60729  -0.59621  -0.59079
 Alpha  occ. eigenvalues --   -0.57819  -0.57297  -0.55421  -0.55063  -0.52825
 Alpha  occ. eigenvalues --   -0.52554  -0.52461  -0.52285  -0.50011  -0.49831
 Alpha  occ. eigenvalues --   -0.48022  -0.47829  -0.46734  -0.46521  -0.45929
 Alpha  occ. eigenvalues --   -0.45786  -0.45703  -0.45525  -0.43846  -0.43722
 Alpha virt. eigenvalues --    0.20648   0.23201   0.23412   0.25167   0.25937
 Alpha virt. eigenvalues --    0.26131   0.26819   0.27709   0.28470   0.29405
 Alpha virt. eigenvalues --    0.29701   0.31074   0.31296   0.31983   0.32761

 Mulliken charges:
               1
     1  C   -0.297810
     2  C   -0.305154
     3  C   -0.479116
     4  H    0.149902
     5  H    0.149840
     6  H    0.155481
     7  H    0.151347
     8  H    0.154951
     9  H    0.155775
    10  H    0.165346
    11  C   -0.298306
    12  C   -0.299697
    13  C   -0.475733
    14  H    0.149005
    15  H    0.149543
    16  H    0.152072
    17  H    0.152117
    18  H    0.155200
    19  H    0.155136
    20  H    0.160439
    21  C   -0.298428
    22  C   -0.299595
    23  C   -0.475700
    24  H    0.149544
    25  H    0.149959
    26  H    0.151837
    27  H    0.151843
    28  H    0.155207
    29  H    0.155103
    30  H    0.160178
    31  C   -0.298013
    32  C   -0.310051
    33  C   -0.476551
    34  H    0.149465
    35  H    0.148726
    36  H    0.151566
    37  H    0.163366
    38  H    0.154606
    39  H    0.155089
    40  H    0.161510
 Sum of Mulliken charges =  -0.00000

 Dipole moment (field-independent basis, Debye):
    X=             -0.0292    Y=             -0.0156    Z=             -0.0149  Tot=              0.0363
 Quadrupole moment (field-independent basis, Debye-Ang):
   XX=            -84.1116   YY=            -86.4936   ZZ=            -84.2568
   XY=             -0.3921   XZ=              0.4271   YZ=              0.2039

 Normal termination of Gaussian 16 at Wed May  5 19:50:32 2021.
