 Gaussian 16, Revision A.03,
 Gaussian 16:  EM64L-G16RevA.03 25-Dec-2016

 -------------
 #p 6-31g* mp2
 -------------

 ------------------------------------------------------
 Input file generated by CHIRIPA (05-May-2021 14:57:23)
 ------------------------------------------------------
 Symbolic Z-matrix:
 Charge =  0 Multiplicity = 1

                         Standard orientation:
 ---------------------------------------------------------------------
 Center     Atomic      Atomic             Coordinates (Angstroms)
 Number     Number       Type             X           Y           Z
 ---------------------------------------------------------------------
      1          6           0       -2.807689    2.521335    0.716148
      2          6           0       -1.908701    1.476558    0.477859
      3          6           0       -2.371532    0.217746    0.083235
      4          6           0       -3.746039    0.037994   -0.064113
      5          6           0       -4.666800    1.059077    0.165839
      6          6           0       -4.181448    2.309633    0.559653
      7          1           0       -2.439403    3.496004    1.022387
      8          1           0       -0.841286    1.638085    0.598602
      9          1           0       -1.697693   -0.608605   -0.107823
     10          1           0       -5.725204    0.867680    0.037123
     11          1           0       -4.881933    3.119185    0.744021
     12          7           0       -4.247939   -1.290284   -0.481455
     13          8           0       -5.463650   -1.422998   -0.604216
     14          8           0       -3.416114   -2.173523   -0.677905
     15          6           0        1.762031   -1.739081    0.739773
     16          6           0        2.952435   -1.705970    1.473506
     17          6           0        4.012480   -0.888468    1.070338
     18          6           0        3.847129   -0.113619   -0.076640
     19          6           0        2.673517   -0.124773   -0.828836
     20          6           0        1.626610   -0.949768   -0.407034
     21          1           0        0.943666   -2.377046    1.060201
     22          1           0        3.060419   -2.317891    2.364538
     23          1           0        4.945007   -0.843568    1.619697
     24          1           0        2.595525    0.496490   -1.712786
     25          1           0        0.703275   -0.973463   -0.978818
     26          7           0        4.962396    0.755800   -0.513320
     27          8           0        4.791687    1.428927   -1.527417
     28          8           0        5.986135    0.747659    0.166776
 ---------------------------------------------------------------------

 SCF Done:  E(RHF) =  -868.338032148     A.U. after   16 cycles
 E2 =    -0.2599720614D+01 EUMP2 =    -0.87093775276186D+03

 The electronic state is 1-A.
 Alpha  occ. eigenvalues --  -20.61450 -20.61416 -20.61164 -20.61156 -15.86487
 Alpha  occ. eigenvalues --  -15.86221 -11.31829 -11.31651 -11.28467 -11.28322
 Alpha  occ. eigenvalues --  -11.28278 -11.28221 -11.28035 -11.27967 -11.27364
 Alpha  occ. eigenvalues --  -11.27323 -11.27310 -11.27199  -1.60507  -1.60239
 Alpha  occ. eigenvalues --   -1.40065  -1.39790  -1.19974  -1.19842  -1.09356
 Alpha  occ. eigenvalues --   -1.09215  -1.05385  -1.05251  -0.96211  -0.96032
 Alpha  occ. eigenvalues --   -0.86777  -0.86641  -0.83048  -0.82862  -0.78136
 Alpha  occ. eigenvalues --   -0.77894  -0.72706  -0.72434  -0.71827  -0.71566
 Alpha  occ. eigenvalues --   -0.71091  -0.70898  -0.65632  -0.65500  -0.65420
 Alpha  occ. eigenvalues --   -0.65197  -0.62848  -0.62472  -0.55840  -0.55705
 Alpha  occ. eigenvalues --   -0.53696  -0.53584  -0.53515  -0.53269  -0.49475
 Alpha  occ. eigenvalues --   -0.49446  -0.49198  -0.49186  -0.45477  -0.45180
 Alpha  occ. eigenvalues --   -0.37917  -0.37816  -0.36982  -0.36875
 Alpha virt. eigenvalues --    0.04410   0.04638   0.10658   0.10671   0.15918
 Alpha virt. eigenvalues --    0.16096   0.18884   0.21864   0.24932   0.27181
 Alpha virt. eigenvalues --    0.27653   0.29086   0.30439   0.30822   0.31424

 Mulliken charges:
               1
     1  C   -0.170418
     2  C   -0.220144
     3  C   -0.177105
     4  C    0.160982
     5  C   -0.170279
     6  C   -0.217865
     7  H    0.229100
     8  H    0.226780
     9  H    0.267204
    10  H    0.277293
    11  H    0.226136
    12  N    0.488113
    13  O   -0.456759
    14  O   -0.465132
    15  C   -0.172625
    16  C   -0.218862
    17  C   -0.170120
    18  C    0.158339
    19  C   -0.172583
    20  C   -0.229304
    21  H    0.231981
    22  H    0.226337
    23  H    0.277302
    24  H    0.276852
    25  H    0.225900
    26  N    0.487941
    27  O   -0.460074
    28  O   -0.458990
 Sum of Mulliken charges =  -0.00000

 Dipole moment (field-independent basis, Debye):
    X=             -2.1736    Y=              1.6961    Z=              3.1046  Tot=              4.1521
 Quadrupole moment (field-independent basis, Debye-Ang):
   XX=           -141.6769   YY=           -103.4219   ZZ=           -103.2788
   XY=            -32.4263   XZ=              2.9108   YZ=             -1.5605

 Normal termination of Gaussian 16 at Fri May  7 01:49:04 2021.
