 Gaussian 16, Revision A.03,
 Gaussian 16:  EM64L-G16RevA.03 25-Dec-2016

 -------------
 #p 6-31g* mp2
 -------------

 ------------------------------------------------------
 Input file generated by CHIRIPA (05-May-2021 14:55:25)
 ------------------------------------------------------
 Symbolic Z-matrix:
 Charge =  0 Multiplicity = 1

                         Standard orientation:
 ---------------------------------------------------------------------
 Center     Atomic      Atomic             Coordinates (Angstroms)
 Number     Number       Type             X           Y           Z
 ---------------------------------------------------------------------
      1          6           0       -2.157278    2.821405    0.256822
      2          6           0       -1.903534    1.945115    1.317129
      3          6           0       -2.228323    0.589453    1.211114
      4          6           0       -2.808325    0.142094    0.025046
      5          6           0       -3.073509    0.990333   -1.048946
      6          6           0       -2.740427    2.342062   -0.920756
      7          1           0       -1.901753    3.872988    0.347790
      8          1           0       -1.450745    2.314584    2.232837
      9          1           0       -2.042800   -0.110851    2.016456
     10          1           0       -3.525850    0.592574   -1.949275
     11          1           0       -2.938632    3.020303   -1.745830
     12          7           0       -3.156553   -1.291003   -0.098925
     13          8           0       -3.666710   -1.660260   -1.154400
     14          8           0       -2.912746   -2.017872    0.861729
     15          6           0        3.145779   -1.137373    0.067757
     16          6           0        1.631936   -1.009767   -0.105402
     17          6           0        0.894794   -2.324761    0.149953
     18          1           0        3.522905   -1.909654   -0.616569
     19          1           0        3.363025   -1.488849    1.085924
     20          1           0        1.417671   -0.657312   -1.122498
     21          1           0        1.258397   -0.237565    0.579279
     22          1           0        1.079233   -2.678068    1.169637
     23          1           0        1.239412   -3.100200   -0.541809
     24          1           0       -0.186021   -2.210790    0.020685
     25          6           0        3.896608    0.168962   -0.184181
     26          6           0        5.410450    0.041355   -0.011021
     27          6           0        6.147592    1.356350   -0.266377
     28          1           0        3.679361    0.520437   -1.202348
     29          1           0        3.519482    0.941243    0.500146
     30          1           0        5.783989   -0.730846   -0.695703
     31          1           0        5.624715   -0.311099    1.006073
     32          1           0        5.802974    2.131788    0.425385
     33          1           0        5.963153    1.709657   -1.286061
     34          1           0        7.228408    1.242379   -0.137109
 ---------------------------------------------------------------------

 SCF Done:  E(RHF) =  -669.536036129     A.U. after   15 cycles
 E2 =    -0.2091991749D+01 EUMP2 =    -0.67162802787883D+03

 The electronic state is 1-A.
 Alpha  occ. eigenvalues --  -20.60918 -20.60909 -15.85933 -11.31257 -11.27830
 Alpha  occ. eigenvalues --  -11.27821 -11.27560 -11.26836 -11.26821 -11.21637
 Alpha  occ. eigenvalues --  -11.21404 -11.21386 -11.21249 -11.21165 -11.20500
 Alpha  occ. eigenvalues --   -1.59977  -1.39532  -1.19428  -1.08833  -1.08356
 Alpha  occ. eigenvalues --   -1.04825  -1.03399  -0.95829  -0.95672  -0.86833
 Alpha  occ. eigenvalues --   -0.86225  -0.82508  -0.79468  -0.78171  -0.77562
 Alpha  occ. eigenvalues --   -0.72159  -0.71310  -0.70536  -0.65085  -0.64996
 Alpha  occ. eigenvalues --   -0.64828  -0.62174  -0.60803  -0.59205  -0.57445
 Alpha  occ. eigenvalues --   -0.55330  -0.55120  -0.53146  -0.52917  -0.52485
 Alpha  occ. eigenvalues --   -0.52254  -0.49773  -0.48926  -0.48917  -0.47786
 Alpha  occ. eigenvalues --   -0.46525  -0.45707  -0.45644  -0.44946  -0.43581
 Alpha  occ. eigenvalues --   -0.37400  -0.36412
 Alpha virt. eigenvalues --    0.04949   0.11204   0.16417   0.21296   0.22887
 Alpha virt. eigenvalues --    0.24287   0.26632   0.27223   0.27558   0.27845
 Alpha virt. eigenvalues --    0.28475   0.30817   0.31508   0.31851   0.32068

 Mulliken charges:
               1
     1  C   -0.170134
     2  C   -0.218842
     3  C   -0.170225
     4  C    0.157567
     5  C   -0.170606
     6  C   -0.218438
     7  H    0.225972
     8  H    0.223694
     9  H    0.276340
    10  H    0.275748
    11  H    0.223722
    12  N    0.487196
    13  O   -0.458287
    14  O   -0.457462
    15  C   -0.297924
    16  C   -0.300438
    17  C   -0.479313
    18  H    0.150821
    19  H    0.148945
    20  H    0.150485
    21  H    0.145693
    22  H    0.154337
    23  H    0.155592
    24  H    0.169261
    25  C   -0.297229
    26  C   -0.299506
    27  C   -0.475423
    28  H    0.148826
    29  H    0.146091
    30  H    0.152924
    31  H    0.151890
    32  H    0.153426
    33  H    0.154777
    34  H    0.160519
 Sum of Mulliken charges =  -0.00000

 Dipole moment (field-independent basis, Debye):
    X=              1.0778    Y=              5.0124    Z=              0.4189  Tot=              5.1440
 Quadrupole moment (field-independent basis, Debye-Ang):
   XX=           -102.3950   YY=            -94.2808   ZZ=            -89.5881
   XY=            -15.1291   XZ=              0.6500   YZ=             -0.2914

 Normal termination of Gaussian 16 at Wed May  5 16:08:18 2021.
