 Gaussian 16, Revision A.03,
 Gaussian 16:  EM64L-G16RevA.03 25-Dec-2016

 -------------
 #p 6-31g* mp2
 -------------

 ------------------------------------------------------
 Input file generated by CHIRIPA (05-May-2021 14:55:23)
 ------------------------------------------------------
 Symbolic Z-matrix:
 Charge =  0 Multiplicity = 1

                         Standard orientation:
 ---------------------------------------------------------------------
 Center     Atomic      Atomic             Coordinates (Angstroms)
 Number     Number       Type             X           Y           Z
 ---------------------------------------------------------------------
      1          6           0        4.929904    1.263380    0.586828
      2          6           0        3.643721    1.724622    0.886006
      3          6           0        2.519665    0.971214    0.534691
      4          6           0        2.719368   -0.244336   -0.117880
      5          6           0        3.987990   -0.730820   -0.429685
      6          6           0        5.097638    0.039289   -0.068907
      7          1           0        5.797502    1.855132    0.863414
      8          1           0        3.510442    2.674893    1.395189
      9          1           0        1.512619    1.304524    0.754193
     10          1           0        4.089091   -1.682037   -0.937998
     11          1           0        6.095318   -0.321410   -0.302522
     12          7           0        1.537007   -1.050776   -0.494811
     13          8           0        1.739757   -2.118350   -1.069106
     14          8           0        0.429910   -0.600019   -0.208817
     15          6           0       -3.441238    0.772209   -0.250413
     16          6           0       -4.305719    2.014858   -0.034815
     17          6           0       -3.714421    3.266316   -0.684442
     18          1           0       -2.436795    0.957393    0.154240
     19          1           0       -3.317366    0.602891   -1.329014
     20          1           0       -4.429071    2.180983    1.043054
     21          1           0       -5.308278    1.826625   -0.439858
     22          1           0       -3.607015    3.125416   -1.764818
     23          1           0       -2.722813    3.481789   -0.273482
     24          1           0       -4.348427    4.142778   -0.517985
     25          6           0       -4.019204   -0.486961    0.393151
     26          6           0       -3.154725   -1.729610    0.177553
     27          6           0       -3.746022   -2.981068    0.827180
     28          1           0       -4.143077   -0.317644    1.471753
     29          1           0       -5.023649   -0.672145   -0.011502
     30          1           0       -2.152165   -1.541377    0.582596
     31          1           0       -3.031371   -1.895735   -0.900316
     32          1           0       -4.737629   -3.196541    0.416220
     33          1           0       -3.853427   -2.840169    1.907556
     34          1           0       -3.112016   -3.857531    0.660724
 ---------------------------------------------------------------------

 SCF Done:  E(RHF) =  -669.535990990     A.U. after   15 cycles
 E2 =    -0.2091330835D+01 EUMP2 =    -0.67162732182515D+03

 The electronic state is 1-A.
 Alpha  occ. eigenvalues --  -20.60971 -20.60966 -15.86006 -11.31320 -11.27886
 Alpha  occ. eigenvalues --  -11.27878 -11.27617 -11.26888 -11.26878 -11.20863
 Alpha  occ. eigenvalues --  -11.20553 -11.20287 -11.20208 -11.19943 -11.19832
 Alpha  occ. eigenvalues --   -1.60031  -1.39588  -1.19487  -1.08892  -1.07326
 Alpha  occ. eigenvalues --   -1.04883  -1.02472  -0.95735  -0.94982  -0.86284
 Alpha  occ. eigenvalues --   -0.86009  -0.82572  -0.78535  -0.77633  -0.77036
 Alpha  occ. eigenvalues --   -0.72222  -0.71345  -0.70596  -0.65145  -0.64886
 Alpha  occ. eigenvalues --   -0.63968  -0.62232  -0.59882  -0.58366  -0.56546
 Alpha  occ. eigenvalues --   -0.55386  -0.54299  -0.53215  -0.52976  -0.51708
 Alpha  occ. eigenvalues --   -0.51396  -0.49072  -0.48981  -0.48908  -0.46833
 Alpha  occ. eigenvalues --   -0.45579  -0.44999  -0.44603  -0.44421  -0.42714
 Alpha  occ. eigenvalues --   -0.37465  -0.36484
 Alpha virt. eigenvalues --    0.04894   0.11171   0.16387   0.21216   0.23785
 Alpha virt. eigenvalues --    0.25294   0.26889   0.27446   0.28071   0.28765
 Alpha virt. eigenvalues --    0.29104   0.30995   0.32301   0.32469   0.32684

 Mulliken charges:
               1
     1  C   -0.170569
     2  C   -0.218484
     3  C   -0.170565
     4  C    0.157641
     5  C   -0.170546
     6  C   -0.218560
     7  H    0.226111
     8  H    0.223929
     9  H    0.275108
    10  H    0.275935
    11  H    0.223916
    12  N    0.492261
    13  O   -0.458671
    14  O   -0.463382
    15  C   -0.297912
    16  C   -0.299069
    17  C   -0.473798
    18  H    0.156709
    19  H    0.150326
    20  H    0.148532
    21  H    0.150044
    22  H    0.155291
    23  H    0.150901
    24  H    0.156870
    25  C   -0.298349
    26  C   -0.304335
    27  C   -0.475880
    28  H    0.143839
    29  H    0.144261
    30  H    0.175256
    31  H    0.153168
    32  H    0.149467
    33  H    0.149521
    34  H    0.161033
 Sum of Mulliken charges =  -0.00000

 Dipole moment (field-independent basis, Debye):
    X=              4.5487    Y=              2.7669    Z=              1.2625  Tot=              5.4718
 Quadrupole moment (field-independent basis, Debye-Ang):
   XX=            -71.9198   YY=            -95.6560   ZZ=            -94.5874
   XY=              4.3051   XZ=              2.6816   YZ=              1.7764

 Normal termination of Gaussian 16 at Wed May  5 17:33:41 2021.
