 Gaussian 16, Revision A.03,
 Gaussian 16:  EM64L-G16RevA.03 25-Dec-2016

 -------------
 #p 6-31g* mp2
 -------------

 ------------------------------------------------------
 Input file generated by CHIRIPA (05-May-2021 14:51:10)
 ------------------------------------------------------
 Symbolic Z-matrix:
 Charge =  0 Multiplicity = 1

                         Standard orientation:
 ---------------------------------------------------------------------
 Center     Atomic      Atomic             Coordinates (Angstroms)
 Number     Number       Type             X           Y           Z
 ---------------------------------------------------------------------
      1          6           0       -2.211731    0.892556    0.060033
      2          6           0       -2.352283    2.407040    0.216772
      3          6           0       -1.102502    3.058509    0.809587
      4          1           0       -1.994528    0.447431    1.040661
      5          1           0       -1.345425    0.676042   -0.580303
      6          1           0       -3.218892    2.620672    0.855494
      7          1           0       -2.569366    2.848590   -0.764311
      8          1           0       -0.232447    2.874628    0.171000
      9          1           0       -0.885663    2.645415    1.800009
     10          1           0       -1.224737    4.141210    0.912916
     11          6           0       -3.453057    0.226925   -0.531385
     12          6           0       -3.312506   -1.287559   -0.688124
     13          6           0       -4.562286   -1.939028   -1.280940
     14          1           0       -4.319363    0.443439    0.108950
     15          1           0       -3.670260    0.672050   -1.512013
     16          1           0       -3.095422   -1.729110    0.292959
     17          1           0       -2.445897   -1.501191   -1.326847
     18          1           0       -4.779125   -1.525934   -2.271362
     19          1           0       -5.432341   -1.755147   -0.642353
     20          1           0       -4.440051   -3.021730   -1.384269
     21          6           0        3.171007    0.008872   -0.145708
     22          6           0        4.481967   -0.405883   -0.814547
     23          6           0        5.147489    0.742450   -1.573630
     24          1           0        2.482011    0.392754   -0.910472
     25          1           0        3.366895    0.841070    0.544558
     26          1           0        4.283900   -1.237965   -1.502315
     27          1           0        5.167853   -0.789002   -0.048128
     28          1           0        5.373592    1.572193   -0.896131
     29          1           0        4.484617    1.120678   -2.358581
     30          1           0        6.083003    0.423913   -2.043955
     31          6           0        2.493781   -1.128353    0.617061
     32          6           0        1.182820   -0.713597    1.285900
     33          6           0        0.517300   -1.861931    2.044983
     34          1           0        2.297893   -1.960551   -0.073206
     35          1           0        3.182778   -1.512234    1.381825
     36          1           0        0.496936   -0.330479    0.519480
     37          1           0        1.380888    0.118485    1.973668
     38          1           0        1.180171   -2.240159    2.829933
     39          1           0        0.291196   -2.691673    1.367483
     40          1           0       -0.418215   -1.543394    2.515307
 ---------------------------------------------------------------------

 SCF Done:  E(RHF) =  -470.732756533     A.U. after   11 cycles
 E2 =    -0.1584020269D+01 EUMP2 =    -0.47231677680195D+03

 The electronic state is 1-A.
 Alpha  occ. eigenvalues --  -11.21625 -11.21615 -11.21583 -11.21425 -11.21425
 Alpha  occ. eigenvalues --  -11.21366 -11.21365 -11.21289 -11.21090 -11.21061
 Alpha  occ. eigenvalues --  -11.21056 -11.21018  -1.08474  -1.08362  -1.03551
 Alpha  occ. eigenvalues --   -1.03467  -0.96001  -0.95929  -0.87012  -0.86950
 Alpha  occ. eigenvalues --   -0.79687  -0.79491  -0.78422  -0.78036  -0.65113
 Alpha  occ. eigenvalues --   -0.64992  -0.60957  -0.60867  -0.59415  -0.59262
 Alpha  occ. eigenvalues --   -0.57674  -0.57480  -0.55282  -0.55227  -0.52694
 Alpha  occ. eigenvalues --   -0.52624  -0.52430  -0.52360  -0.49942  -0.49873
 Alpha  occ. eigenvalues --   -0.48093  -0.47758  -0.46738  -0.46611  -0.46087
 Alpha  occ. eigenvalues --   -0.45755  -0.45665  -0.45130  -0.43802  -0.43729
 Alpha virt. eigenvalues --    0.21015   0.23001   0.23807   0.23898   0.24869
 Alpha virt. eigenvalues --    0.26307   0.26810   0.27912   0.28893   0.29764
 Alpha virt. eigenvalues --    0.30710   0.31378   0.31514   0.31738   0.32167

 Mulliken charges:
               1
     1  C   -0.303438
     2  C   -0.299399
     3  C   -0.476280
     4  H    0.153987
     5  H    0.151133
     6  H    0.151823
     7  H    0.151720
     8  H    0.156036
     9  H    0.155769
    10  H    0.160023
    11  C   -0.297534
    12  C   -0.300457
    13  C   -0.475642
    14  H    0.149554
    15  H    0.149487
    16  H    0.153182
    17  H    0.151109
    18  H    0.155145
    19  H    0.155317
    20  H    0.160359
    21  C   -0.298065
    22  C   -0.299550
    23  C   -0.475670
    24  H    0.148163
    25  H    0.149895
    26  H    0.151769
    27  H    0.152073
    28  H    0.155274
    29  H    0.154872
    30  H    0.160197
    31  C   -0.297937
    32  C   -0.307347
    33  C   -0.476406
    34  H    0.148871
    35  H    0.149092
    36  H    0.162312
    37  H    0.151257
    38  H    0.154711
    39  H    0.155336
    40  H    0.159260
 Sum of Mulliken charges =  -0.00000

 Dipole moment (field-independent basis, Debye):
    X=             -0.0399    Y=              0.0205    Z=             -0.0040  Tot=              0.0450
 Quadrupole moment (field-independent basis, Debye-Ang):
   XX=            -85.4896   YY=            -85.6633   ZZ=            -83.7536
   XY=             -0.7281   XZ=              0.0659   YZ=              0.3121

 Normal termination of Gaussian 16 at Thu May  6 00:36:51 2021.
