 Gaussian 16, Revision A.03,
 Gaussian 16:  EM64L-G16RevA.03 25-Dec-2016

 -------------
 #p 6-31g* mp2
 -------------

 ------------------------------------------------------
 Input file generated by CHIRIPA (05-May-2021 14:57:25)
 ------------------------------------------------------
 Symbolic Z-matrix:
 Charge =  0 Multiplicity = 1

                         Standard orientation:
 ---------------------------------------------------------------------
 Center     Atomic      Atomic             Coordinates (Angstroms)
 Number     Number       Type             X           Y           Z
 ---------------------------------------------------------------------
      1          6           0        4.288647   -2.384331   -0.437347
      2          6           0        3.036876   -1.948149   -0.883818
      3          6           0        2.656286   -0.611157   -0.734978
      4          6           0        3.556277    0.266515   -0.132486
      5          6           0        4.810411   -0.137646    0.322589
      6          6           0        5.169866   -1.479283    0.163372
      7          1           0        4.576090   -3.424743   -0.557000
      8          1           0        2.350475   -2.648796   -1.350712
      9          1           0        1.693351   -0.246639   -1.071581
     10          1           0        5.473198    0.584232    0.784133
     11          1           0        6.142651   -1.815215    0.511055
     12          7           0        3.164551    1.684387    0.030577
     13          8           0        3.975556    2.437829    0.564649
     14          8           0        2.053928    2.015425   -0.378773
     15          6           0       -1.209355    0.236672    0.850761
     16          6           0       -1.796943    1.164185   -0.015831
     17          6           0       -3.132304    1.024788   -0.405612
     18          6           0       -3.853972   -0.058887    0.092518
     19          6           0       -3.296819   -0.999642    0.957302
     20          6           0       -1.959845   -0.840382    1.333710
     21          1           0       -0.171388    0.352674    1.148359
     22          1           0       -1.216514    2.001618   -0.392464
     23          1           0       -3.612145    1.728144   -1.075284
     24          1           0       -3.900822   -1.824127    1.316223
     25          1           0       -1.506131   -1.562239    2.006844
     26          7           0       -5.268513   -0.216975   -0.313047
     27          8           0       -5.882858   -1.180398    0.139757
     28          8           0       -5.736099    0.625533   -1.076055
 ---------------------------------------------------------------------

 SCF Done:  E(RHF) =  -868.340051659     A.U. after   16 cycles
 E2 =    -0.2599575977D+01 EUMP2 =    -0.87093962763580D+03

 The electronic state is 1-A.
 Alpha  occ. eigenvalues --  -20.61994 -20.61916 -20.60546 -20.60536 -15.86981
 Alpha  occ. eigenvalues --  -15.85591 -11.32131 -11.30887 -11.28670 -11.28628
 Alpha  occ. eigenvalues --  -11.28323 -11.27612 -11.27592 -11.27467 -11.27358
 Alpha  occ. eigenvalues --  -11.27052 -11.26482 -11.26235  -1.61011  -1.59621
 Alpha  occ. eigenvalues --   -1.40576  -1.39176  -1.20271  -1.19027  -1.09699
 Alpha  occ. eigenvalues --   -1.08420  -1.05631  -1.04402  -0.96572  -0.95273
 Alpha  occ. eigenvalues --   -0.87039  -0.85782  -0.83408  -0.82102  -0.78494
 Alpha  occ. eigenvalues --   -0.77171  -0.73208  -0.72331  -0.71807  -0.71359
 Alpha  occ. eigenvalues --   -0.70944  -0.70078  -0.65918  -0.65613  -0.64655
 Alpha  occ. eigenvalues --   -0.64345  -0.62974  -0.61726  -0.56119  -0.54859
 Alpha  occ. eigenvalues --   -0.53977  -0.53701  -0.52759  -0.52449  -0.49972
 Alpha  occ. eigenvalues --   -0.49923  -0.48571  -0.48557  -0.46012  -0.44597
 Alpha  occ. eigenvalues --   -0.38232  -0.37254  -0.36983  -0.36020
 Alpha virt. eigenvalues --    0.03984   0.05314   0.10356   0.11602   0.15530
 Alpha virt. eigenvalues --    0.16792   0.20533   0.21957   0.26459   0.27096
 Alpha virt. eigenvalues --    0.28022   0.28523   0.30492   0.31250   0.31827

 Mulliken charges:
               1
     1  C   -0.170171
     2  C   -0.219155
     3  C   -0.177421
     4  C    0.157035
     5  C   -0.170508
     6  C   -0.218193
     7  H    0.229022
     8  H    0.227317
     9  H    0.275269
    10  H    0.277486
    11  H    0.226661
    12  N    0.490120
    13  O   -0.453043
    14  O   -0.471645
    15  C   -0.178738
    16  C   -0.224242
    17  C   -0.172578
    18  C    0.158469
    19  C   -0.172749
    20  C   -0.220128
    21  H    0.230595
    22  H    0.241984
    23  H    0.275720
    24  H    0.273371
    25  H    0.220038
    26  N    0.488027
    27  O   -0.462216
    28  O   -0.460325
 Sum of Mulliken charges =  -0.00000

 Dipole moment (field-independent basis, Debye):
    X=              6.7913    Y=             -4.3739    Z=              0.8104  Tot=              8.1185
 Quadrupole moment (field-independent basis, Debye-Ang):
   XX=           -129.5508   YY=           -104.2871   ZZ=           -103.2171
   XY=            -19.3248   XZ=             -5.1651   YZ=             -1.5192

 Normal termination of Gaussian 16 at Thu May  6 18:05:30 2021.
