 Gaussian 16, Revision A.03,
 Gaussian 16:  EM64L-G16RevA.03 25-Dec-2016

 -------------
 #p 6-31g* mp2
 -------------

 ------------------------------------------------------
 Input file generated by CHIRIPA (05-May-2021 14:55:23)
 ------------------------------------------------------
 Symbolic Z-matrix:
 Charge =  0 Multiplicity = 1

                         Standard orientation:
 ---------------------------------------------------------------------
 Center     Atomic      Atomic             Coordinates (Angstroms)
 Number     Number       Type             X           Y           Z
 ---------------------------------------------------------------------
      1          6           0        3.083736   -2.467808    0.704803
      2          6           0        4.161383   -1.634487    0.387353
      3          6           0        3.941909   -0.320909   -0.037962
      4          6           0        2.625933    0.128638   -0.134944
      5          6           0        1.531331   -0.677342    0.174139
      6          6           0        1.774458   -1.987423    0.597372
      7          1           0        3.263416   -3.486868    1.034390
      8          1           0        5.179250   -2.004871    0.469856
      9          1           0        4.757731    0.345642   -0.290075
     10          1           0        0.527887   -0.279792    0.082098
     11          1           0        0.935609   -2.632345    0.843242
     12          7           0        2.381065    1.517413   -0.584104
     13          8           0        1.212220    1.889544   -0.661274
     14          8           0        3.362620    2.207507   -0.850482
     15          6           0       -3.247255   -0.610400   -0.023542
     16          6           0       -4.438522   -1.437936   -0.507331
     17          6           0       -4.091505   -2.913737   -0.705785
     18          1           0       -2.427044   -0.701371   -0.748748
     19          1           0       -2.876985   -1.031259    0.921537
     20          1           0       -4.807302   -1.014805   -1.450505
     21          1           0       -5.256059   -1.344829    0.219016
     22          1           0       -3.744071   -3.357383    0.232867
     23          1           0       -3.292763   -3.025484   -1.446140
     24          1           0       -4.957409   -3.486746   -1.051805
     25          6           0       -3.578448    0.867037    0.179490
     26          6           0       -2.387181    1.694573    0.663278
     27          6           0       -2.734198    3.170374    0.861733
     28          1           0       -3.948718    1.287896   -0.765589
     29          1           0       -4.398659    0.958009    0.904696
     30          1           0       -1.569644    1.601467   -0.063068
     31          1           0       -2.018401    1.271443    1.606453
     32          1           0       -3.532940    3.282121    1.602088
     33          1           0       -3.081632    3.614020   -0.076919
     34          1           0       -1.868294    3.743383    1.207753
 ---------------------------------------------------------------------

 SCF Done:  E(RHF) =  -669.536201118     A.U. after   15 cycles
 E2 =    -0.2091782215D+01 EUMP2 =    -0.67162798333351D+03

 The electronic state is 1-A.
 Alpha  occ. eigenvalues --  -20.60851 -20.60842 -15.85894 -11.31195 -11.27769
 Alpha  occ. eigenvalues --  -11.27734 -11.27504 -11.26775 -11.26751 -11.21756
 Alpha  occ. eigenvalues --  -11.21564 -11.21348 -11.21173 -11.21027 -11.20428
 Alpha  occ. eigenvalues --   -1.59918  -1.39474  -1.19367  -1.08777  -1.08357
 Alpha  occ. eigenvalues --   -1.04760  -1.03350  -0.95837  -0.95620  -0.86854
 Alpha  occ. eigenvalues --   -0.86163  -0.82456  -0.79475  -0.78178  -0.77471
 Alpha  occ. eigenvalues --   -0.72121  -0.71234  -0.70478  -0.65047  -0.64966
 Alpha  occ. eigenvalues --   -0.64755  -0.62107  -0.60731  -0.59234  -0.57418
 Alpha  occ. eigenvalues --   -0.55272  -0.55139  -0.53097  -0.52858  -0.52489
 Alpha  occ. eigenvalues --   -0.52263  -0.49796  -0.48904  -0.48864  -0.47754
 Alpha  occ. eigenvalues --   -0.46512  -0.45677  -0.45518  -0.44886  -0.43632
 Alpha  occ. eigenvalues --   -0.37353  -0.36362
 Alpha virt. eigenvalues --    0.05019   0.11285   0.16521   0.20393   0.23002
 Alpha virt. eigenvalues --    0.24206   0.25033   0.26635   0.27847   0.28036
 Alpha virt. eigenvalues --    0.29800   0.30711   0.31556   0.31643   0.32467

 Mulliken charges:
               1
     1  C   -0.170393
     2  C   -0.218944
     3  C   -0.170514
     4  C    0.156785
     5  C   -0.174119
     6  C   -0.220844
     7  H    0.225674
     8  H    0.223410
     9  H    0.275429
    10  H    0.283178
    11  H    0.224721
    12  N    0.493099
    13  O   -0.466928
    14  O   -0.459761
    15  C   -0.300395
    16  C   -0.298973
    17  C   -0.476003
    18  H    0.146775
    19  H    0.143559
    20  H    0.154599
    21  H    0.153298
    22  H    0.151648
    23  H    0.153749
    24  H    0.161798
    25  C   -0.297388
    26  C   -0.313104
    27  C   -0.474523
    28  H    0.151541
    29  H    0.148438
    30  H    0.176451
    31  H    0.144401
    32  H    0.150057
    33  H    0.156078
    34  H    0.167202
 Sum of Mulliken charges =  -0.00000

 Dipole moment (field-independent basis, Debye):
    X=              0.9208    Y=             -4.7572    Z=              1.5032  Tot=              5.0733
 Quadrupole moment (field-independent basis, Debye-Ang):
   XX=            -85.3604   YY=            -97.4872   ZZ=            -95.2398
   XY=            -12.0857   XZ=              3.6788   YZ=              0.2447

 Normal termination of Gaussian 16 at Wed May  5 23:57:48 2021.
