 Gaussian 16, Revision A.03,
 Gaussian 16:  EM64L-G16RevA.03 25-Dec-2016

 -------------
 #p 6-31g* mp2
 -------------

 ------------------------------------------------------
 Input file generated by CHIRIPA (05-May-2021 14:55:23)
 ------------------------------------------------------
 Symbolic Z-matrix:
 Charge =  0 Multiplicity = 1

                         Standard orientation:
 ---------------------------------------------------------------------
 Center     Atomic      Atomic             Coordinates (Angstroms)
 Number     Number       Type             X           Y           Z
 ---------------------------------------------------------------------
      1          6           0       -3.804043   -2.035780   -0.191876
      2          6           0       -2.563358   -1.714432   -0.752194
      3          6           0       -2.089441   -0.399522   -0.721150
      4          6           0       -2.885817    0.573406   -0.119082
      5          6           0       -4.126208    0.284645    0.447786
      6          6           0       -4.580140   -1.036977    0.405273
      7          1           0       -4.164431   -3.059841   -0.220446
      8          1           0       -1.958492   -2.488062   -1.216606
      9          1           0       -1.132707   -0.123032   -1.147333
     10          1           0       -4.706625    1.077478    0.903802
     11          1           0       -5.544067   -1.283636    0.841219
     12          7           0       -2.394681    1.968995   -0.080146
     13          8           0       -3.115323    2.807876    0.456130
     14          8           0       -1.298387    2.197551   -0.586642
     15          6           0        3.267677   -0.937025   -0.074479
     16          6           0        2.041227   -0.992715    0.836951
     17          6           0        0.990285   -1.992471    0.353419
     18          1           0        2.948751   -0.672597   -1.091981
     19          1           0        3.714820   -1.938769   -0.137480
     20          1           0        1.597338    0.009128    0.899316
     21          1           0        2.363133   -1.256854    1.852442
     22          1           0        1.411063   -3.002184    0.308402
     23          1           0        0.640917   -1.729009   -0.650139
     24          1           0        0.122189   -2.016081    1.019537
     25          6           0        4.327235    0.057932    0.395758
     26          6           0        5.553685    0.113622   -0.515672
     27          6           0        6.604627    1.113378   -0.032142
     28          1           0        3.880092    1.059676    0.458758
     29          1           0        4.646162   -0.206495    1.413258
     30          1           0        5.231780    0.377761   -1.531165
     31          1           0        5.997574   -0.888220   -0.578038
     32          1           0        6.953995    0.849917    0.971417
     33          1           0        6.183848    2.123091    0.012876
     34          1           0        7.472724    1.136988   -0.698259
 ---------------------------------------------------------------------

 SCF Done:  E(RHF) =  -669.534705574     A.U. after   15 cycles
 E2 =    -0.2092349817D+01 EUMP2 =    -0.67162705539101D+03

 The electronic state is 1-A.
 Alpha  occ. eigenvalues --  -20.60783 -20.60775 -15.85831 -11.31152 -11.27721
 Alpha  occ. eigenvalues --  -11.27695 -11.27458 -11.26734 -11.26692 -11.21715
 Alpha  occ. eigenvalues --  -11.21555 -11.21487 -11.21425 -11.21256 -11.20915
 Alpha  occ. eigenvalues --   -1.59854  -1.39409  -1.19330  -1.08731  -1.08434
 Alpha  occ. eigenvalues --   -1.04736  -1.03591  -0.96085  -0.95567  -0.87109
 Alpha  occ. eigenvalues --   -0.86124  -0.82408  -0.79665  -0.78221  -0.77452
 Alpha  occ. eigenvalues --   -0.72051  -0.71176  -0.70451  -0.65097  -0.64964
 Alpha  occ. eigenvalues --   -0.64720  -0.62173  -0.60923  -0.59448  -0.57663
 Alpha  occ. eigenvalues --   -0.55457  -0.55157  -0.53209  -0.52824  -0.52609
 Alpha  occ. eigenvalues --   -0.52488  -0.50011  -0.48805  -0.48804  -0.47976
 Alpha  occ. eigenvalues --   -0.46669  -0.45779  -0.45662  -0.44821  -0.43829
 Alpha  occ. eigenvalues --   -0.37318  -0.36260
 Alpha virt. eigenvalues --    0.05063   0.11279   0.16531   0.20453   0.22873
 Alpha virt. eigenvalues --    0.24094   0.25853   0.26862   0.27636   0.28105
 Alpha virt. eigenvalues --    0.29025   0.30342   0.31434   0.31486   0.32313

 Mulliken charges:
               1
     1  C   -0.171943
     2  C   -0.217287
     3  C   -0.169834
     4  C    0.157662
     5  C   -0.171362
     6  C   -0.218790
     7  H    0.225535
     8  H    0.225478
     9  H    0.276838
    10  H    0.275304
    11  H    0.223219
    12  N    0.488428
    13  O   -0.460192
    14  O   -0.461654
    15  C   -0.298057
    16  C   -0.303389
    17  C   -0.478375
    18  H    0.149410
    19  H    0.147721
    20  H    0.162142
    21  H    0.153294
    22  H    0.154888
    23  H    0.142203
    24  H    0.164629
    25  C   -0.299591
    26  C   -0.299778
    27  C   -0.476019
    28  H    0.155262
    29  H    0.149182
    30  H    0.152677
    31  H    0.150363
    32  H    0.154715
    33  H    0.157468
    34  H    0.159853
 Sum of Mulliken charges =  -0.00000

 Dipole moment (field-independent basis, Debye):
    X=             -1.6776    Y=             -4.8500    Z=             -0.0740  Tot=              5.1325
 Quadrupole moment (field-independent basis, Debye-Ang):
   XX=            -81.9754   YY=           -100.6860   ZZ=            -94.0162
   XY=             11.4513   XZ=             -1.5486   YZ=              0.6970

 Normal termination of Gaussian 16 at Thu May  6 01:32:28 2021.
