 Gaussian 16, Revision A.03,
 Gaussian 16:  EM64L-G16RevA.03 25-Dec-2016

 -------------
 #p 6-31g* mp2
 -------------

 ------------------------------------------------------
 Input file generated by CHIRIPA (05-May-2021 14:53:11)
 ------------------------------------------------------
 Symbolic Z-matrix:
 Charge =  0 Multiplicity = 1

                         Standard orientation:
 ---------------------------------------------------------------------
 Center     Atomic      Atomic             Coordinates (Angstroms)
 Number     Number       Type             X           Y           Z
 ---------------------------------------------------------------------
      1          6           0        3.799545    0.723858    0.205266
      2          6           0        4.930701    1.551163   -0.406320
      3          6           0        4.682475    3.056589   -0.306965
      4          1           0        2.856164    0.975399   -0.298425
      5          1           0        3.676122    1.007259    1.259707
      6          1           0        5.052874    1.265301   -1.458922
      7          1           0        5.871531    1.297484    0.098757
      8          1           0        4.581953    3.362214    0.739501
      9          1           0        3.758644    3.329848   -0.827029
     10          1           0        5.503337    3.628939   -0.750204
     11          6           0        4.033189   -0.783038    0.113605
     12          6           0        2.902032   -1.610343    0.725191
     13          6           0        3.150259   -3.115768    0.625836
     14          1           0        4.156612   -1.066439   -0.940836
     15          1           0        4.976570   -1.034578    0.617297
     16          1           0        1.961203   -1.356663    0.220115
     17          1           0        2.779860   -1.324481    1.777794
     18          1           0        4.074089   -3.389028    1.145900
     19          1           0        3.250780   -3.421394   -0.420629
     20          1           0        2.329397   -3.688119    1.069075
     21          6           0       -5.033182    1.431863    0.572989
     22          6           0       -5.221436    0.094258    0.209815
     23          6           0       -4.135228   -0.695688   -0.178368
     24          6           0       -2.868869   -0.113075   -0.191995
     25          6           0       -2.649077    1.216603    0.164289
     26          6           0       -3.749866    1.987785    0.549110
     27          1           0       -5.882638    2.038224    0.873233
     28          1           0       -6.216944   -0.340137    0.227420
     29          1           0       -4.252528   -1.733874   -0.464426
     30          1           0       -1.644776    1.621625    0.136834
     31          1           0       -3.600686    3.026308    0.830642
     32          7           0       -1.711231   -0.939425   -0.601167
     33          8           0       -0.605638   -0.402500   -0.604810
     34          8           0       -1.931387   -2.108395   -0.910484
 ---------------------------------------------------------------------

 SCF Done:  E(RHF) =  -669.536472539     A.U. after   15 cycles
 E2 =    -0.2091075249D+01 EUMP2 =    -0.67162754778859D+03

 The electronic state is 1-A.
 Alpha  occ. eigenvalues --  -20.61029 -20.61013 -15.86048 -11.31334 -11.27892
 Alpha  occ. eigenvalues --  -11.27888 -11.27624 -11.26892 -11.26882 -11.20896
 Alpha  occ. eigenvalues --  -11.20565 -11.20429 -11.20259 -11.20051 -11.19804
 Alpha  occ. eigenvalues --   -1.60077  -1.39634  -1.19498  -1.08909  -1.07398
 Alpha  occ. eigenvalues --   -1.04889  -1.02510  -0.95757  -0.95010  -0.86291
 Alpha  occ. eigenvalues --   -0.86035  -0.82593  -0.78601  -0.77651  -0.77153
 Alpha  occ. eigenvalues --   -0.72270  -0.71385  -0.70607  -0.65155  -0.64892
 Alpha  occ. eigenvalues --   -0.64021  -0.62236  -0.59898  -0.58407  -0.56596
 Alpha  occ. eigenvalues --   -0.55395  -0.54310  -0.53223  -0.52980  -0.51726
 Alpha  occ. eigenvalues --   -0.51436  -0.49121  -0.49020  -0.48915  -0.46913
 Alpha  occ. eigenvalues --   -0.45626  -0.45097  -0.44719  -0.44452  -0.42765
 Alpha  occ. eigenvalues --   -0.37475  -0.36488
 Alpha virt. eigenvalues --    0.04866   0.11167   0.16362   0.21286   0.23830
 Alpha virt. eigenvalues --    0.25330   0.27207   0.27533   0.28062   0.28686
 Alpha virt. eigenvalues --    0.28966   0.30910   0.32320   0.32416   0.32752

 Mulliken charges:
               1
     1  C   -0.299470
     2  C   -0.298773
     3  C   -0.474922
     4  H    0.157032
     5  H    0.145031
     6  H    0.151797
     7  H    0.149819
     8  H    0.152759
     9  H    0.153734
    10  H    0.157850
    11  C   -0.296598
    12  C   -0.313515
    13  C   -0.473811
    14  H    0.149167
    15  H    0.143943
    16  H    0.184104
    17  H    0.143507
    18  H    0.147869
    19  H    0.155280
    20  H    0.160126
    21  C   -0.170477
    22  C   -0.218617
    23  C   -0.170507
    24  C    0.157714
    25  C   -0.170674
    26  C   -0.218580
    27  H    0.226164
    28  H    0.223951
    29  H    0.275939
    30  H    0.275975
    31  H    0.224087
    32  N    0.490492
    33  O   -0.461965
    34  O   -0.458430
 Sum of Mulliken charges =  -0.00000

 Dipole moment (field-independent basis, Debye):
    X=             -4.4732    Y=              2.8891    Z=              1.3371  Tot=              5.4903
 Quadrupole moment (field-independent basis, Debye-Ang):
   XX=            -70.9091   YY=            -94.3045   ZZ=            -95.4716
   XY=             -5.2608   XZ=             -2.9317   YZ=              0.2102

 Normal termination of Gaussian 16 at Thu May  6 02:29:37 2021.
