 Gaussian 16, Revision A.03,
 Gaussian 16:  EM64L-G16RevA.03 25-Dec-2016

 -------------
 #p 6-31g* mp2
 -------------

 ------------------------------------------------------
 Input file generated by CHIRIPA (05-May-2021 14:53:17)
 ------------------------------------------------------
 Symbolic Z-matrix:
 Charge =  0 Multiplicity = 1

                         Standard orientation:
 ---------------------------------------------------------------------
 Center     Atomic      Atomic             Coordinates (Angstroms)
 Number     Number       Type             X           Y           Z
 ---------------------------------------------------------------------
      1          6           0       -3.571655    0.790786   -0.000163
      2          6           0       -2.153861    1.319190   -0.220695
      3          6           0       -2.062304    2.839631   -0.087758
      4          1           0       -4.249442    1.264971   -0.723143
      5          1           0       -3.917386    1.094007    0.997797
      6          1           0       -1.810386    1.013884   -1.217403
      7          1           0       -1.479338    0.843549    0.502769
      8          1           0       -2.379296    3.158853    0.910348
      9          1           0       -2.712225    3.330155   -0.819598
     10          1           0       -1.040121    3.195914   -0.249198
     11          6           0       -3.679295   -0.727547   -0.129796
     12          6           0       -5.097089   -1.255951    0.090736
     13          6           0       -5.188646   -2.776392   -0.042201
     14          1           0       -3.333565   -1.030768   -1.127755
     15          1           0       -3.001509   -1.201732    0.593184
     16          1           0       -5.771613   -0.780310   -0.632728
     17          1           0       -5.440564   -0.950645    1.087445
     18          1           0       -4.538726   -3.266916    0.689640
     19          1           0       -4.871655   -3.095613   -1.040307
     20          1           0       -6.210830   -3.132675    0.119239
     21          6           0        4.407249   -1.981389   -0.188320
     22          6           0        4.037751   -1.238554   -1.314459
     23          6           0        3.165820   -0.152401   -1.193802
     24          6           0        2.680152    0.164462    0.073879
     25          6           0        3.029632   -0.556313    1.214772
     26          6           0        3.902900   -1.638502    1.070481
     27          1           0        5.085105   -2.823599   -0.291229
     28          1           0        4.427878   -1.502553   -2.293310
     29          1           0        2.863303    0.439733   -2.048950
     30          1           0        2.624333   -0.269013    2.177377
     31          1           0        4.188131   -2.213611    1.946803
     32          7           0        1.756371    1.312225    0.214123
     33          8           0        1.342342    1.571008    1.342063
     34          8           0        1.463832    1.931325   -0.806550
 ---------------------------------------------------------------------

 SCF Done:  E(RHF) =  -669.536864334     A.U. after   15 cycles
 E2 =    -0.2092379534D+01 EUMP2 =    -0.67162924386817D+03

 The electronic state is 1-A.
 Alpha  occ. eigenvalues --  -20.61103 -20.61083 -15.86077 -11.31357 -11.27910
 Alpha  occ. eigenvalues --  -11.27906 -11.27639 -11.26904 -11.26895 -11.21046
 Alpha  occ. eigenvalues --  -11.20678 -11.20655 -11.20320 -11.20094 -11.19128
 Alpha  occ. eigenvalues --   -1.60119  -1.39679  -1.19516  -1.08930  -1.07497
 Alpha  occ. eigenvalues --   -1.04904  -1.02456  -0.95783  -0.94901  -0.86307
 Alpha  occ. eigenvalues --   -0.85937  -0.82617  -0.78619  -0.77678  -0.77238
 Alpha  occ. eigenvalues --   -0.72297  -0.71413  -0.70626  -0.65172  -0.64909
 Alpha  occ. eigenvalues --   -0.64144  -0.62252  -0.59871  -0.58378  -0.56481
 Alpha  occ. eigenvalues --   -0.55399  -0.54236  -0.53234  -0.52996  -0.51584
 Alpha  occ. eigenvalues --   -0.51367  -0.49065  -0.48948  -0.48907  -0.46875
 Alpha  occ. eigenvalues --   -0.45726  -0.45166  -0.44775  -0.44542  -0.42689
 Alpha  occ. eigenvalues --   -0.37489  -0.36501
 Alpha virt. eigenvalues --    0.04826   0.11155   0.16322   0.21284   0.23691
 Alpha virt. eigenvalues --    0.25518   0.27212   0.27491   0.28076   0.28424
 Alpha virt. eigenvalues --    0.29165   0.30858   0.32239   0.32485   0.32527

 Mulliken charges:
               1
     1  C   -0.297503
     2  C   -0.299158
     3  C   -0.481537
     4  H    0.146509
     5  H    0.147784
     6  H    0.148253
     7  H    0.154643
     8  H    0.148946
     9  H    0.143662
    10  H    0.187989
    11  C   -0.296917
    12  C   -0.298684
    13  C   -0.474969
    14  H    0.146620
    15  H    0.146927
    16  H    0.151210
    17  H    0.151385
    18  H    0.153337
    19  H    0.153570
    20  H    0.158449
    21  C   -0.170339
    22  C   -0.218576
    23  C   -0.170451
    24  C    0.159473
    25  C   -0.170722
    26  C   -0.218587
    27  H    0.226268
    28  H    0.224075
    29  H    0.275972
    30  H    0.275859
    31  H    0.224053
    32  N    0.489191
    33  O   -0.458515
    34  O   -0.458217
 Sum of Mulliken charges =  -0.00000

 Dipole moment (field-independent basis, Debye):
    X=              3.6957    Y=             -3.9572    Z=             -0.4700  Tot=              5.4350
 Quadrupole moment (field-independent basis, Debye-Ang):
   XX=            -79.1353   YY=            -97.9146   ZZ=            -89.0063
   XY=            -10.8227   XZ=             -1.3688   YZ=             -1.4773

 Normal termination of Gaussian 16 at Thu May  6 20:29:40 2021.
