 Gaussian 16, Revision A.03,
 Gaussian 16:  EM64L-G16RevA.03 25-Dec-2016

 -------------
 #p 6-31g* mp2
 -------------

 ------------------------------------------------------
 Input file generated by CHIRIPA (05-May-2021 14:57:26)
 ------------------------------------------------------
 Symbolic Z-matrix:
 Charge =  0 Multiplicity = 1

                         Standard orientation:
 ---------------------------------------------------------------------
 Center     Atomic      Atomic             Coordinates (Angstroms)
 Number     Number       Type             X           Y           Z
 ---------------------------------------------------------------------
      1          6           0       -2.954315   -2.204581    0.410700
      2          6           0       -2.212307   -1.083226    0.025334
      3          6           0       -2.843583    0.144734   -0.194108
      4          6           0       -4.224628    0.215882   -0.018201
      5          6           0       -4.991405   -0.883400    0.365104
      6          6           0       -4.339055   -2.101271    0.579059
      7          1           0       -2.455739   -3.154571    0.579036
      8          1           0       -1.136771   -1.160518   -0.106171
      9          1           0       -2.293407    1.028690   -0.493015
     10          1           0       -6.062194   -0.775377    0.488235
     11          1           0       -4.917851   -2.970470    0.878280
     12          7           0       -4.904087    1.510528   -0.247609
     13          8           0       -6.121936    1.547059   -0.085914
     14          8           0       -4.205931    2.464225   -0.584770
     15          6           0        5.381023    2.134137    0.418440
     16          6           0        6.075518    0.952459    0.139455
     17          6           0        5.383097   -0.237260   -0.104821
     18          6           0        3.990023   -0.209072   -0.061958
     19          6           0        3.269574    0.952190    0.213205
     20          6           0        3.982733    2.130238    0.454361
     21          1           0        5.926967    3.053806    0.606987
     22          1           0        7.161442    0.952519    0.110904
     23          1           0        5.895601   -1.166260   -0.323269
     24          1           0        2.186998    0.920873    0.234771
     25          1           0        3.440742    3.046460    0.670764
     26          7           0        3.246011   -1.462396   -0.318910
     27          8           0        2.018773   -1.411172   -0.275327
     28          8           0        3.904181   -2.472244   -0.559027
 ---------------------------------------------------------------------

 SCF Done:  E(RHF) =  -868.340037481     A.U. after   16 cycles
 E2 =    -0.2598200726D+01 EUMP2 =    -0.87093823820696D+03

 The electronic state is 1-A.
 Alpha  occ. eigenvalues --  -20.61628 -20.61573 -20.60404 -20.60396 -15.86650
 Alpha  occ. eigenvalues --  -15.85447 -11.31755 -11.30642 -11.28315 -11.28272
 Alpha  occ. eigenvalues --  -11.27963 -11.27238 -11.27228 -11.27187 -11.27143
 Alpha  occ. eigenvalues --  -11.26785 -11.26171 -11.25954  -1.60662  -1.59481
 Alpha  occ. eigenvalues --   -1.40229  -1.39040  -1.19897  -1.18767  -1.09334
 Alpha  occ. eigenvalues --   -1.08177  -1.05263  -1.04132  -0.96216  -0.95054
 Alpha  occ. eigenvalues --   -0.86672  -0.85521  -0.83065  -0.81887  -0.78144
 Alpha  occ. eigenvalues --   -0.76971  -0.72888  -0.71965  -0.71670  -0.71002
 Alpha  occ. eigenvalues --   -0.70801  -0.69852  -0.65556  -0.65258  -0.64403
 Alpha  occ. eigenvalues --   -0.64077  -0.62619  -0.61469  -0.55761  -0.54590
 Alpha  occ. eigenvalues --   -0.53602  -0.53351  -0.52486  -0.52181  -0.49647
 Alpha  occ. eigenvalues --   -0.49589  -0.48437  -0.48405  -0.45689  -0.44484
 Alpha  occ. eigenvalues --   -0.37853  -0.36853  -0.36720  -0.35741
 Alpha virt. eigenvalues --    0.04387   0.05532   0.10805   0.11921   0.15941
 Alpha virt. eigenvalues --    0.17094   0.20747   0.22157   0.26432   0.27220
 Alpha virt. eigenvalues --    0.28639   0.28973   0.30518   0.31407   0.32644

 Mulliken charges:
               1
     1  C   -0.172443
     2  C   -0.227343
     3  C   -0.173862
     4  C    0.158516
     5  C   -0.172792
     6  C   -0.218595
     7  H    0.229847
     8  H    0.246327
     9  H    0.270622
    10  H    0.273269
    11  H    0.221715
    12  N    0.488260
    13  O   -0.461789
    14  O   -0.463574
    15  C   -0.169931
    16  C   -0.218342
    17  C   -0.170540
    18  C    0.158113
    19  C   -0.169464
    20  C   -0.218185
    21  H    0.228222
    22  H    0.225398
    23  H    0.276348
    24  H    0.270903
    25  H    0.226579
    26  N    0.494875
    27  O   -0.475990
    28  O   -0.456145
 Sum of Mulliken charges =  -0.00000

 Dipole moment (field-independent basis, Debye):
    X=              5.4871    Y=             -0.2088    Z=              1.7307  Tot=              5.7574
 Quadrupole moment (field-independent basis, Debye-Ang):
   XX=            -96.5495   YY=           -107.2201   ZZ=           -106.3586
   XY=             37.4741   XZ=             -1.7548   YZ=             -0.2935

 Normal termination of Gaussian 16 at Fri May  7 12:41:18 2021.
