 Gaussian 16, Revision A.03,
 Gaussian 16:  EM64L-G16RevA.03 25-Dec-2016

 -------------
 #p 6-31g* mp2
 -------------

 ------------------------------------------------------
 Input file generated by CHIRIPA (05-May-2021 14:57:26)
 ------------------------------------------------------
 Symbolic Z-matrix:
 Charge =  0 Multiplicity = 1

                         Standard orientation:
 ---------------------------------------------------------------------
 Center     Atomic      Atomic             Coordinates (Angstroms)
 Number     Number       Type             X           Y           Z
 ---------------------------------------------------------------------
      1          6           0        2.528442    1.519175    1.999875
      2          6           0        2.612498    0.136689    2.195289
      3          6           0        2.604576   -0.736487    1.103479
      4          6           0        2.511028   -0.190431   -0.175725
      5          6           0        2.425901    1.182316   -0.402903
      6          6           0        2.435576    2.036664    0.703687
      7          1           0        2.535277    2.190166    2.853760
      8          1           0        2.684714   -0.268018    3.200795
      9          1           0        2.668431   -1.810872    1.226100
     10          1           0        2.354909    1.556054   -1.417151
     11          1           0        2.370169    3.109891    0.548922
     12          7           0        2.501714   -1.104857   -1.339399
     13          8           0        2.418456   -0.598711   -2.456324
     14          8           0        2.577847   -2.310415   -1.112528
     15          6           0       -2.856001   -2.307590    0.843063
     16          6           0       -1.562287   -1.830336    0.608431
     17          6           0       -1.360117   -0.531449    0.132438
     18          6           0       -2.479361    0.266652   -0.099121
     19          6           0       -3.780731   -0.180038    0.124920
     20          6           0       -3.959149   -1.482373    0.600986
     21          1           0       -3.003826   -3.317936    1.212855
     22          1           0       -0.703704   -2.468983    0.795541
     23          1           0       -0.369517   -0.136554   -0.057792
     24          1           0       -4.616972    0.480067   -0.070985
     25          1           0       -4.965013   -1.850351    0.782305
     26          7           0       -2.277905    1.643550   -0.603071
     27          8           0       -3.280539    2.326862   -0.799152
     28          8           0       -1.121186    2.013380   -0.792444
 ---------------------------------------------------------------------

 SCF Done:  E(RHF) =  -868.338682232     A.U. after   16 cycles
 E2 =    -0.2602425248D+01 EUMP2 =    -0.87094110747972D+03

 The electronic state is 1-A.
 Alpha  occ. eigenvalues --  -20.61065 -20.61006 -20.60850 -20.60830 -15.86081
 Alpha  occ. eigenvalues --  -15.85886 -11.31340 -11.31068 -11.27989 -11.27751
 Alpha  occ. eigenvalues --  -11.27646 -11.27553 -11.27552 -11.27350 -11.26934
 Alpha  occ. eigenvalues --  -11.26709 -11.26634 -11.26565  -1.60124  -1.59912
 Alpha  occ. eigenvalues --   -1.39672  -1.39472  -1.19527  -1.19230  -1.08917
 Alpha  occ. eigenvalues --   -1.08665  -1.04845  -1.04610  -0.95761  -0.95528
 Alpha  occ. eigenvalues --   -0.86254  -0.86020  -0.82572  -0.82361  -0.77647
 Alpha  occ. eigenvalues --   -0.77437  -0.72283  -0.72136  -0.71506  -0.71222
 Alpha  occ. eigenvalues --   -0.70555  -0.70336  -0.65123  -0.64892  -0.64815
 Alpha  occ. eigenvalues --   -0.64614  -0.62173  -0.61990  -0.55333  -0.55160
 Alpha  occ. eigenvalues --   -0.53362  -0.52947  -0.52900  -0.52502  -0.49060
 Alpha  occ. eigenvalues --   -0.49029  -0.48876  -0.48855  -0.45081  -0.44917
 Alpha  occ. eigenvalues --   -0.37499  -0.37213  -0.36447  -0.36156
 Alpha virt. eigenvalues --    0.04762   0.05151   0.11144   0.11453   0.16350
 Alpha virt. eigenvalues --    0.16617   0.21119   0.21725   0.26517   0.27576
 Alpha virt. eigenvalues --    0.28266   0.28480   0.30657   0.31539   0.32121

 Mulliken charges:
               1
     1  C   -0.172122
     2  C   -0.216844
     3  C   -0.181549
     4  C    0.140981
     5  C   -0.163407
     6  C   -0.208795
     7  H    0.227695
     8  H    0.222629
     9  H    0.271104
    10  H    0.283564
    11  H    0.231858
    12  N    0.489298
    13  O   -0.453429
    14  O   -0.466618
    15  C   -0.170178
    16  C   -0.222386
    17  C   -0.174066
    18  C    0.155740
    19  C   -0.170233
    20  C   -0.219330
    21  H    0.225881
    22  H    0.226405
    23  H    0.284634
    24  H    0.274636
    25  H    0.222887
    26  N    0.488574
    27  O   -0.460271
    28  O   -0.466656
 Sum of Mulliken charges =  -0.00000

 Dipole moment (field-independent basis, Debye):
    X=             -0.5711    Y=             -1.3083    Z=              5.7934  Tot=              5.9667
 Quadrupole moment (field-independent basis, Debye-Ang):
   XX=            -96.9216   YY=           -105.9153   ZZ=           -105.7763
   XY=             19.9909   XZ=              6.1051   YZ=             -3.0882

 Normal termination of Gaussian 16 at Thu May  6 14:46:06 2021.
