 Gaussian 16, Revision A.03,
 Gaussian 16:  EM64L-G16RevA.03 25-Dec-2016

 -------------
 #p 6-31g* mp2
 -------------

 ------------------------------------------------------
 Input file generated by CHIRIPA (05-May-2021 14:55:22)
 ------------------------------------------------------
 Symbolic Z-matrix:
 Charge =  0 Multiplicity = 1

                         Standard orientation:
 ---------------------------------------------------------------------
 Center     Atomic      Atomic             Coordinates (Angstroms)
 Number     Number       Type             X           Y           Z
 ---------------------------------------------------------------------
      1          6           0        0.033884   -1.518654    1.375262
      2          6           0        0.366398   -1.945793    0.085492
      3          6           0        1.479465   -1.415116   -0.573303
      4          6           0        2.241360   -0.454651    0.090258
      5          6           0        1.935816   -0.008691    1.375191
      6          6           0        0.818271   -0.553168    2.014867
      7          1           0       -0.832513   -1.936257    1.879604
      8          1           0       -0.240953   -2.695466   -0.413667
      9          1           0        1.759607   -1.727802   -1.571886
     10          1           0        2.560365    0.740055    1.847140
     11          1           0        0.562417   -0.219560    3.016511
     12          7           0        3.422085    0.114458   -0.597059
     13          8           0        4.077180    0.959417    0.009184
     14          8           0        3.670084   -0.295211   -1.729007
     15          6           0       -2.987416    0.104295    0.041245
     16          6           0       -3.211397   -1.035091   -0.953549
     17          6           0       -3.947912   -2.223678   -0.335002
     18          1           0       -2.417981   -0.274678    0.900935
     19          1           0       -3.959060    0.436872    0.432008
     20          1           0       -2.239719   -1.364492   -1.343360
     21          1           0       -3.780200   -0.653316   -1.811060
     22          1           0       -4.930373   -1.916447    0.037799
     23          1           0       -3.381138   -2.631663    0.508157
     24          1           0       -4.097406   -3.026626   -1.063553
     25          6           0       -2.252296    1.299730   -0.562297
     26          6           0       -2.028315    2.439116    0.432497
     27          6           0       -1.291800    3.627703   -0.186050
     28          1           0       -1.280651    0.967153   -0.953060
     29          1           0       -2.821732    1.678703   -1.421987
     30          1           0       -1.459512    2.057341    1.290009
     31          1           0       -2.999994    2.768516    0.822308
     32          1           0       -1.858574    4.035687   -1.029208
     33          1           0       -0.309338    3.320471   -0.558850
     34          1           0       -1.142306    4.430650    0.542502
 ---------------------------------------------------------------------

 SCF Done:  E(RHF) =  -669.534360279     A.U. after   15 cycles
 E2 =    -0.2095544133D+01 EUMP2 =    -0.67162990441167D+03

 The electronic state is 1-A.
 Alpha  occ. eigenvalues --  -20.60866 -20.60860 -15.85923 -11.31331 -11.27921
 Alpha  occ. eigenvalues --  -11.27917 -11.27657 -11.26931 -11.26907 -11.22305
 Alpha  occ. eigenvalues --  -11.22015 -11.21915 -11.21880 -11.21674 -11.21204
 Alpha  occ. eigenvalues --   -1.59942  -1.39493  -1.19526  -1.09028  -1.08800
 Alpha  occ. eigenvalues --   -1.04932  -1.04040  -0.96484  -0.95736  -0.87498
 Alpha  occ. eigenvalues --   -0.86321  -0.82571  -0.80118  -0.78703  -0.77596
 Alpha  occ. eigenvalues --   -0.72139  -0.71268  -0.70661  -0.65697  -0.65166
 Alpha  occ. eigenvalues --   -0.64841  -0.62310  -0.61389  -0.59880  -0.58085
 Alpha  occ. eigenvalues --   -0.55856  -0.55422  -0.53219  -0.53183  -0.53020
 Alpha  occ. eigenvalues --   -0.52879  -0.50437  -0.48906  -0.48891  -0.48428
 Alpha  occ. eigenvalues --   -0.47152  -0.46244  -0.46145  -0.44890  -0.44258
 Alpha  occ. eigenvalues --   -0.37403  -0.36495
 Alpha virt. eigenvalues --    0.04903   0.10982   0.16256   0.19128   0.23008
 Alpha virt. eigenvalues --    0.23723   0.25358   0.26157   0.27092   0.28226
 Alpha virt. eigenvalues --    0.28849   0.29779   0.31063   0.31625   0.31932

 Mulliken charges:
               1
     1  C   -0.171017
     2  C   -0.217358
     3  C   -0.172390
     4  C    0.158136
     5  C   -0.170460
     6  C   -0.219133
     7  H    0.228349
     8  H    0.226370
     9  H    0.276530
    10  H    0.276525
    11  H    0.224729
    12  N    0.488041
    13  O   -0.459942
    14  O   -0.459958
    15  C   -0.297686
    16  C   -0.303893
    17  C   -0.476223
    18  H    0.143773
    19  H    0.150113
    20  H    0.149031
    21  H    0.156769
    22  H    0.160184
    23  H    0.143684
    24  H    0.162399
    25  C   -0.299510
    26  C   -0.300001
    27  C   -0.476461
    28  H    0.154309
    29  H    0.150707
    30  H    0.148325
    31  H    0.150807
    32  H    0.156189
    33  H    0.158690
    34  H    0.160370
 Sum of Mulliken charges =  -0.00000

 Dipole moment (field-independent basis, Debye):
    X=             -4.0900    Y=             -1.9598    Z=              2.3686  Tot=              5.1166
 Quadrupole moment (field-independent basis, Debye-Ang):
   XX=           -113.4281   YY=            -92.5023   ZZ=            -91.3642
   XY=             -2.9306   XZ=              6.5786   YZ=              1.4565

 Normal termination of Gaussian 16 at Thu May  6 12:33:41 2021.
