 Gaussian 16, Revision A.03,
 Gaussian 16:  EM64L-G16RevA.03 25-Dec-2016

 -------------
 #p 6-31g* mp2
 -------------

 ------------------------------------------------------
 Input file generated by CHIRIPA (05-May-2021 14:51:14)
 ------------------------------------------------------
 Symbolic Z-matrix:
 Charge =  0 Multiplicity = 1

                         Standard orientation:
 ---------------------------------------------------------------------
 Center     Atomic      Atomic             Coordinates (Angstroms)
 Number     Number       Type             X           Y           Z
 ---------------------------------------------------------------------
      1          6           0       -5.083360    0.112918   -0.163047
      2          6           0       -6.358014   -0.721665   -0.292325
      3          6           0       -7.523394    0.067666   -0.889518
      4          1           0       -5.290482    0.992669    0.461520
      5          1           0       -4.800184    0.493035   -1.154368
      6          1           0       -6.637928   -1.101239    0.698728
      7          1           0       -6.147783   -1.599632   -0.916500
      8          1           0       -7.268607    0.433555   -1.889423
      9          1           0       -7.761537    0.934780   -0.265018
     10          1           0       -8.424395   -0.548043   -0.972947
     11          6           0       -3.909423   -0.662350    0.432403
     12          6           0       -2.634769    0.172234    0.561682
     13          6           0       -1.469389   -0.617097    1.158875
     14          1           0       -4.192599   -1.042466    1.423725
     15          1           0       -3.702301   -1.542101   -0.192164
     16          1           0       -2.845000    1.050200    1.185856
     17          1           0       -2.354855    0.551807   -0.429372
     18          1           0       -1.231246   -1.484212    0.534374
     19          1           0       -1.724176   -0.982986    2.158780
     20          1           0       -0.568388   -0.001388    1.242303
     21          6           0        3.736610    0.352673   -0.125320
     22          6           0        3.277729    1.803358    0.026088
     23          6           0        1.755235    1.943068    0.043127
     24          1           0        3.318467   -0.062619   -1.052484
     25          1           0        3.321955   -0.243698    0.699178
     26          1           0        3.694260    2.397093   -0.797682
     27          1           0        3.697170    2.215305    0.952902
     28          1           0        1.325544    1.375104    0.874622
     29          1           0        1.322617    1.557925   -0.885909
     30          1           0        1.449184    2.988201    0.152167
     31          6           0        5.256173    0.196759   -0.144037
     32          6           0        5.715054   -1.253927   -0.295445
     33          6           0        7.237547   -1.393636   -0.312483
     34          1           0        5.670828    0.793129   -0.968535
     35          1           0        5.674316    0.612051    0.783127
     36          1           0        5.295613   -1.665874   -1.222259
     37          1           0        5.298523   -1.847662    0.528325
     38          1           0        7.670165   -1.008493    0.616553
     39          1           0        7.667239   -0.825673   -1.143978
     40          1           0        7.543599   -2.438769   -0.421523
 ---------------------------------------------------------------------

 SCF Done:  E(RHF) =  -470.733242120     A.U. after   11 cycles
 E2 =    -0.1582288039D+01 EUMP2 =    -0.47231553015801D+03

 The electronic state is 1-A.
 Alpha  occ. eigenvalues --  -11.21614 -11.21597 -11.21576 -11.21536 -11.21404
 Alpha  occ. eigenvalues --  -11.21365 -11.21344 -11.21305 -11.21092 -11.21067
 Alpha  occ. eigenvalues --  -11.21051 -11.20974  -1.08433  -1.08386  -1.03542
 Alpha  occ. eigenvalues --   -1.03476  -0.96008  -0.95914  -0.87039  -0.86919
 Alpha  occ. eigenvalues --   -0.79616  -0.79530  -0.78243  -0.78199  -0.65064
 Alpha  occ. eigenvalues --   -0.65017  -0.60949  -0.60878  -0.59401  -0.59287
 Alpha  occ. eigenvalues --   -0.57717  -0.57434  -0.55282  -0.55219  -0.52799
 Alpha  occ. eigenvalues --   -0.52672  -0.52436  -0.52180  -0.49920  -0.49874
 Alpha  occ. eigenvalues --   -0.47995  -0.47769  -0.46627  -0.46577  -0.45783
 Alpha  occ. eigenvalues --   -0.45743  -0.45706  -0.45666  -0.43790  -0.43710
 Alpha virt. eigenvalues --    0.22115   0.23001   0.23468   0.24834   0.26204
 Alpha virt. eigenvalues --    0.26633   0.26959   0.27540   0.27740   0.28937
 Alpha virt. eigenvalues --    0.30013   0.31359   0.31645   0.31962   0.32053

 Mulliken charges:
               1
     1  C   -0.298189
     2  C   -0.299605
     3  C   -0.475674
     4  H    0.149596
     5  H    0.149454
     6  H    0.151863
     7  H    0.151864
     8  H    0.155134
     9  H    0.155146
    10  H    0.160152
    11  C   -0.298396
    12  C   -0.298685
    13  C   -0.482435
    14  H    0.149335
    15  H    0.149466
    16  H    0.151727
    17  H    0.152187
    18  H    0.154853
    19  H    0.154286
    20  H    0.167023
    21  C   -0.298345
    22  C   -0.299491
    23  C   -0.480510
    24  H    0.149683
    25  H    0.149816
    26  H    0.151986
    27  H    0.151952
    28  H    0.159466
    29  H    0.155652
    30  H    0.160632
    31  C   -0.298309
    32  C   -0.299673
    33  C   -0.475712
    34  H    0.149487
    35  H    0.149648
    36  H    0.151919
    37  H    0.152108
    38  H    0.155183
    39  H    0.155141
    40  H    0.160264
 Sum of Mulliken charges =  -0.00000

 Dipole moment (field-independent basis, Debye):
    X=              0.0287    Y=              0.0153    Z=             -0.0046  Tot=              0.0328
 Quadrupole moment (field-independent basis, Debye-Ang):
   XX=            -86.8703   YY=            -84.9759   ZZ=            -83.0182
   XY=              0.5797   XZ=             -0.6080   YZ=              0.3655

 Normal termination of Gaussian 16 at Thu May  6 04:01:33 2021.
