 Gaussian 16, Revision A.03,
 Gaussian 16:  EM64L-G16RevA.03 25-Dec-2016

 -------------
 #p 6-31g* mp2
 -------------

 ------------------------------------------------------
 Input file generated by CHIRIPA (05-May-2021 14:55:24)
 ------------------------------------------------------
 Symbolic Z-matrix:
 Charge =  0 Multiplicity = 1

                         Standard orientation:
 ---------------------------------------------------------------------
 Center     Atomic      Atomic             Coordinates (Angstroms)
 Number     Number       Type             X           Y           Z
 ---------------------------------------------------------------------
      1          6           0        3.654078    0.084068   -1.719154
      2          6           0        3.118462    1.232243   -1.126423
      3          6           0        2.292686    1.131923   -0.002778
      4          6           0        2.022062   -0.138114    0.504234
      5          6           0        2.540610   -1.300713   -0.063888
      6          6           0        3.363954   -1.176523   -1.186933
      7          1           0        4.294616    0.171270   -2.591795
      8          1           0        3.342071    2.212537   -1.537602
      9          1           0        1.864707    2.004351    0.475887
     10          1           0        2.299740   -2.264198    0.368658
     11          1           0        3.778523   -2.069936   -1.645181
     12          7           0        1.149138   -0.256953    1.693468
     13          8           0        0.925886   -1.387440    2.121013
     14          8           0        0.704720    0.782638    2.175527
     15          6           0       -2.880705   -0.530583   -0.068702
     16          6           0       -3.011521   -1.671014   -1.078796
     17          6           0       -3.227797   -3.029678   -0.411675
     18          1           0       -2.043877   -0.744709    0.610130
     19          1           0       -3.786133   -0.494936    0.552848
     20          1           0       -2.106706   -1.703621   -1.699170
     21          1           0       -3.848014   -1.454056   -1.755424
     22          1           0       -4.140597   -3.021127    0.192744
     23          1           0       -2.389396   -3.272110    0.249318
     24          1           0       -3.318660   -3.830555   -1.152081
     25          6           0       -2.664078    0.834014   -0.720375
     26          6           0       -2.533262    1.974445    0.289719
     27          6           0       -2.316987    3.333108   -0.377403
     28          1           0       -1.758650    0.798367   -1.341925
     29          1           0       -3.500906    1.048139   -1.399207
     30          1           0       -1.696769    1.757487    0.966347
     31          1           0       -3.438077    2.007052    0.910092
     32          1           0       -3.155388    3.575540   -1.038395
     33          1           0       -1.404186    3.324557   -0.981822
     34          1           0       -2.226124    4.133986    0.363003
 ---------------------------------------------------------------------

 SCF Done:  E(RHF) =  -669.536639433     A.U. after   15 cycles
 E2 =    -0.2092329053D+01 EUMP2 =    -0.67162896848619D+03

 The electronic state is 1-A.
 Alpha  occ. eigenvalues --  -20.61086 -20.61074 -15.86090 -11.31363 -11.27917
 Alpha  occ. eigenvalues --  -11.27914 -11.27644 -11.26913 -11.26903 -11.21111
 Alpha  occ. eigenvalues --  -11.20826 -11.20739 -11.20673 -11.20627 -11.20538
 Alpha  occ. eigenvalues --   -1.60131  -1.39688  -1.19525  -1.08939  -1.07812
 Alpha  occ. eigenvalues --   -1.04912  -1.02946  -0.95788  -0.95430  -0.86445
 Alpha  occ. eigenvalues --   -0.86314  -0.82623  -0.78995  -0.77697  -0.77587
 Alpha  occ. eigenvalues --   -0.72311  -0.71444  -0.70631  -0.65181  -0.64912
 Alpha  occ. eigenvalues --   -0.64440  -0.62259  -0.60349  -0.58787  -0.57023
 Alpha  occ. eigenvalues --   -0.55417  -0.54735  -0.53247  -0.53001  -0.52135
 Alpha  occ. eigenvalues --   -0.51844  -0.49384  -0.49080  -0.49069  -0.47332
 Alpha  occ. eigenvalues --   -0.46104  -0.45237  -0.45154  -0.44758  -0.43199
 Alpha  occ. eigenvalues --   -0.37498  -0.36509
 Alpha virt. eigenvalues --    0.04789   0.11125   0.16251   0.21131   0.23226
 Alpha virt. eigenvalues --    0.24650   0.26919   0.27283   0.27904   0.28274
 Alpha virt. eigenvalues --    0.28740   0.30904   0.31558   0.32235   0.32405

 Mulliken charges:
               1
     1  C   -0.170365
     2  C   -0.218595
     3  C   -0.171346
     4  C    0.157977
     5  C   -0.170838
     6  C   -0.218534
     7  H    0.226406
     8  H    0.224394
     9  H    0.276636
    10  H    0.275927
    11  H    0.224195
    12  N    0.488419
    13  O   -0.458709
    14  O   -0.458751
    15  C   -0.302032
    16  C   -0.298352
    17  C   -0.476760
    18  H    0.159568
    19  H    0.150350
    20  H    0.146977
    21  H    0.149447
    22  H    0.155585
    23  H    0.160900
    24  H    0.156066
    25  C   -0.297545
    26  C   -0.311466
    27  C   -0.474134
    28  H    0.142906
    29  H    0.146301
    30  H    0.174485
    31  H    0.151308
    32  H    0.152653
    33  H    0.146642
    34  H    0.160284
 Sum of Mulliken charges =  -0.00000

 Dipole moment (field-independent basis, Debye):
    X=              3.2635    Y=              0.3482    Z=             -3.9811  Tot=              5.1595
 Quadrupole moment (field-independent basis, Debye-Ang):
   XX=            -82.1079   YY=            -91.4072   ZZ=            -99.8901
   XY=             -0.3875   XZ=             -7.6454   YZ=              1.3310

 Normal termination of Gaussian 16 at Thu May  6 06:21:16 2021.
