 Gaussian 16, Revision A.03,
 Gaussian 16:  EM64L-G16RevA.03 25-Dec-2016

 -------------
 #p 6-31g* mp2
 -------------

 ------------------------------------------------------
 Input file generated by CHIRIPA (05-May-2021 14:55:19)
 ------------------------------------------------------
 Symbolic Z-matrix:
 Charge =  0 Multiplicity = 1

                         Standard orientation:
 ---------------------------------------------------------------------
 Center     Atomic      Atomic             Coordinates (Angstroms)
 Number     Number       Type             X           Y           Z
 ---------------------------------------------------------------------
      1          6           0        4.526690    1.068766    0.396399
      2          6           0        4.649416   -0.319930    0.282450
      3          6           0        3.527941   -1.112754    0.021162
      4          6           0        2.293517   -0.480890   -0.121089
      5          6           0        2.138958    0.900320   -0.013105
      6          6           0        3.274062    1.673393    0.248519
      7          1           0        5.403173    1.676979    0.599504
      8          1           0        5.620966   -0.792215    0.396825
      9          1           0        3.594464   -2.189937   -0.071948
     10          1           0        1.157214    1.342408   -0.132077
     11          1           0        3.175766    2.751652    0.336500
     12          7           0        1.099048   -1.309762   -0.397880
     13          8           0        0.022710   -0.728850   -0.519019
     14          8           0        1.261778   -2.524650   -0.488450
     15          6           0       -3.450042   -0.213510   -0.197741
     16          6           0       -3.560125   -1.339936    0.830378
     17          6           0       -4.086417   -2.642239    0.226377
     18          1           0       -4.437011   -0.038291   -0.647337
     19          1           0       -2.787511   -0.534496   -1.013471
     20          1           0       -4.221153   -1.016397    1.644614
     21          1           0       -2.572819   -1.512363    1.277717
     22          1           0       -3.424395   -2.991517   -0.572580
     23          1           0       -5.082094   -2.492733   -0.203597
     24          1           0       -4.157164   -3.433940    0.978749
     25          6           0       -2.925331    1.094870    0.390944
     26          6           0       -2.815248    2.221297   -0.637175
     27          6           0       -2.288956    3.523599   -0.033173
     28          1           0       -3.587861    1.415856    1.206675
     29          1           0       -1.938363    0.919651    0.840540
     30          1           0       -3.802554    2.393724   -1.084513
     31          1           0       -2.154220    1.897758   -1.451411
     32          1           0       -1.293279    3.374094    0.396801
     33          1           0       -2.950978    3.872878    0.765783
     34          1           0       -2.218209    4.315301   -0.785546
 ---------------------------------------------------------------------

 SCF Done:  E(RHF) =  -669.536410397     A.U. after   15 cycles
 E2 =    -0.2092631506D+01 EUMP2 =    -0.67162904190214D+03

 The electronic state is 1-A.
 Alpha  occ. eigenvalues --  -20.61120 -20.61111 -15.86135 -11.31385 -11.27940
 Alpha  occ. eigenvalues --  -11.27935 -11.27661 -11.26929 -11.26918 -11.20890
 Alpha  occ. eigenvalues --  -11.20811 -11.20262 -11.20186 -11.19876 -11.19759
 Alpha  occ. eigenvalues --   -1.60171  -1.39731  -1.19546  -1.08965  -1.07269
 Alpha  occ. eigenvalues --   -1.04930  -1.02524  -0.95822  -0.94988  -0.86335
 Alpha  occ. eigenvalues --   -0.86022  -0.82659  -0.78625  -0.77720  -0.77020
 Alpha  occ. eigenvalues --   -0.72395  -0.71475  -0.70655  -0.65223  -0.64933
 Alpha  occ. eigenvalues --   -0.63803  -0.62280  -0.59909  -0.58430  -0.56594
 Alpha  occ. eigenvalues --   -0.55437  -0.54264  -0.53266  -0.53019  -0.51769
 Alpha  occ. eigenvalues --   -0.51435  -0.49305  -0.49104  -0.48763  -0.46942
 Alpha  occ. eigenvalues --   -0.45638  -0.45245  -0.44566  -0.44287  -0.42711
 Alpha  occ. eigenvalues --   -0.37520  -0.36528
 Alpha virt. eigenvalues --    0.04774   0.11122   0.16270   0.19873   0.22951
 Alpha virt. eigenvalues --    0.25035   0.26775   0.27489   0.28548   0.28935
 Alpha virt. eigenvalues --    0.29235   0.31021   0.31481   0.32361   0.33038

 Mulliken charges:
               1
     1  C   -0.170229
     2  C   -0.218712
     3  C   -0.170131
     4  C    0.157085
     5  C   -0.173084
     6  C   -0.219064
     7  H    0.226448
     8  H    0.224154
     9  H    0.275976
    10  H    0.278640
    11  H    0.224723
    12  N    0.494370
    13  O   -0.466631
    14  O   -0.457752
    15  C   -0.299140
    16  C   -0.298613
    17  C   -0.476501
    18  H    0.140412
    19  H    0.169829
    20  H    0.142909
    21  H    0.160014
    22  H    0.163360
    23  H    0.149005
    24  H    0.155425
    25  C   -0.297802
    26  C   -0.301090
    27  C   -0.474046
    28  H    0.142122
    29  H    0.155763
    30  H    0.150250
    31  H    0.155564
    32  H    0.144045
    33  H    0.155580
    34  H    0.157121
 Sum of Mulliken charges =  -0.00000

 Dipole moment (field-independent basis, Debye):
    X=              4.5626    Y=              2.7119    Z=              0.8630  Tot=              5.3774
 Quadrupole moment (field-independent basis, Debye-Ang):
   XX=            -74.5275   YY=            -95.9217   ZZ=            -96.0590
   XY=              1.6244   XZ=              1.9473   YZ=             -0.9949

 Normal termination of Gaussian 16 at Wed May  5 22:06:19 2021.
