 Gaussian 16, Revision A.03,
 Gaussian 16:  EM64L-G16RevA.03 25-Dec-2016

 -------------
 #p 6-31g* mp2
 -------------

 ------------------------------------------------------
 Input file generated by CHIRIPA (05-May-2021 14:55:25)
 ------------------------------------------------------
 Symbolic Z-matrix:
 Charge =  0 Multiplicity = 1

                         Standard orientation:
 ---------------------------------------------------------------------
 Center     Atomic      Atomic             Coordinates (Angstroms)
 Number     Number       Type             X           Y           Z
 ---------------------------------------------------------------------
      1          6           0        4.425646    0.897311    1.270959
      2          6           0        4.705228   -0.391760    0.805501
      3          6           0        3.760806   -1.094804    0.051614
      4          6           0        2.541562   -0.475723   -0.219442
      5          6           0        2.233378    0.807297    0.230194
      6          6           0        3.192786    1.491677    0.982329
      7          1           0        5.165116    1.436203    1.855916
      8          1           0        5.661843   -0.855841    1.028128
      9          1           0        3.951106   -2.093918   -0.321179
     10          1           0        1.270924    1.243701   -0.007825
     11          1           0        2.972919    2.492665    1.342505
     12          7           0        1.533812   -1.210124   -1.016622
     13          8           0        0.467130   -0.642581   -1.241836
     14          8           0        1.829702   -2.339386   -1.401141
     15          6           0       -2.912287    0.971101    0.211027
     16          6           0       -2.774680    1.942460   -0.961795
     17          6           0       -1.663220    2.970916   -0.750302
     18          1           0       -3.107957    1.540868    1.129734
     19          1           0       -1.955535    0.452432    0.362691
     20          1           0       -3.731815    2.458136   -1.112083
     21          1           0       -2.579507    1.370302   -1.877853
     22          1           0       -0.696712    2.472819   -0.622377
     23          1           0       -1.855568    3.566835    0.147743
     24          1           0       -1.582316    3.655197   -1.600638
     25          6           0       -4.019300   -0.063109    0.014402
     26          6           0       -4.156907   -1.034468    1.187223
     27          6           0       -5.268368   -2.062922    0.975729
     28          1           0       -4.976052    0.455560   -0.137264
     29          1           0       -3.823631   -0.632875   -0.904307
     30          1           0       -4.352081   -0.462309    2.103280
     31          1           0       -3.199772   -1.550144    1.337511
     32          1           0       -5.076019   -2.658841    0.077685
     33          1           0       -6.234875   -1.564827    0.847805
     34          1           0       -5.349271   -2.747205    1.826066
 ---------------------------------------------------------------------

 SCF Done:  E(RHF) =  -669.536042113     A.U. after   15 cycles
 E2 =    -0.2091925951D+01 EUMP2 =    -0.67162796806403D+03

 The electronic state is 1-A.
 Alpha  occ. eigenvalues --  -20.60944 -20.60932 -15.85975 -11.31267 -11.27830
 Alpha  occ. eigenvalues --  -11.27819 -11.27563 -11.26834 -11.26818 -11.21014
 Alpha  occ. eigenvalues --  -11.20958 -11.20912 -11.20675 -11.20615 -11.20490
 Alpha  occ. eigenvalues --   -1.60003  -1.39560  -1.19436  -1.08845  -1.07767
 Alpha  occ. eigenvalues --   -1.04829  -1.02982  -0.95693  -0.95459  -0.86493
 Alpha  occ. eigenvalues --   -0.86229  -0.82525  -0.79051  -0.77653  -0.77510
 Alpha  occ. eigenvalues --   -0.72202  -0.71314  -0.70554  -0.65096  -0.64850
 Alpha  occ. eigenvalues --   -0.64346  -0.62205  -0.60347  -0.58829  -0.57076
 Alpha  occ. eigenvalues --   -0.55350  -0.54741  -0.53161  -0.52932  -0.52187
 Alpha  occ. eigenvalues --   -0.51899  -0.49400  -0.48965  -0.48941  -0.47377
 Alpha  occ. eigenvalues --   -0.46037  -0.45194  -0.45086  -0.44809  -0.43200
 Alpha  occ. eigenvalues --   -0.37414  -0.36426
 Alpha virt. eigenvalues --    0.04922   0.11219   0.16417   0.20208   0.23287
 Alpha virt. eigenvalues --    0.24211   0.26048   0.27476   0.27893   0.28407
 Alpha virt. eigenvalues --    0.29374   0.30621   0.31484   0.32133   0.32485

 Mulliken charges:
               1
     1  C   -0.170121
     2  C   -0.219256
     3  C   -0.169374
     4  C    0.155143
     5  C   -0.179476
     6  C   -0.223973
     7  H    0.226036
     8  H    0.223735
     9  H    0.275744
    10  H    0.294142
    11  H    0.224866
    12  N    0.487700
    13  O   -0.464526
    14  O   -0.458806
    15  C   -0.303068
    16  C   -0.297415
    17  C   -0.481444
    18  H    0.142299
    19  H    0.161786
    20  H    0.148713
    21  H    0.162872
    22  H    0.152459
    23  H    0.150979
    24  H    0.160462
    25  C   -0.298557
    26  C   -0.299809
    27  C   -0.475680
    28  H    0.145662
    29  H    0.157061
    30  H    0.147852
    31  H    0.155220
    32  H    0.157699
    33  H    0.153047
    34  H    0.158027
 Sum of Mulliken charges =  -0.00000

 Dipole moment (field-independent basis, Debye):
    X=              3.6717    Y=              2.4491    Z=              2.6917  Tot=              5.1696
 Quadrupole moment (field-independent basis, Debye-Ang):
   XX=            -75.6046   YY=            -95.1360   ZZ=            -96.5961
   XY=              1.3710   XZ=              6.5049   YZ=             -1.2223

 Normal termination of Gaussian 16 at Wed May  5 16:08:01 2021.
