 Gaussian 16, Revision A.03,
 Gaussian 16:  EM64L-G16RevA.03 25-Dec-2016

 -------------
 #p 6-31g* mp2
 -------------

 ------------------------------------------------------
 Input file generated by CHIRIPA (05-May-2021 14:57:24)
 ------------------------------------------------------
 Symbolic Z-matrix:
 Charge =  0 Multiplicity = 1

                         Standard orientation:
 ---------------------------------------------------------------------
 Center     Atomic      Atomic             Coordinates (Angstroms)
 Number     Number       Type             X           Y           Z
 ---------------------------------------------------------------------
      1          6           0        3.436885    1.089621    1.413438
      2          6           0        2.536727    0.153738    1.933400
      3          6           0        1.870695   -0.737282    1.086623
      4          6           0        2.129805   -0.664283   -0.281158
      5          6           0        3.020962    0.256827   -0.829506
      6          6           0        3.675708    1.138093    0.036073
      7          1           0        3.949891    1.777998    2.078538
      8          1           0        2.349296    0.113809    3.002662
      9          1           0        1.168800   -1.471811    1.462427
     10          1           0        3.187176    0.272553   -1.899806
     11          1           0        4.374256    1.863863   -0.370539
     12          7           0        1.430681   -1.602403   -1.187555
     13          8           0        1.676372   -1.517764   -2.388850
     14          8           0        0.650254   -2.404577   -0.679532
     15          6           0       -3.312133   -1.585980    1.045813
     16          6           0       -2.135301   -1.092592    1.618666
     17          6           0       -1.535308    0.067704    1.120399
     18          6           0       -2.141866    0.712269    0.043406
     19          6           0       -3.314314    0.245503   -0.548866
     20          6           0       -3.896851   -0.916537   -0.034221
     21          1           0       -3.771442   -2.488003    1.439240
     22          1           0       -1.678984   -1.610416    2.457519
     23          1           0       -0.624195    0.471556    1.544889
     24          1           0       -3.745816    0.783542   -1.384173
     25          1           0       -4.810788   -1.297413   -0.481097
     26          7           0       -1.515919    1.941546   -0.492756
     27          8           0       -2.070033    2.490966   -1.442352
     28          8           0       -0.483039    2.332356    0.046747
 ---------------------------------------------------------------------

 SCF Done:  E(RHF) =  -868.336605201     A.U. after   16 cycles
 E2 =    -0.2603635590D+01 EUMP2 =    -0.87094024079087D+03

 The electronic state is 1-A.
 Alpha  occ. eigenvalues --  -20.60700 -20.60693 -20.60581 -20.60564 -15.85740
 Alpha  occ. eigenvalues --  -15.85619 -11.31019 -11.30830 -11.27708 -11.27531
 Alpha  occ. eigenvalues --  -11.27411 -11.27383 -11.27303 -11.27123 -11.26684
 Alpha  occ. eigenvalues --  -11.26493 -11.26460 -11.26351  -1.59771  -1.59652
 Alpha  occ. eigenvalues --   -1.39328  -1.39209  -1.19196  -1.18994  -1.08588
 Alpha  occ. eigenvalues --   -1.08420  -1.04666  -1.04378  -0.95466  -0.95275
 Alpha  occ. eigenvalues --   -0.86036  -0.85807  -0.82315  -0.82144  -0.77426
 Alpha  occ. eigenvalues --   -0.77171  -0.71977  -0.71853  -0.71149  -0.70919
 Alpha  occ. eigenvalues --   -0.70413  -0.70062  -0.64874  -0.64730  -0.64598
 Alpha  occ. eigenvalues --   -0.64456  -0.62155  -0.61650  -0.55101  -0.54923
 Alpha  occ. eigenvalues --   -0.53038  -0.52806  -0.52598  -0.52354  -0.48742
 Alpha  occ. eigenvalues --   -0.48712  -0.48608  -0.48593  -0.44753  -0.44638
 Alpha  occ. eigenvalues --   -0.37168  -0.36901  -0.36331  -0.35727
 Alpha virt. eigenvalues --    0.04943   0.05527   0.11043   0.12088   0.16570
 Alpha virt. eigenvalues --    0.16794   0.20641   0.22304   0.26033   0.27900
 Alpha virt. eigenvalues --    0.28612   0.29626   0.30191   0.31733   0.32639

 Mulliken charges:
               1
     1  C   -0.164479
     2  C   -0.217794
     3  C   -0.182114
     4  C    0.163769
     5  C   -0.164212
     6  C   -0.212953
     7  H    0.226542
     8  H    0.219198
     9  H    0.268766
    10  H    0.277110
    11  H    0.225463
    12  N    0.487127
    13  O   -0.458409
    14  O   -0.464738
    15  C   -0.165901
    16  C   -0.211777
    17  C   -0.172753
    18  C    0.155970
    19  C   -0.167791
    20  C   -0.216803
    21  H    0.225662
    22  H    0.215711
    23  H    0.272973
    24  H    0.275265
    25  H    0.223511
    26  N    0.487582
    27  O   -0.459766
    28  O   -0.465160
 Sum of Mulliken charges =  -0.00000

 Dipole moment (field-independent basis, Debye):
    X=              0.3539    Y=             -0.9358    Z=              4.8394  Tot=              4.9418
 Quadrupole moment (field-independent basis, Debye-Ang):
   XX=            -80.7948   YY=           -115.9485   ZZ=           -102.0245
   XY=             15.0353   XZ=              2.6815   YZ=             -3.9630

 Normal termination of Gaussian 16 at Wed May  5 22:44:55 2021.
