 Gaussian 16, Revision A.03,
 Gaussian 16:  EM64L-G16RevA.03 25-Dec-2016

 -------------
 #p 6-31g* mp2
 -------------

 ------------------------------------------------------
 Input file generated by CHIRIPA (05-May-2021 14:51:13)
 ------------------------------------------------------
 Symbolic Z-matrix:
 Charge =  0 Multiplicity = 1

                         Standard orientation:
 ---------------------------------------------------------------------
 Center     Atomic      Atomic             Coordinates (Angstroms)
 Number     Number       Type             X           Y           Z
 ---------------------------------------------------------------------
      1          6           0       -3.102517   -0.151166   -0.243121
      2          6           0       -1.981879   -0.133718    0.796999
      3          6           0       -0.594973    0.008990    0.169370
      4          1           0       -2.929452   -0.978069   -0.945421
      5          1           0       -3.059725    0.774541   -0.833572
      6          1           0       -2.027631   -1.058562    1.386225
      7          1           0       -2.157736    0.693122    1.497018
      8          1           0       -0.525086    0.939590   -0.403082
      9          1           0       -0.394241   -0.822047   -0.514505
     10          1           0        0.191144    0.019218    0.930800
     11          6           0       -4.494971   -0.293301    0.368923
     12          6           0       -5.615609   -0.310748   -0.671198
     13          6           0       -7.002515   -0.453457   -0.043568
     14          1           0       -4.537764   -1.219007    0.959373
     15          1           0       -4.668036    0.533603    1.071222
     16          1           0       -5.439752   -1.137588   -1.371216
     17          1           0       -5.569857    0.614096   -1.260423
     18          1           0       -7.203247    0.377581    0.640307
     19          1           0       -7.072403   -1.384056    0.528884
     20          1           0       -7.788632   -0.463685   -0.804998
     21          6           0        4.443110   -0.187811   -0.053427
     22          6           0        4.201639   -1.697428   -0.080467
     23          6           0        5.500270   -2.504258   -0.061097
     24          1           0        5.063981    0.093278   -0.915083
     25          1           0        5.021398    0.067945    0.845219
     26          1           0        3.622787   -1.950083   -0.978082
     27          1           0        3.581110   -1.974928    0.781248
     28          1           0        6.078966   -2.281201    0.841098
     29          1           0        6.120881   -2.256214   -0.928228
     30          1           0        5.304355   -3.580865   -0.080943
     31          6           0        3.154379    0.632277   -0.072375
     32          6           0        3.395850    2.141895   -0.045335
     33          6           0        2.097218    2.948725   -0.064704
     34          1           0        2.576090    0.376521   -0.971021
     35          1           0        2.533507    0.351189    0.789282
     36          1           0        4.016379    2.419394   -0.907050
     37          1           0        3.974702    2.394549    0.852280
     38          1           0        1.476607    2.700681    0.802427
     39          1           0        1.518522    2.725667   -0.966901
     40          1           0        2.293133    4.025332   -0.044859
 ---------------------------------------------------------------------

 SCF Done:  E(RHF) =  -470.732353343     A.U. after   11 cycles
 E2 =    -0.1583482728D+01 EUMP2 =    -0.47231583607185D+03

 The electronic state is 1-A.
 Alpha  occ. eigenvalues --  -11.21579 -11.21566 -11.21552 -11.21529 -11.21369
 Alpha  occ. eigenvalues --  -11.21334 -11.21309 -11.21255 -11.21054 -11.21046
 Alpha  occ. eigenvalues --  -11.21016 -11.20927  -1.08406  -1.08362  -1.03523
 Alpha  occ. eigenvalues --   -1.03447  -0.95935  -0.95932  -0.86967  -0.86943
 Alpha  occ. eigenvalues --   -0.79677  -0.79451  -0.78260  -0.78105  -0.65024
 Alpha  occ. eigenvalues --   -0.65019  -0.60900  -0.60887  -0.59438  -0.59181
 Alpha  occ. eigenvalues --   -0.57630  -0.57478  -0.55225  -0.55213  -0.52766
 Alpha  occ. eigenvalues --   -0.52596  -0.52417  -0.52254  -0.49884  -0.49862
 Alpha  occ. eigenvalues --   -0.47927  -0.47812  -0.46580  -0.46560  -0.45845
 Alpha  occ. eigenvalues --   -0.45713  -0.45663  -0.45566  -0.43743  -0.43610
 Alpha virt. eigenvalues --    0.21782   0.23081   0.23669   0.24739   0.25656
 Alpha virt. eigenvalues --    0.26461   0.26558   0.27671   0.27788   0.29698
 Alpha virt. eigenvalues --    0.30194   0.31256   0.31652   0.32069   0.32138

 Mulliken charges:
               1
     1  C   -0.298595
     2  C   -0.300640
     3  C   -0.477944
     4  H    0.149395
     5  H    0.149404
     6  H    0.151274
     7  H    0.151343
     8  H    0.158309
     9  H    0.154028
    10  H    0.162887
    11  C   -0.298142
    12  C   -0.299582
    13  C   -0.475669
    14  H    0.149401
    15  H    0.149574
    16  H    0.151838
    17  H    0.151881
    18  H    0.155151
    19  H    0.155125
    20  H    0.160162
    21  C   -0.297924
    22  C   -0.299396
    23  C   -0.475630
    24  H    0.149270
    25  H    0.148972
    26  H    0.151870
    27  H    0.151586
    28  H    0.155066
    29  H    0.155127
    30  H    0.160056
    31  C   -0.300861
    32  C   -0.299757
    33  C   -0.476622
    34  H    0.151895
    35  H    0.152572
    36  H    0.151497
    37  H    0.151297
    38  H    0.156814
    39  H    0.155625
    40  H    0.159343
 Sum of Mulliken charges =  -0.00000

 Dipole moment (field-independent basis, Debye):
    X=              0.0122    Y=              0.0073    Z=             -0.0082  Tot=              0.0165
 Quadrupole moment (field-independent basis, Debye-Ang):
   XX=            -86.9266   YY=            -84.3525   ZZ=            -83.8218
   XY=              0.3986   XZ=              0.2862   YZ=              0.0949

 Normal termination of Gaussian 16 at Thu May  6 03:59:58 2021.
