 Gaussian 16, Revision A.03,
 Gaussian 16:  EM64L-G16RevA.03 25-Dec-2016

 -------------
 #p 6-31g* mp2
 -------------

 ------------------------------------------------------
 Input file generated by CHIRIPA (05-May-2021 14:53:17)
 ------------------------------------------------------
 Symbolic Z-matrix:
 Charge =  0 Multiplicity = 1

                         Standard orientation:
 ---------------------------------------------------------------------
 Center     Atomic      Atomic             Coordinates (Angstroms)
 Number     Number       Type             X           Y           Z
 ---------------------------------------------------------------------
      1          6           0        3.704231   -0.161839    0.044327
      2          6           0        3.180802   -1.566172    0.347406
      3          6           0        4.295899   -2.609755    0.420111
      4          1           0        4.254211   -0.179715   -0.906540
      5          1           0        4.428198    0.127128    0.818771
      6          1           0        2.457001   -1.851852   -0.426619
      7          1           0        2.631840   -1.544910    1.297567
      8          1           0        5.014537   -2.351631    1.204670
      9          1           0        4.838705   -2.660318   -0.529313
     10          1           0        3.899447   -3.606411    0.637739
     11          6           0        2.601332    0.892481   -0.031526
     12          6           0        3.124761    2.296813   -0.334605
     13          6           0        2.009664    3.340396   -0.407311
     14          1           0        1.877365    0.603514   -0.805971
     15          1           0        2.051352    0.910356    0.919340
     16          1           0        3.673723    2.275552   -1.284766
     17          1           0        3.848562    2.582494    0.439420
     18          1           0        1.466858    3.390959    0.542114
     19          1           0        1.291025    3.082273   -1.191869
     20          1           0        2.406116    4.337053   -0.624938
     21          6           0       -3.153643    2.103210    0.423483
     22          6           0       -4.124460    1.101331    0.322127
     23          6           0       -3.753365   -0.225528    0.084885
     24          6           0       -2.396353   -0.516330   -0.046425
     25          6           0       -1.405533    0.459563    0.049493
     26          6           0       -1.799664    1.779700    0.287082
     27          1           0       -3.450867    3.131334    0.607913
     28          1           0       -5.176718    1.349658    0.427633
     29          1           0       -4.484140   -1.020830    0.001949
     30          1           0       -0.364396    0.181300   -0.060154
     31          1           0       -1.043536    2.555709    0.365327
     32          7           0       -1.991296   -1.917457   -0.297767
     33          8           0       -0.789177   -2.147719   -0.409673
     34          8           0       -2.883603   -2.758867   -0.378101
 ---------------------------------------------------------------------

 SCF Done:  E(RHF) =  -669.535697189     A.U. after   15 cycles
 E2 =    -0.2093060970D+01 EUMP2 =    -0.67162875815912D+03

 The electronic state is 1-A.
 Alpha  occ. eigenvalues --  -20.60727 -20.60722 -15.85772 -11.31064 -11.27654
 Alpha  occ. eigenvalues --  -11.27548 -11.27380 -11.26663 -11.26579 -11.22162
 Alpha  occ. eigenvalues --  -11.21966 -11.21880 -11.21394 -11.21105 -11.20629
 Alpha  occ. eigenvalues --   -1.59798  -1.39353  -1.19239  -1.08661  -1.08646
 Alpha  occ. eigenvalues --   -1.04630  -1.03660  -0.96197  -0.95495  -0.87222
 Alpha  occ. eigenvalues --   -0.86028  -0.82333  -0.79831  -0.78405  -0.77327
 Alpha  occ. eigenvalues --   -0.71991  -0.71118  -0.70355  -0.65288  -0.64890
 Alpha  occ. eigenvalues --   -0.64642  -0.61996  -0.61043  -0.59607  -0.57760
 Alpha  occ. eigenvalues --   -0.55516  -0.55145  -0.53062  -0.52971  -0.52792
 Alpha  occ. eigenvalues --   -0.52306  -0.50157  -0.48767  -0.48746  -0.48067
 Alpha  occ. eigenvalues --   -0.46861  -0.45883  -0.45710  -0.44770  -0.43930
 Alpha  occ. eigenvalues --   -0.37232  -0.36231
 Alpha virt. eigenvalues --    0.05122   0.11392   0.16603   0.20179   0.23031
 Alpha virt. eigenvalues --    0.23778   0.25342   0.25920   0.26817   0.28598
 Alpha virt. eigenvalues --    0.30354   0.30597   0.31419   0.31638   0.32748

 Mulliken charges:
               1
     1  C   -0.297509
     2  C   -0.304677
     3  C   -0.476417
     4  H    0.150652
     5  H    0.148898
     6  H    0.169473
     7  H    0.152217
     8  H    0.151686
     9  H    0.153857
    10  H    0.165301
    11  C   -0.308213
    12  C   -0.297603
    13  C   -0.483164
    14  H    0.151352
    15  H    0.146859
    16  H    0.156249
    17  H    0.155081
    18  H    0.149656
    19  H    0.154693
    20  H    0.165387
    21  C   -0.171400
    22  C   -0.219042
    23  C   -0.170367
    24  C    0.157799
    25  C   -0.182479
    26  C   -0.228633
    27  H    0.225469
    28  H    0.222828
    29  H    0.275009
    30  H    0.290011
    31  H    0.231575
    32  N    0.488993
    33  O   -0.462953
    34  O   -0.460586
 Sum of Mulliken charges =  -0.00000

 Dipole moment (field-independent basis, Debye):
    X=             -1.2428    Y=              4.8272    Z=              0.8257  Tot=              5.0525
 Quadrupole moment (field-independent basis, Debye-Ang):
   XX=            -83.5891   YY=           -100.5548   ZZ=            -94.7544
   XY=             -9.1012   XZ=             -2.3447   YZ=             -0.4915

 Normal termination of Gaussian 16 at Thu May  6 15:36:48 2021.
