 Gaussian 16, Revision A.03,
 Gaussian 16:  EM64L-G16RevA.03 25-Dec-2016

 -------------
 #p 6-31g* mp2
 -------------

 ------------------------------------------------------
 Input file generated by CHIRIPA (05-May-2021 14:57:27)
 ------------------------------------------------------
 Symbolic Z-matrix:
 Charge =  0 Multiplicity = 1

                         Standard orientation:
 ---------------------------------------------------------------------
 Center     Atomic      Atomic             Coordinates (Angstroms)
 Number     Number       Type             X           Y           Z
 ---------------------------------------------------------------------
      1          6           0        6.061787    0.719709    0.871627
      2          6           0        4.875421    0.976825    1.566573
      3          6           0        3.649919    0.520066    1.072547
      4          6           0        3.647492   -0.193910   -0.124751
      5          6           0        4.812512   -0.466100   -0.840244
      6          6           0        6.026608    0.000335   -0.327450
      7          1           0        7.009356    1.078289    1.262688
      8          1           0        4.899725    1.535246    2.498035
      9          1           0        2.716488    0.704982    1.590167
     10          1           0        4.756493   -1.025445   -1.766210
     11          1           0        6.946384   -0.200826   -0.869290
     12          7           0        2.356145   -0.682583   -0.657689
     13          8           0        2.380849   -1.309331   -1.714672
     14          8           0        1.343736   -0.429603   -0.008332
     15          6           0       -4.121928   -2.313674    0.674831
     16          6           0       -2.881811   -1.833682    0.240968
     17          6           0       -2.725289   -0.490808   -0.115037
     18          6           0       -3.835030    0.348009   -0.024755
     19          6           0       -5.083503   -0.100247    0.403817
     20          6           0       -5.216885   -1.446953    0.754730
     21          1           0       -4.234530   -3.358339    0.949407
     22          1           0       -2.029713   -2.504503    0.177930
     23          1           0       -1.776626   -0.092768   -0.454182
     24          1           0       -5.914587    0.592550    0.456251
     25          1           0       -6.181171   -1.816950    1.091333
     26          7           0       -3.681576    1.771678   -0.398946
     27          8           0       -4.674734    2.490338   -0.310622
     28          8           0       -2.571046    2.141931   -0.773475
 ---------------------------------------------------------------------

 SCF Done:  E(RHF) =  -868.340193090     A.U. after   16 cycles
 E2 =    -0.2598290127D+01 EUMP2 =    -0.87093848321706D+03

 The electronic state is 1-A.
 Alpha  occ. eigenvalues --  -20.61277 -20.61271 -20.59875 -20.59851 -15.86296
 Alpha  occ. eigenvalues --  -15.84911 -11.31427 -11.30118 -11.27975 -11.27957
 Alpha  occ. eigenvalues --  -11.27682 -11.26943 -11.26925 -11.26787 -11.26492
 Alpha  occ. eigenvalues --  -11.26485 -11.25798 -11.25572  -1.60330  -1.58947
 Alpha  occ. eigenvalues --   -1.39889  -1.38500  -1.19580  -1.18305  -1.09022
 Alpha  occ. eigenvalues --   -1.07753  -1.04949  -1.03658  -0.95896  -0.94595
 Alpha  occ. eigenvalues --   -0.86358  -0.85082  -0.82736  -0.81411  -0.77804
 Alpha  occ. eigenvalues --   -0.76455  -0.72538  -0.71621  -0.71136  -0.70690
 Alpha  occ. eigenvalues --   -0.70270  -0.69421  -0.65239  -0.64953  -0.63954
 Alpha  occ. eigenvalues --   -0.63659  -0.62297  -0.60966  -0.55466  -0.54234
 Alpha  occ. eigenvalues --   -0.53289  -0.53039  -0.52047  -0.51732  -0.49300
 Alpha  occ. eigenvalues --   -0.49267  -0.47900  -0.47876  -0.45339  -0.43939
 Alpha  occ. eigenvalues --   -0.37550  -0.36539  -0.36342  -0.35265
 Alpha virt. eigenvalues --    0.04713   0.06031   0.11119   0.12370   0.16245
 Alpha virt. eigenvalues --    0.17529   0.21261   0.22522   0.27198   0.28070
 Alpha virt. eigenvalues --    0.28531   0.29419   0.30858   0.32033   0.32373

 Mulliken charges:
               1
     1  C   -0.169939
     2  C   -0.218577
     3  C   -0.169783
     4  C    0.157877
     5  C   -0.170311
     6  C   -0.218669
     7  H    0.226766
     8  H    0.225015
     9  H    0.276916
    10  H    0.275707
    11  H    0.224277
    12  N    0.491166
    13  O   -0.459259
    14  O   -0.468294
    15  C   -0.171650
    16  C   -0.222091
    17  C   -0.175681
    18  C    0.156411
    19  C   -0.172273
    20  C   -0.219861
    21  H    0.221922
    22  H    0.230618
    23  H    0.295442
    24  H    0.271746
    25  H    0.218985
    26  N    0.487580
    27  O   -0.465640
    28  O   -0.458401
 Sum of Mulliken charges =  -0.00000

 Dipole moment (field-independent basis, Debye):
    X=              4.5443    Y=             -3.3032    Z=              3.1512  Tot=              6.4414
 Quadrupole moment (field-independent basis, Debye-Ang):
   XX=            -63.3094   YY=           -109.6398   ZZ=           -103.1428
   XY=             22.9157   XZ=             -1.7308   YZ=              2.2157

 Normal termination of Gaussian 16 at Fri May  7 00:30:48 2021.
