 Gaussian 16, Revision A.03,
 Gaussian 16:  EM64L-G16RevA.03 25-Dec-2016

 -------------
 #p 6-31g* mp2
 -------------

 ------------------------------------------------------
 Input file generated by CHIRIPA (05-May-2021 14:51:09)
 ------------------------------------------------------
 Symbolic Z-matrix:
 Charge =  0 Multiplicity = 1

                         Standard orientation:
 ---------------------------------------------------------------------
 Center     Atomic      Atomic             Coordinates (Angstroms)
 Number     Number       Type             X           Y           Z
 ---------------------------------------------------------------------
      1          6           0       -4.765540   -0.516582    0.292895
      2          6           0       -6.001222   -0.395158   -0.599480
      3          6           0       -7.164631   -1.263459   -0.119556
      4          1           0       -4.449415   -1.568091    0.329484
      5          1           0       -5.034787   -0.235206    1.320381
      6          1           0       -5.729391   -0.675352   -1.625256
      7          1           0       -6.314328    0.656213   -0.634103
      8          1           0       -7.463943   -0.980171    0.894722
      9          1           0       -6.875683   -2.319302   -0.102062
     10          1           0       -8.037525   -1.161369   -0.771855
     11          6           0       -3.594020    0.345566   -0.173977
     12          6           0       -2.358339    0.224142    0.718398
     13          6           0       -1.194929    1.092442    0.238474
     14          1           0       -3.324773    0.064189   -1.201463
     15          1           0       -3.910145    1.397075   -0.210566
     16          1           0       -2.045232   -0.827230    0.753021
     17          1           0       -2.630169    0.504335    1.744173
     18          1           0       -1.483877    2.148285    0.220980
     19          1           0       -0.895617    0.809155   -0.775805
     20          1           0       -0.322035    0.990352    0.890773
     21          6           0        4.831040   -0.280873   -0.217752
     22          6           0        4.816416   -1.751604    0.200245
     23          6           0        6.126246   -2.471088   -0.122992
     24          1           0        5.030986   -0.214690   -1.295985
     25          1           0        5.664156    0.228131    0.286459
     26          1           0        3.982734   -2.257369   -0.303533
     27          1           0        4.616291   -1.814302    1.277573
     28          1           0        6.965767   -1.992612    0.391660
     29          1           0        6.328610   -2.438196   -1.198430
     30          1           0        6.093938   -3.521067    0.184186
     31          6           0        3.528520    0.451890    0.098834
     32          6           0        3.543145    1.922621   -0.319163
     33          6           0        2.233315    2.642104    0.004074
     34          1           0        2.695405   -0.057114   -0.405377
     35          1           0        3.328574    0.385707    1.177067
     36          1           0        3.743269    1.985318   -1.396490
     37          1           0        4.376826    2.428386    0.184616
     38          1           0        2.030950    2.609213    1.079513
     39          1           0        1.393793    2.163629   -0.510577
     40          1           0        2.265622    3.692084   -0.303104
 ---------------------------------------------------------------------

 SCF Done:  E(RHF) =  -470.732699139     A.U. after   11 cycles
 E2 =    -0.1582746649D+01 EUMP2 =    -0.47231544578865D+03

 The electronic state is 1-A.
 Alpha  occ. eigenvalues --  -11.21592 -11.21588 -11.21559 -11.21527 -11.21387
 Alpha  occ. eigenvalues --  -11.21376 -11.21328 -11.21316 -11.21064 -11.21061
 Alpha  occ. eigenvalues --  -11.21009 -11.20895  -1.08416  -1.08388  -1.03535
 Alpha  occ. eigenvalues --   -1.03455  -0.96025  -0.95868  -0.87093  -0.86840
 Alpha  occ. eigenvalues --   -0.79693  -0.79437  -0.78245  -0.78183  -0.65051
 Alpha  occ. eigenvalues --   -0.65016  -0.60940  -0.60850  -0.59445  -0.59216
 Alpha  occ. eigenvalues --   -0.57617  -0.57488  -0.55299  -0.55179  -0.52898
 Alpha  occ. eigenvalues --   -0.52618  -0.52387  -0.52116  -0.49954  -0.49811
 Alpha  occ. eigenvalues --   -0.47893  -0.47840  -0.46653  -0.46532  -0.45802
 Alpha  occ. eigenvalues --   -0.45730  -0.45704  -0.45634  -0.43744  -0.43685
 Alpha virt. eigenvalues --    0.22198   0.23032   0.23583   0.24912   0.26151
 Alpha virt. eigenvalues --    0.26706   0.26814   0.27507   0.27815   0.29103
 Alpha virt. eigenvalues --    0.29903   0.31396   0.31556   0.31831   0.32383

 Mulliken charges:
               1
     1  C   -0.298227
     2  C   -0.299587
     3  C   -0.475687
     4  H    0.149557
     5  H    0.149509
     6  H    0.151829
     7  H    0.151932
     8  H    0.155178
     9  H    0.155140
    10  H    0.160208
    11  C   -0.298400
    12  C   -0.300832
    13  C   -0.477782
    14  H    0.149211
    15  H    0.149616
    16  H    0.151708
    17  H    0.151803
    18  H    0.155972
    19  H    0.152811
    20  H    0.165281
    21  C   -0.298145
    22  C   -0.299595
    23  C   -0.475682
    24  H    0.149585
    25  H    0.149540
    26  H    0.151778
    27  H    0.151849
    28  H    0.155188
    29  H    0.155141
    30  H    0.160154
    31  C   -0.298822
    32  C   -0.299414
    33  C   -0.481838
    34  H    0.149881
    35  H    0.148989
    36  H    0.151387
    37  H    0.151281
    38  H    0.153751
    39  H    0.166680
    40  H    0.159054
 Sum of Mulliken charges =  -0.00000

 Dipole moment (field-independent basis, Debye):
    X=             -0.0161    Y=              0.0100    Z=             -0.0003  Tot=              0.0190
 Quadrupole moment (field-independent basis, Debye-Ang):
   XX=            -86.4382   YY=            -84.9303   ZZ=            -83.6793
   XY=             -0.2048   XZ=              0.4710   YZ=              0.7106

 Normal termination of Gaussian 16 at Thu May  6 05:18:26 2021.
