 Gaussian 16, Revision A.03,
 Gaussian 16:  EM64L-G16RevA.03 25-Dec-2016

 -------------
 #p 6-31g* mp2
 -------------

 ------------------------------------------------------
 Input file generated by CHIRIPA (05-May-2021 14:51:07)
 ------------------------------------------------------
 Symbolic Z-matrix:
 Charge =  0 Multiplicity = 1

                         Standard orientation:
 ---------------------------------------------------------------------
 Center     Atomic      Atomic             Coordinates (Angstroms)
 Number     Number       Type             X           Y           Z
 ---------------------------------------------------------------------
      1          6           0        1.814245   -1.388211    0.443942
      2          6           0        1.320200   -2.691363   -0.185103
      3          6           0        0.321102   -3.434525    0.702201
      4          1           0        2.278107   -1.609934    1.414827
      5          1           0        0.952134   -0.738959    0.650417
      6          1           0        2.183111   -3.337396   -0.391601
      7          1           0        0.857632   -2.466534   -1.154690
      8          1           0       -0.557651   -2.811660    0.898243
      9          1           0        0.775359   -3.687469    1.665669
     10          1           0       -0.019030   -4.363113    0.233272
     11          6           0        2.813676   -0.633858   -0.431169
     12          6           0        3.307722    0.669294    0.197876
     13          6           0        4.306819    1.412456   -0.689427
     14          1           0        3.675787   -1.283110   -0.637643
     15          1           0        2.349815   -0.412135   -1.402053
     16          1           0        3.770289    0.444465    1.167463
     17          1           0        2.444810    1.315327    0.404374
     18          1           0        3.852562    1.665400   -1.652895
     19          1           0        5.185573    0.789591   -0.885470
     20          1           0        4.646951    2.341044   -0.220499
     21          6           0       -2.803916    0.615130   -0.438401
     22          6           0       -3.220627   -0.717989    0.183798
     23          6           0       -4.201006   -1.498458   -0.692282
     24          1           0       -3.700264    1.223834   -0.620023
     25          1           0       -2.349435    0.427062   -1.420984
     26          1           0       -3.672931   -0.527571    1.165520
     27          1           0       -2.323166   -1.323511    0.364138
     28          1           0       -3.755505   -1.717434   -1.668078
     29          1           0       -5.112940   -0.916973   -0.862142
     30          1           0       -4.485610   -2.448064   -0.228482
     31          6           0       -1.824006    1.406939    0.425627
     32          6           0       -1.407294    2.740057   -0.196571
     33          6           0       -0.426915    3.520527    0.679509
     34          1           0       -2.278487    1.595007    1.408212
     35          1           0       -0.927659    0.798236    0.607251
     36          1           0       -2.304755    3.345579   -0.376911
     37          1           0       -0.954990    2.549639   -1.178293
     38          1           0        0.485019    2.939041    0.849369
     39          1           0       -0.872416    3.739503    1.655305
     40          1           0       -0.142311    4.470133    0.215709
 ---------------------------------------------------------------------

 SCF Done:  E(RHF) =  -470.732758232     A.U. after   11 cycles
 E2 =    -0.1585033703D+01 EUMP2 =    -0.47231779193459D+03

 The electronic state is 1-A.
 Alpha  occ. eigenvalues --  -11.21655 -11.21654 -11.21653 -11.21638 -11.21459
 Alpha  occ. eigenvalues --  -11.21457 -11.21399 -11.21398 -11.21112 -11.21100
 Alpha  occ. eigenvalues --  -11.21095 -11.21095  -1.08519  -1.08456  -1.03605
 Alpha  occ. eigenvalues --   -1.03550  -0.96050  -0.95998  -0.87074  -0.87008
 Alpha  occ. eigenvalues --   -0.79707  -0.79583  -0.78431  -0.78184  -0.65404
 Alpha  occ. eigenvalues --   -0.64856  -0.61218  -0.60767  -0.59419  -0.59360
 Alpha  occ. eigenvalues --   -0.57723  -0.57564  -0.55514  -0.55135  -0.52715
 Alpha  occ. eigenvalues --   -0.52711  -0.52534  -0.52369  -0.50179  -0.49758
 Alpha  occ. eigenvalues --   -0.48122  -0.47835  -0.46894  -0.46638  -0.46225
 Alpha  occ. eigenvalues --   -0.45819  -0.45790  -0.45082  -0.43833  -0.43823
 Alpha virt. eigenvalues --    0.19127   0.21703   0.24118   0.24480   0.25493
 Alpha virt. eigenvalues --    0.26575   0.27089   0.27261   0.27877   0.29437
 Alpha virt. eigenvalues --    0.31516   0.31561   0.31647   0.31721   0.32028

 Mulliken charges:
               1
     1  C   -0.307869
     2  C   -0.299015
     3  C   -0.483182
     4  H    0.150372
     5  H    0.157051
     6  H    0.152438
     7  H    0.151378
     8  H    0.161757
     9  H    0.155716
    10  H    0.160628
    11  C   -0.297483
    12  C   -0.306702
    13  C   -0.475327
    14  H    0.150041
    15  H    0.149208
    16  H    0.152486
    17  H    0.157214
    18  H    0.155169
    19  H    0.155355
    20  H    0.160684
    21  C   -0.297178
    22  C   -0.309108
    23  C   -0.475113
    24  H    0.150126
    25  H    0.149021
    26  H    0.152346
    27  H    0.159639
    28  H    0.155084
    29  H    0.155330
    30  H    0.160697
    31  C   -0.307888
    32  C   -0.298925
    33  C   -0.481730
    34  H    0.150184
    35  H    0.157158
    36  H    0.152429
    37  H    0.151473
    38  H    0.160138
    39  H    0.155697
    40  H    0.160702
 Sum of Mulliken charges =  -0.00000

 Dipole moment (field-independent basis, Debye):
    X=             -0.0004    Y=             -0.0018    Z=              0.0128  Tot=              0.0129
 Quadrupole moment (field-independent basis, Debye-Ang):
   XX=            -84.4917   YY=            -85.1573   ZZ=            -84.9105
   XY=             -1.7179   XZ=             -0.0082   YZ=             -0.0216

 Normal termination of Gaussian 16 at Wed May  5 21:17:12 2021.
