 Gaussian 16, Revision A.03,
 Gaussian 16:  EM64L-G16RevA.03 25-Dec-2016

 -------------
 #p 6-31g* mp2
 -------------

 ------------------------------------------------------
 Input file generated by CHIRIPA (05-May-2021 14:53:12)
 ------------------------------------------------------
 Symbolic Z-matrix:
 Charge =  0 Multiplicity = 1

                         Standard orientation:
 ---------------------------------------------------------------------
 Center     Atomic      Atomic             Coordinates (Angstroms)
 Number     Number       Type             X           Y           Z
 ---------------------------------------------------------------------
      1          6           0        3.578367   -0.142007    0.478147
      2          6           0        2.858520   -1.345046    1.088477
      3          6           0        1.473781   -0.991980    1.632201
      4          1           0        3.671220    0.645931    1.238066
      5          1           0        2.961299    0.274390   -0.330083
      6          1           0        3.477397   -1.759893    1.894398
      7          1           0        2.767540   -2.130286    0.327072
      8          1           0        0.835525   -0.598446    0.834478
      9          1           0        1.549416   -0.225949    2.410710
     10          1           0        0.977015   -1.866485    2.063855
     11          6           0        4.963978   -0.479079   -0.069752
     12          6           0        5.683825    0.723960   -0.680081
     13          6           0        7.068564    0.370894   -1.223805
     14          1           0        5.581046   -0.895476    0.738478
     15          1           0        4.871125   -1.267017   -0.829670
     16          1           0        5.774805    1.509200    0.081324
     17          1           0        5.064948    1.138807   -1.486003
     18          1           0        6.992930   -0.395137   -2.002315
     19          1           0        7.706820   -0.022640   -0.426083
     20          1           0        7.565330    1.245399   -1.655460
     21          6           0       -4.822756   -1.731426   -0.670601
     22          6           0       -3.432899   -1.887820   -0.651637
     23          6           0       -2.599895   -0.801012   -0.369678
     24          6           0       -3.193202    0.433455   -0.110121
     25          6           0       -4.574489    0.621079   -0.121587
     26          6           0       -5.388119   -0.479682   -0.405981
     27          1           0       -5.462328   -2.581104   -0.890579
     28          1           0       -2.991054   -2.858768   -0.856767
     29          1           0       -1.520860   -0.894023   -0.348445
     30          1           0       -4.985684    1.601323    0.086882
     31          1           0       -6.467180   -0.355283   -0.420021
     32          7           0       -2.321594    1.591395    0.189666
     33          8           0       -2.869000    2.668531    0.414970
     34          8           0       -1.107526    1.399928    0.193656
 ---------------------------------------------------------------------

 SCF Done:  E(RHF) =  -669.535755896     A.U. after   15 cycles
 E2 =    -0.2091284879D+01 EUMP2 =    -0.67162704077570D+03

 The electronic state is 1-A.
 Alpha  occ. eigenvalues --  -20.60844 -20.60838 -15.85885 -11.31222 -11.27790
 Alpha  occ. eigenvalues --  -11.27784 -11.27534 -11.26804 -11.26793 -11.21186
 Alpha  occ. eigenvalues --  -11.21163 -11.20962 -11.20802 -11.20744 -11.20459
 Alpha  occ. eigenvalues --   -1.59911  -1.39467  -1.19395  -1.08796  -1.07965
 Alpha  occ. eigenvalues --   -1.04795  -1.03083  -0.95647  -0.95511  -0.86538
 Alpha  occ. eigenvalues --   -0.86194  -0.82471  -0.79149  -0.77770  -0.77507
 Alpha  occ. eigenvalues --   -0.72113  -0.71226  -0.70508  -0.65053  -0.64810
 Alpha  occ. eigenvalues --   -0.64595  -0.62156  -0.60482  -0.58903  -0.57124
 Alpha  occ. eigenvalues --   -0.55306  -0.54802  -0.53125  -0.52894  -0.52245
 Alpha  occ. eigenvalues --   -0.51917  -0.49488  -0.48860  -0.48833  -0.47433
 Alpha  occ. eigenvalues --   -0.46174  -0.45308  -0.45227  -0.44846  -0.43342
 Alpha  occ. eigenvalues --   -0.37376  -0.36395
 Alpha virt. eigenvalues --    0.05006   0.11251   0.16503   0.20923   0.23247
 Alpha virt. eigenvalues --    0.24325   0.26272   0.27292   0.27669   0.28099
 Alpha virt. eigenvalues --    0.29256   0.30435   0.31590   0.32118   0.32278

 Mulliken charges:
               1
     1  C   -0.298402
     2  C   -0.299299
     3  C   -0.486015
     4  H    0.152409
     5  H    0.154773
     6  H    0.149802
     7  H    0.145739
     8  H    0.171470
     9  H    0.161075
    10  H    0.150816
    11  C   -0.298019
    12  C   -0.299525
    13  C   -0.475447
    14  H    0.147935
    15  H    0.146938
    16  H    0.153023
    17  H    0.153154
    18  H    0.153780
    19  H    0.154280
    20  H    0.159836
    21  C   -0.170385
    22  C   -0.220692
    23  C   -0.170757
    24  C    0.156395
    25  C   -0.170440
    26  C   -0.218841
    27  H    0.225731
    28  H    0.224027
    29  H    0.280905
    30  H    0.275649
    31  H    0.223542
    32  N    0.490908
    33  O   -0.459773
    34  O   -0.464594
 Sum of Mulliken charges =  -0.00000

 Dipole moment (field-independent basis, Debye):
    X=             -3.1983    Y=             -3.9314    Z=             -1.0604  Tot=              5.1778
 Quadrupole moment (field-independent basis, Debye-Ang):
   XX=            -73.3547   YY=            -97.2627   ZZ=            -94.8045
   XY=              9.7843   XZ=              4.1906   YZ=              0.7499

 Normal termination of Gaussian 16 at Wed May  5 15:30:33 2021.
