 Gaussian 16, Revision A.03,
 Gaussian 16:  EM64L-G16RevA.03 25-Dec-2016

 -------------
 #p 6-31g* mp2
 -------------

 ------------------------------------------------------
 Input file generated by CHIRIPA (05-May-2021 14:51:08)
 ------------------------------------------------------
 Symbolic Z-matrix:
 Charge =  0 Multiplicity = 1

                         Standard orientation:
 ---------------------------------------------------------------------
 Center     Atomic      Atomic             Coordinates (Angstroms)
 Number     Number       Type             X           Y           Z
 ---------------------------------------------------------------------
      1          6           0       -3.118844   -0.640740   -0.290880
      2          6           0       -2.473231   -1.608264    0.701626
      3          6           0       -1.813440   -2.805258    0.016298
      4          1           0       -3.866459   -1.181694   -0.887023
      5          1           0       -2.354537   -0.285382   -0.995826
      6          1           0       -3.238242   -1.960623    1.405343
      7          1           0       -1.727203   -1.064900    1.295607
      8          1           0       -1.030476   -2.471510   -0.672310
      9          1           0       -2.550101   -3.372322   -0.561950
     10          1           0       -1.358237   -3.483974    0.744306
     11          6           0       -3.782590    0.561046    0.379105
     12          6           0       -4.428203    1.528570   -0.613400
     13          6           0       -5.087994    2.725564    0.071927
     14          1           0       -4.546898    0.205687    1.084051
     15          1           0       -3.034976    1.102000    0.975249
     16          1           0       -5.174232    0.985206   -1.207381
     17          1           0       -3.663193    1.880929   -1.317118
     18          1           0       -4.351334    3.292628    0.650175
     19          1           0       -5.870958    2.391816    0.760535
     20          1           0       -5.543197    3.404280   -0.656081
     21          6           0        4.077771    0.465187    0.052442
     22          6           0        3.809496    1.968267   -0.029788
     23          6           0        5.073630    2.805933    0.165345
     24          1           0        4.526878    0.232140    1.027602
     25          1           0        4.821817    0.190446   -0.708023
     26          1           0        3.065150    2.239857    0.729687
     27          1           0        3.360799    2.197735   -1.004792
     28          1           0        5.818189    2.563735   -0.599882
     29          1           0        5.520860    2.606096    1.144452
     30          1           0        4.858935    3.877309    0.102732
     31          6           0        2.823664   -0.385492   -0.140667
     32          6           0        3.091938   -1.888573   -0.058436
     33          6           0        1.827804   -2.726239   -0.253571
     34          1           0        2.079618   -0.110752    0.619798
     35          1           0        2.374557   -0.152445   -1.115827
     36          1           0        3.540635   -2.118041    0.916567
     37          1           0        3.836285   -2.160163   -0.817912
     38          1           0        1.380574   -2.526402   -1.232678
     39          1           0        1.083245   -2.484041    0.511656
     40          1           0        2.042499   -3.797615   -0.190957
 ---------------------------------------------------------------------

 SCF Done:  E(RHF) =  -470.731904926     A.U. after   11 cycles
 E2 =    -0.1583185424D+01 EUMP2 =    -0.47231509034948D+03

 The electronic state is 1-A.
 Alpha  occ. eigenvalues --  -11.21627 -11.21580 -11.21580 -11.21545 -11.21430
 Alpha  occ. eigenvalues --  -11.21371 -11.21370 -11.21309 -11.21091 -11.21055
 Alpha  occ. eigenvalues --  -11.21000 -11.20863  -1.08450  -1.08385  -1.03569
 Alpha  occ. eigenvalues --   -1.03449  -0.96071  -0.95848  -0.87140  -0.86816
 Alpha  occ. eigenvalues --   -0.79712  -0.79443  -0.78272  -0.78193  -0.65089
 Alpha  occ. eigenvalues --   -0.65015  -0.61005  -0.60855  -0.59358  -0.59295
 Alpha  occ. eigenvalues --   -0.57651  -0.57529  -0.55358  -0.55167  -0.52803
 Alpha  occ. eigenvalues --   -0.52613  -0.52438  -0.52207  -0.49960  -0.49809
 Alpha  occ. eigenvalues --   -0.47993  -0.47735  -0.46628  -0.46538  -0.45835
 Alpha  occ. eigenvalues --   -0.45739  -0.45704  -0.45588  -0.43819  -0.43698
 Alpha virt. eigenvalues --    0.21722   0.23125   0.23610   0.25033   0.26007
 Alpha virt. eigenvalues --    0.26491   0.27227   0.27541   0.27760   0.29253
 Alpha virt. eigenvalues --    0.30038   0.31388   0.31655   0.31993   0.32261

 Mulliken charges:
               1
     1  C   -0.298239
     2  C   -0.300735
     3  C   -0.480161
     4  H    0.149668
     5  H    0.149623
     6  H    0.151642
     7  H    0.150777
     8  H    0.163042
     9  H    0.153993
    10  H    0.159508
    11  C   -0.298196
    12  C   -0.299633
    13  C   -0.475676
    14  H    0.149434
    15  H    0.149442
    16  H    0.151890
    17  H    0.151903
    18  H    0.155119
    19  H    0.155133
    20  H    0.160168
    21  C   -0.298160
    22  C   -0.299639
    23  C   -0.475715
    24  H    0.149775
    25  H    0.149706
    26  H    0.151719
    27  H    0.151821
    28  H    0.155269
    29  H    0.155252
    30  H    0.160275
    31  C   -0.298215
    32  C   -0.300175
    33  C   -0.478237
    34  H    0.148809
    35  H    0.149012
    36  H    0.151696
    37  H    0.151573
    38  H    0.154388
    39  H    0.161994
    40  H    0.160153
 Sum of Mulliken charges =  -0.00000

 Dipole moment (field-independent basis, Debye):
    X=              0.0274    Y=             -0.0226    Z=             -0.0098  Tot=              0.0368
 Quadrupole moment (field-independent basis, Debye-Ang):
   XX=            -85.1152   YY=            -85.8950   ZZ=            -83.9074
   XY=              0.2807   XZ=             -0.1142   YZ=             -0.4088

 Normal termination of Gaussian 16 at Thu May  6 02:05:57 2021.
