 Gaussian 16, Revision A.03,
 Gaussian 16:  EM64L-G16RevA.03 25-Dec-2016

 -------------
 #p 6-31g* mp2
 -------------

 ------------------------------------------------------
 Input file generated by CHIRIPA (05-May-2021 14:51:14)
 ------------------------------------------------------
 Symbolic Z-matrix:
 Charge =  0 Multiplicity = 1

                         Standard orientation:
 ---------------------------------------------------------------------
 Center     Atomic      Atomic             Coordinates (Angstroms)
 Number     Number       Type             X           Y           Z
 ---------------------------------------------------------------------
      1          6           0        4.941486   -0.567141   -0.264473
      2          6           0        6.317131   -0.648857    0.398029
      3          6           0        7.201358   -1.739054   -0.208113
      4          1           0        4.439797   -1.540354   -0.174422
      5          1           0        5.070509   -0.380288   -1.339570
      6          1           0        6.185519   -0.834124    1.471793
      7          1           0        6.815526    0.324720    0.306558
      8          1           0        7.362156   -1.555529   -1.275382
      9          1           0        6.728569   -2.720957   -0.103527
     10          1           0        8.179947   -1.779954    0.280304
     11          6           0        4.045990    0.518070    0.330617
     12          6           0        2.670345    0.599786   -0.331885
     13          6           0        1.786118    1.689983    0.274257
     14          1           0        3.916967    0.331217    1.405714
     15          1           0        4.547679    1.491283    0.240566
     16          1           0        2.171950   -0.373791   -0.240414
     17          1           0        2.801958    0.785053   -1.405649
     18          1           0        2.258908    2.671886    0.169671
     19          1           0        1.625320    1.506458    1.341526
     20          1           0        0.807530    1.730883   -0.214160
     21          6           0       -5.098834   -0.337797    0.260195
     22          6           0       -5.305535   -1.738379   -0.317411
     23          6           0       -6.519929   -2.450546    0.279129
     24          1           0       -4.983877   -0.410957    1.350322
     25          1           0       -6.001700    0.262204    0.080670
     26          1           0       -4.402021   -2.335133   -0.138072
     27          1           0       -5.419822   -1.661897   -1.406312
     28          1           0       -7.434002   -1.879154    0.087861
     29          1           0       -6.410418   -2.556216    1.363307
     30          1           0       -6.649011   -3.449997   -0.147831
     31          6           0       -3.888641    0.386868   -0.326339
     32          6           0       -3.681941    1.787451    0.251267
     33          6           0       -2.467547    2.499617   -0.345273
     34          1           0       -2.985777   -0.213133   -0.146815
     35          1           0       -4.003599    0.460028   -1.416466
     36          1           0       -3.567654    1.710967    1.340169
     37          1           0       -4.585456    2.384204    0.071928
     38          1           0       -2.577058    2.605288   -1.429451
     39          1           0       -1.553474    1.928225   -0.154005
     40          1           0       -2.338465    3.499069    0.081687
 ---------------------------------------------------------------------

 SCF Done:  E(RHF) =  -470.733285324     A.U. after   11 cycles
 E2 =    -0.1582150596D+01 EUMP2 =    -0.47231543591991D+03

 The electronic state is 1-A.
 Alpha  occ. eigenvalues --  -11.21600 -11.21600 -11.21595 -11.21587 -11.21401
 Alpha  occ. eigenvalues --  -11.21400 -11.21342 -11.21340 -11.21070 -11.21070
 Alpha  occ. eigenvalues --  -11.21041 -11.21039  -1.08428  -1.08421  -1.03537
 Alpha  occ. eigenvalues --   -1.03509  -0.96006  -0.95941  -0.87045  -0.86937
 Alpha  occ. eigenvalues --   -0.79629  -0.79544  -0.78242  -0.78232  -0.65060
 Alpha  occ. eigenvalues --   -0.65051  -0.60949  -0.60911  -0.59375  -0.59325
 Alpha  occ. eigenvalues --   -0.57679  -0.57501  -0.55291  -0.55237  -0.52809
 Alpha  occ. eigenvalues --   -0.52638  -0.52442  -0.52250  -0.49933  -0.49873
 Alpha  occ. eigenvalues --   -0.47985  -0.47816  -0.46631  -0.46599  -0.45786
 Alpha  occ. eigenvalues --   -0.45772  -0.45707  -0.45702  -0.43786  -0.43734
 Alpha virt. eigenvalues --    0.22298   0.22993   0.23534   0.24736   0.26278
 Alpha virt. eigenvalues --    0.26661   0.26958   0.27520   0.27659   0.28720
 Alpha virt. eigenvalues --    0.30199   0.31418   0.31730   0.31931   0.31980

 Mulliken charges:
               1
     1  C   -0.298216
     2  C   -0.299630
     3  C   -0.475697
     4  H    0.149557
     5  H    0.149571
     6  H    0.151884
     7  H    0.151968
     8  H    0.155202
     9  H    0.155147
    10  H    0.160243
    11  C   -0.298543
    12  C   -0.298952
    13  C   -0.482982
    14  H    0.149398
    15  H    0.149733
    16  H    0.151487
    17  H    0.152089
    18  H    0.155617
    19  H    0.154653
    20  H    0.167575
    21  C   -0.298291
    22  C   -0.299646
    23  C   -0.475703
    24  H    0.149648
    25  H    0.149554
    26  H    0.151871
    27  H    0.151945
    28  H    0.155198
    29  H    0.155161
    30  H    0.160231
    31  C   -0.298400
    32  C   -0.299225
    33  C   -0.482217
    34  H    0.149411
    35  H    0.149606
    36  H    0.152038
    37  H    0.151860
    38  H    0.154897
    39  H    0.161183
    40  H    0.160775
 Sum of Mulliken charges =  -0.00000

 Dipole moment (field-independent basis, Debye):
    X=              0.0003    Y=              0.0104    Z=             -0.0030  Tot=              0.0108
 Quadrupole moment (field-independent basis, Debye-Ang):
   XX=            -85.6463   YY=            -85.1379   ZZ=            -84.0031
   XY=              0.0548   XZ=              0.7014   YZ=             -0.8006

 Normal termination of Gaussian 16 at Wed May  5 20:01:13 2021.
