 Gaussian 16, Revision A.03,
 Gaussian 16:  EM64L-G16RevA.03 25-Dec-2016

 -------------
 #p 6-31g* mp2
 -------------

 ------------------------------------------------------
 Input file generated by CHIRIPA (05-May-2021 14:51:14)
 ------------------------------------------------------
 Symbolic Z-matrix:
 Charge =  0 Multiplicity = 1

                         Standard orientation:
 ---------------------------------------------------------------------
 Center     Atomic      Atomic             Coordinates (Angstroms)
 Number     Number       Type             X           Y           Z
 ---------------------------------------------------------------------
      1          6           0        3.245132    0.221271   -0.494779
      2          6           0        4.621248   -0.232388   -0.006432
      3          6           0        5.253018   -1.287030   -0.915493
      4          1           0        2.581230   -0.651395   -0.562857
      5          1           0        3.339210    0.622654   -1.513325
      6          1           0        4.524836   -0.631522    1.011415
      7          1           0        5.281896    0.641487    0.060675
      8          1           0        5.378157   -0.895818   -1.930330
      9          1           0        4.616795   -2.176061   -0.974188
     10          1           0        6.236139   -1.597078   -0.547792
     11          6           0        2.600711    1.275470    0.403616
     12          6           0        1.224595    1.729129   -0.084731
     13          6           0        0.592825    2.783770    0.824329
     14          1           0        2.506634    0.874087    1.422162
     15          1           0        3.264613    2.148135    0.471694
     16          1           0        0.563948    0.855254   -0.151838
     17          1           0        1.321008    2.128263   -1.102578
     18          1           0        1.229048    3.672801    0.883024
     19          1           0        0.467686    2.392559    1.839167
     20          1           0       -0.390296    3.093819    0.456629
     21          6           0       -3.617273   -0.480169    0.216979
     22          6           0       -4.291409    0.245770   -0.947727
     23          6           0       -5.679792    0.776577   -0.589358
     24          1           0       -4.256949   -1.312239    0.541659
     25          1           0       -3.539150    0.205975    1.071672
     26          1           0       -4.366986   -0.441113   -1.800426
     27          1           0       -3.649963    1.076091   -1.269798
     28          1           0       -5.618738    1.482438    0.245287
     29          1           0       -6.339836   -0.043387   -0.288356
     30          1           0       -6.143492    1.291919   -1.436272
     31          6           0       -2.228571   -1.016572   -0.125815
     32          6           0       -1.554435   -1.742510    1.038891
     33          6           0       -0.166051   -2.273318    0.680521
     34          1           0       -2.306694   -1.702715   -0.980508
     35          1           0       -1.588895   -0.184502   -0.450496
     36          1           0       -2.195881   -2.572833    1.360960
     37          1           0       -1.478858   -1.055628    1.891589
     38          1           0        0.493992   -1.453353    0.379519
     39          1           0       -0.227106   -2.979178   -0.154124
     40          1           0        0.297649   -2.788661    1.527436
 ---------------------------------------------------------------------

 SCF Done:  E(RHF) =  -470.732342621     A.U. after   11 cycles
 E2 =    -0.1584578740D+01 EUMP2 =    -0.47231692136122D+03

 The electronic state is 1-A.
 Alpha  occ. eigenvalues --  -11.21648 -11.21634 -11.21609 -11.21587 -11.21418
 Alpha  occ. eigenvalues --  -11.21417 -11.21357 -11.21346 -11.21140 -11.21114
 Alpha  occ. eigenvalues --  -11.21075 -11.21047  -1.08493  -1.08419  -1.03590
 Alpha  occ. eigenvalues --   -1.03527  -0.96037  -0.95977  -0.87034  -0.87015
 Alpha  occ. eigenvalues --   -0.79675  -0.79591  -0.78378  -0.78157  -0.65379
 Alpha  occ. eigenvalues --   -0.64871  -0.61156  -0.60755  -0.59417  -0.59323
 Alpha  occ. eigenvalues --   -0.57690  -0.57558  -0.55453  -0.55150  -0.52709
 Alpha  occ. eigenvalues --   -0.52701  -0.52466  -0.52392  -0.49986  -0.49931
 Alpha  occ. eigenvalues --   -0.48088  -0.47894  -0.46952  -0.46581  -0.46065
 Alpha  occ. eigenvalues --   -0.45759  -0.45755  -0.45070  -0.43810  -0.43798
 Alpha virt. eigenvalues --    0.20304   0.22662   0.23987   0.24994   0.25690
 Alpha virt. eigenvalues --    0.26288   0.26885   0.27448   0.28814   0.29358
 Alpha virt. eigenvalues --    0.30691   0.31479   0.31662   0.31770   0.32174

 Mulliken charges:
               1
     1  C   -0.304479
     2  C   -0.299187
     3  C   -0.475938
     4  H    0.155275
     5  H    0.149621
     6  H    0.152115
     7  H    0.151776
     8  H    0.155052
     9  H    0.155840
    10  H    0.160158
    11  C   -0.297812
    12  C   -0.311671
    13  C   -0.475303
    14  H    0.149739
    15  H    0.150099
    16  H    0.161540
    17  H    0.152412
    18  H    0.155854
    19  H    0.155002
    20  H    0.159660
    21  C   -0.297834
    22  C   -0.299718
    23  C   -0.475754
    24  H    0.149660
    25  H    0.149767
    26  H    0.151991
    27  H    0.151951
    28  H    0.155267
    29  H    0.155192
    30  H    0.160290
    31  C   -0.305621
    32  C   -0.299086
    33  C   -0.486333
    34  H    0.149697
    35  H    0.156285
    36  H    0.152421
    37  H    0.151773
    38  H    0.164349
    39  H    0.155599
    40  H    0.160354
 Sum of Mulliken charges =  -0.00000

 Dipole moment (field-independent basis, Debye):
    X=              0.0010    Y=             -0.0040    Z=             -0.0077  Tot=              0.0087
 Quadrupole moment (field-independent basis, Debye-Ang):
   XX=            -85.7923   YY=            -84.2508   ZZ=            -84.7191
   XY=              1.5837   XZ=              0.3267   YZ=             -0.5954

 Normal termination of Gaussian 16 at Thu May  6 00:49:51 2021.
