 Gaussian 16, Revision A.03,
 Gaussian 16:  EM64L-G16RevA.03 25-Dec-2016

 -------------
 #p 6-31g* mp2
 -------------

 ------------------------------------------------------
 Input file generated by CHIRIPA (05-May-2021 14:51:08)
 ------------------------------------------------------
 Symbolic Z-matrix:
 Charge =  0 Multiplicity = 1

                         Standard orientation:
 ---------------------------------------------------------------------
 Center     Atomic      Atomic             Coordinates (Angstroms)
 Number     Number       Type             X           Y           Z
 ---------------------------------------------------------------------
      1          6           0       -1.782689    1.217314    0.209326
      2          6           0       -2.062118    2.711784    0.372006
      3          6           0       -0.868768    3.477449    0.944251
      4          1           0       -1.507275    0.793943    1.184953
      5          1           0       -0.911359    1.083591   -0.446644
      6          1           0       -2.933508    2.842610    1.026361
      7          1           0       -2.337086    3.131608   -0.604087
      8          1           0        0.003258    3.376565    0.290038
      9          1           0       -0.596553    3.085926    1.929750
     10          1           0       -1.090341    4.543802    1.052210
     11          6           0       -2.966268    0.438344   -0.361703
     12          6           0       -2.686839   -1.056126   -0.524382
     13          6           0       -3.880190   -1.821791   -1.096628
     14          1           0       -3.837599    0.572067    0.294267
     15          1           0       -3.241682    0.861715   -1.337330
     16          1           0       -2.411872   -1.475950    0.451710
     17          1           0       -1.815450   -1.186953   -1.178738
     18          1           0       -4.152405   -1.430268   -2.082127
     19          1           0       -4.752216   -1.720908   -0.442415
     20          1           0       -3.658616   -2.888145   -1.204587
     21          6           0        2.177566   -1.389904    0.554445
     22          6           0        0.758213   -1.910824    0.326269
     23          6           0        0.378921   -3.035009    1.290707
     24          1           0        2.887907   -2.221229    0.448338
     25          1           0        2.267405   -1.032186    1.589511
     26          1           0        0.670676   -2.266178   -0.708466
     27          1           0        0.051185   -1.078123    0.432743
     28          1           0        0.438182   -2.689245    2.327787
     29          1           0        1.061193   -3.884049    1.180094
     30          1           0       -0.639611   -3.392467    1.109941
     31          6           0        2.571391   -0.265754   -0.402068
     32          6           0        3.990745    0.255166   -0.173892
     33          6           0        4.370037    1.379351   -1.138330
     34          1           0        2.481552   -0.623472   -1.437134
     35          1           0        1.861050    0.565572   -0.295961
     36          1           0        4.697772   -0.577534   -0.280366
     37          1           0        4.078281    0.610520    0.860843
     38          1           0        3.687764    2.228392   -1.027718
     39          1           0        4.310776    1.033587   -2.175410
     40          1           0        5.388569    1.736810   -0.957564
 ---------------------------------------------------------------------

 SCF Done:  E(RHF) =  -470.731100028     A.U. after   11 cycles
 E2 =    -0.1585876031D+01 EUMP2 =    -0.47231697605897D+03

 The electronic state is 1-A.
 Alpha  occ. eigenvalues --  -11.21672 -11.21570 -11.21532 -11.21471 -11.21394
 Alpha  occ. eigenvalues --  -11.21358 -11.21338 -11.21251 -11.21158 -11.21059
 Alpha  occ. eigenvalues --  -11.21056 -11.20990  -1.08531  -1.08321  -1.03604
 Alpha  occ. eigenvalues --   -1.03423  -0.96033  -0.95920  -0.87045  -0.86937
 Alpha  occ. eigenvalues --   -0.79791  -0.79481  -0.78601  -0.77847  -0.65120
 Alpha  occ. eigenvalues --   -0.64992  -0.60986  -0.60855  -0.59579  -0.59147
 Alpha  occ. eigenvalues --   -0.57724  -0.57442  -0.55319  -0.55215  -0.52741
 Alpha  occ. eigenvalues --   -0.52600  -0.52460  -0.52346  -0.49973  -0.49866
 Alpha  occ. eigenvalues --   -0.48137  -0.47781  -0.46836  -0.46625  -0.46344
 Alpha  occ. eigenvalues --   -0.45793  -0.45547  -0.44768  -0.43815  -0.43690
 Alpha virt. eigenvalues --    0.21104   0.22265   0.23580   0.24603   0.24992
 Alpha virt. eigenvalues --    0.26312   0.26631   0.27166   0.28601   0.29958
 Alpha virt. eigenvalues --    0.30622   0.31152   0.31312   0.31749   0.32378

 Mulliken charges:
               1
     1  C   -0.306377
     2  C   -0.298579
     3  C   -0.476358
     4  H    0.149722
     5  H    0.154652
     6  H    0.152295
     7  H    0.152375
     8  H    0.154904
     9  H    0.155033
    10  H    0.160925
    11  C   -0.296586
    12  C   -0.306887
    13  C   -0.475248
    14  H    0.149333
    15  H    0.149613
    16  H    0.155195
    17  H    0.157553
    18  H    0.154941
    19  H    0.154756
    20  H    0.159894
    21  C   -0.296877
    22  C   -0.309634
    23  C   -0.477805
    24  H    0.148639
    25  H    0.148602
    26  H    0.149551
    27  H    0.168450
    28  H    0.153906
    29  H    0.154849
    30  H    0.161165
    31  C   -0.301954
    32  C   -0.299357
    33  C   -0.475625
    34  H    0.148612
    35  H    0.152262
    36  H    0.152016
    37  H    0.152109
    38  H    0.154706
    39  H    0.154925
    40  H    0.160307
 Sum of Mulliken charges =  -0.00000

 Dipole moment (field-independent basis, Debye):
    X=             -0.0563    Y=              0.0389    Z=             -0.0091  Tot=              0.0690
 Quadrupole moment (field-independent basis, Debye-Ang):
   XX=            -85.5034   YY=            -85.5497   ZZ=            -84.0243
   XY=             -1.0641   XZ=             -0.6319   YZ=              0.5772

 Normal termination of Gaussian 16 at Wed May  5 19:42:25 2021.
