 Gaussian 16, Revision A.03,
 Gaussian 16:  EM64L-G16RevA.03 25-Dec-2016

 -------------
 #p 6-31g* mp2
 -------------

 ------------------------------------------------------
 Input file generated by CHIRIPA (05-May-2021 14:55:21)
 ------------------------------------------------------
 Symbolic Z-matrix:
 Charge =  0 Multiplicity = 1

                         Standard orientation:
 ---------------------------------------------------------------------
 Center     Atomic      Atomic             Coordinates (Angstroms)
 Number     Number       Type             X           Y           Z
 ---------------------------------------------------------------------
      1          6           0        3.742557    2.486951    0.597518
      2          6           0        2.441538    2.250814    0.141329
      3          6           0        2.064174    0.979552   -0.301432
      4          6           0        3.017578   -0.037094   -0.274199
      5          6           0        4.321550    0.166777    0.174559
      6          6           0        4.676764    1.446014    0.612650
      7          1           0        4.027099    3.477596    0.939651
      8          1           0        1.713927    3.057326    0.128453
      9          1           0        1.063792    0.769038   -0.659675
     10          1           0        5.024814   -0.657139    0.175546
     11          1           0        5.687869    1.626498    0.966399
     12          7           0        2.629805   -1.387144   -0.740458
     13          8           0        3.488375   -2.265972   -0.706463
     14          8           0        1.474640   -1.540921   -1.131079
     15          6           0       -3.334965   -0.680265    0.126353
     16          6           0       -2.769397   -1.310750    1.399383
     17          6           0       -1.550690   -2.194071    1.130510
     18          1           0       -3.606191   -1.476520   -0.580300
     19          1           0       -2.549634   -0.085047   -0.359821
     20          1           0       -3.555961   -1.903480    1.883743
     21          1           0       -2.499663   -0.512908    2.103164
     22          1           0       -0.747055   -1.611516    0.668557
     23          1           0       -1.809354   -3.009989    0.447889
     24          1           0       -1.162563   -2.634640    2.054153
     25          6           0       -4.553644    0.205614    0.378872
     26          6           0       -5.119212    0.836101   -0.894159
     27          6           0       -6.337919    1.719421   -0.625286
     28          1           0       -5.338976   -0.389603    0.865047
     29          1           0       -4.282418    1.001870    1.085525
     30          1           0       -5.388945    0.038258   -1.597938
     31          1           0       -4.332648    1.428830   -1.378519
     32          1           0       -6.079255    2.535340    0.057335
     33          1           0       -7.141554    1.136866   -0.163331
     34          1           0       -6.726045    2.159990   -1.548929
 ---------------------------------------------------------------------

 SCF Done:  E(RHF) =  -669.535944206     A.U. after   15 cycles
 E2 =    -0.2091189008D+01 EUMP2 =    -0.67162713321376D+03

 The electronic state is 1-A.
 Alpha  occ. eigenvalues --  -20.60907 -20.60902 -15.85930 -11.31275 -11.27848
 Alpha  occ. eigenvalues --  -11.27835 -11.27579 -11.26855 -11.26844 -11.21473
 Alpha  occ. eigenvalues --  -11.21184 -11.21113 -11.21018 -11.20999 -11.20144
 Alpha  occ. eigenvalues --   -1.59962  -1.39519  -1.19446  -1.08845  -1.08131
 Alpha  occ. eigenvalues --   -1.04846  -1.03161  -0.95690  -0.95578  -0.86590
 Alpha  occ. eigenvalues --   -0.86246  -0.82518  -0.79235  -0.77929  -0.77564
 Alpha  occ. eigenvalues --   -0.72155  -0.71273  -0.70555  -0.65103  -0.64855
 Alpha  occ. eigenvalues --   -0.64772  -0.62197  -0.60566  -0.58994  -0.57190
 Alpha  occ. eigenvalues --   -0.55349  -0.54871  -0.53175  -0.52940  -0.52274
 Alpha  occ. eigenvalues --   -0.51984  -0.49539  -0.48912  -0.48906  -0.47534
 Alpha  occ. eigenvalues --   -0.46307  -0.45488  -0.45421  -0.44791  -0.43434
 Alpha  occ. eigenvalues --   -0.37423  -0.36448
 Alpha virt. eigenvalues --    0.04927   0.11186   0.16398   0.20882   0.22938
 Alpha virt. eigenvalues --    0.24285   0.26112   0.27350   0.27596   0.28310
 Alpha virt. eigenvalues --    0.28894   0.30512   0.31588   0.32037   0.32308

 Mulliken charges:
               1
     1  C   -0.170637
     2  C   -0.218497
     3  C   -0.171670
     4  C    0.158711
     5  C   -0.170815
     6  C   -0.218492
     7  H    0.225938
     8  H    0.223722
     9  H    0.275761
    10  H    0.275873
    11  H    0.223802
    12  N    0.488662
    13  O   -0.458770
    14  O   -0.459360
    15  C   -0.295880
    16  C   -0.300610
    17  C   -0.479789
    18  H    0.152822
    19  H    0.145047
    20  H    0.150122
    21  H    0.145985
    22  H    0.167535
    23  H    0.158904
    24  H    0.156009
    25  C   -0.297876
    26  C   -0.298899
    27  C   -0.475400
    28  H    0.149869
    29  H    0.146341
    30  H    0.153552
    31  H    0.149303
    32  H    0.153407
    33  H    0.155639
    34  H    0.159694
 Sum of Mulliken charges =  -0.00000

 Dipole moment (field-independent basis, Debye):
    X=              1.5479    Y=              4.6735    Z=              1.5641  Tot=              5.1656
 Quadrupole moment (field-independent basis, Debye-Ang):
   XX=            -82.9088   YY=            -94.7620   ZZ=            -96.5453
   XY=             14.0306   XZ=              6.0639   YZ=             -1.4322

 Normal termination of Gaussian 16 at Thu May  6 01:23:18 2021.
