 Gaussian 16, Revision A.03,
 Gaussian 16:  EM64L-G16RevA.03 25-Dec-2016

 -------------
 #p 6-31g* mp2
 -------------

 ------------------------------------------------------
 Input file generated by CHIRIPA (05-May-2021 14:53:11)
 ------------------------------------------------------
 Symbolic Z-matrix:
 Charge =  0 Multiplicity = 1

                         Standard orientation:
 ---------------------------------------------------------------------
 Center     Atomic      Atomic             Coordinates (Angstroms)
 Number     Number       Type             X           Y           Z
 ---------------------------------------------------------------------
      1          6           0       -4.387206    0.116462    0.255326
      2          6           0       -5.799878   -0.466096    0.200824
      3          6           0       -6.836409    0.432683    0.875799
      4          1           0       -4.105141    0.280078    1.304428
      5          1           0       -4.386575    1.104150   -0.226200
      6          1           0       -5.797548   -1.452991    0.681083
      7          1           0       -6.078539   -0.628523   -0.848262
      8          1           0       -6.868091    1.414499    0.392441
      9          1           0       -6.585504    0.585346    1.930475
     10          1           0       -7.839203   -0.002871    0.825239
     11          6           0       -3.339802   -0.770605   -0.415333
     12          6           0       -1.927131   -0.188047   -0.360831
     13          6           0       -0.890599   -1.086826   -1.035806
     14          1           0       -3.340434   -1.758293    0.066193
     15          1           0       -3.621867   -0.934221   -1.464435
     16          1           0       -1.648470   -0.025620    0.688255
     17          1           0       -1.929460    0.798848   -0.841090
     18          1           0       -1.141504   -1.239489   -2.090482
     19          1           0       -0.858917   -2.068642   -0.552448
     20          1           0        0.112195   -0.651272   -0.985246
     21          6           0        4.090241   -1.956406    0.632032
     22          6           0        3.496814   -1.768014   -0.620515
     23          6           0        2.899969   -0.546630   -0.946928
     24          6           0        2.914738    0.469366    0.007443
     25          6           0        3.497928    0.312365    1.263838
     26          6           0        4.088907   -0.917447    1.568559
     27          1           0        4.551606   -2.908480    0.877173
     28          1           0        3.496362   -2.573112   -1.349803
     29          1           0        2.433449   -0.373695   -1.909151
     30          1           0        3.482691    1.133584    1.970084
     31          1           0        4.549025   -1.060916    2.542086
     32          7           0        2.285990    1.766851   -0.326635
     33          8           0        2.312247    2.646193    0.531681
     34          8           0        1.778825    1.879911   -1.440475
 ---------------------------------------------------------------------

 SCF Done:  E(RHF) =  -669.535052063     A.U. after   15 cycles
 E2 =    -0.2092570067D+01 EUMP2 =    -0.67162762213089D+03

 The electronic state is 1-A.
 Alpha  occ. eigenvalues --  -20.60866 -20.60848 -15.85891 -11.31228 -11.27803
 Alpha  occ. eigenvalues --  -11.27788 -11.27541 -11.26807 -11.26793 -11.21350
 Alpha  occ. eigenvalues --  -11.21176 -11.21084 -11.21026 -11.20832 -11.20782
 Alpha  occ. eigenvalues --   -1.59921  -1.39477  -1.19413  -1.08807  -1.08112
 Alpha  occ. eigenvalues --   -1.04813  -1.03226  -0.95728  -0.95621  -0.86745
 Alpha  occ. eigenvalues --   -0.86200  -0.82475  -0.79294  -0.77917  -0.77528
 Alpha  occ. eigenvalues --   -0.72113  -0.71248  -0.70527  -0.65062  -0.64815
 Alpha  occ. eigenvalues --   -0.64740  -0.62179  -0.60619  -0.59079  -0.57317
 Alpha  occ. eigenvalues --   -0.55312  -0.54991  -0.53284  -0.52918  -0.52266
 Alpha  occ. eigenvalues --   -0.52094  -0.49643  -0.48877  -0.48867  -0.47609
 Alpha  occ. eigenvalues --   -0.46310  -0.45468  -0.45377  -0.44870  -0.43484
 Alpha  occ. eigenvalues --   -0.37372  -0.36358
 Alpha virt. eigenvalues --    0.04991   0.11150   0.16485   0.21339   0.23179
 Alpha virt. eigenvalues --    0.24570   0.26966   0.27100   0.27826   0.27938
 Alpha virt. eigenvalues --    0.28668   0.30727   0.31675   0.31798   0.32192

 Mulliken charges:
               1
     1  C   -0.298376
     2  C   -0.299378
     3  C   -0.475587
     4  H    0.149453
     5  H    0.152125
     6  H    0.150361
     7  H    0.151548
     8  H    0.156118
     9  H    0.154917
    10  H    0.159145
    11  C   -0.298481
    12  C   -0.299758
    13  C   -0.480605
    14  H    0.146493
    15  H    0.149025
    16  H    0.150507
    17  H    0.162267
    18  H    0.153493
    19  H    0.149436
    20  H    0.162969
    21  C   -0.170757
    22  C   -0.217903
    23  C   -0.174457
    24  C    0.161382
    25  C   -0.170905
    26  C   -0.218451
    27  H    0.225842
    28  H    0.224213
    29  H    0.277018
    30  H    0.275685
    31  H    0.223564
    32  N    0.488828
    33  O   -0.459352
    34  O   -0.460378
 Sum of Mulliken charges =  -0.00000

 Dipole moment (field-independent basis, Debye):
    X=              2.3159    Y=             -4.4740    Z=              1.1703  Tot=              5.1720
 Quadrupole moment (field-independent basis, Debye-Ang):
   XX=            -83.1038   YY=            -99.1701   ZZ=            -90.1899
   XY=            -11.9644   XZ=              5.4248   YZ=              1.6058

 Normal termination of Gaussian 16 at Wed May  5 23:18:32 2021.
