 Gaussian 16, Revision A.03,
 Gaussian 16:  EM64L-G16RevA.03 25-Dec-2016

 -------------
 #p 6-31g* mp2
 -------------

 ------------------------------------------------------
 Input file generated by CHIRIPA (05-May-2021 14:57:21)
 ------------------------------------------------------
 Symbolic Z-matrix:
 Charge =  0 Multiplicity = 1

                         Standard orientation:
 ---------------------------------------------------------------------
 Center     Atomic      Atomic             Coordinates (Angstroms)
 Number     Number       Type             X           Y           Z
 ---------------------------------------------------------------------
      1          6           0       -2.663886   -2.542550    0.142207
      2          6           0       -3.744602   -1.720551    0.478200
      3          6           0       -3.668940   -0.336961    0.292455
      4          6           0       -2.492083    0.193382   -0.233885
      5          6           0       -1.398303   -0.599252   -0.578364
      6          6           0       -1.496244   -1.980269   -0.384074
      7          1           0       -2.731316   -3.616357    0.289817
      8          1           0       -4.652658   -2.154463    0.887102
      9          1           0       -4.490561    0.322649    0.543993
     10          1           0       -0.506271   -0.137594   -0.984035
     11          1           0       -0.655371   -2.616208   -0.645910
     12          7           0       -2.400189    1.656765   -0.435047
     13          8           0       -1.352264    2.099419   -0.900394
     14          8           0       -3.377829    2.333401   -0.123563
     15          6           0        2.124743    2.496738    0.672257
     16          6           0        1.547717    1.526411    1.498107
     17          6           0        1.752877    0.166609    1.246321
     18          6           0        2.544205   -0.188953    0.155146
     19          6           0        3.132700    0.754167   -0.685978
     20          6           0        2.914001    2.108204   -0.415233
     21          1           0        1.960111    3.550825    0.875215
     22          1           0        0.934309    1.825234    2.343377
     23          1           0        1.318154   -0.605444    1.869512
     24          1           0        3.739332    0.425544   -1.521096
     25          1           0        3.363384    2.859585   -1.058292
     26          7           0        2.768565   -1.625463   -0.121444
     27          8           0        3.469817   -1.912760   -1.089094
     28          8           0        2.238919   -2.436902    0.634650
 ---------------------------------------------------------------------

 SCF Done:  E(RHF) =  -868.340157287     A.U. after   16 cycles
 E2 =    -0.2601700303D+01 EUMP2 =    -0.87094185759027D+03

 The electronic state is 1-A.
 Alpha  occ. eigenvalues --  -20.61252 -20.61224 -20.60954 -20.60941 -15.86260
 Alpha  occ. eigenvalues --  -15.85980 -11.31229 -11.31114 -11.27758 -11.27754
 Alpha  occ. eigenvalues --  -11.27670 -11.27566 -11.27314 -11.27273 -11.26633
 Alpha  occ. eigenvalues --  -11.26607 -11.26591 -11.26431  -1.60325  -1.60030
 Alpha  occ. eigenvalues --   -1.39882  -1.39586  -1.19366  -1.19245  -1.08792
 Alpha  occ. eigenvalues --   -1.08674  -1.04708  -1.04580  -0.95699  -0.95557
 Alpha  occ. eigenvalues --   -0.86101  -0.85985  -0.82551  -0.82384  -0.77675
 Alpha  occ. eigenvalues --   -0.77468  -0.72474  -0.72213  -0.71672  -0.71356
 Alpha  occ. eigenvalues --   -0.70405  -0.70317  -0.64990  -0.64881  -0.64662
 Alpha  occ. eigenvalues --   -0.64550  -0.62055  -0.61931  -0.55126  -0.55085
 Alpha  occ. eigenvalues --   -0.53224  -0.52932  -0.52747  -0.52478  -0.49259
 Alpha  occ. eigenvalues --   -0.49198  -0.48976  -0.48947  -0.45356  -0.45045
 Alpha  occ. eigenvalues --   -0.37322  -0.37151  -0.36536  -0.35871
 Alpha virt. eigenvalues --    0.04767   0.05041   0.11163   0.11656   0.16403
 Alpha virt. eigenvalues --    0.16594   0.21579   0.21727   0.27333   0.27484
 Alpha virt. eigenvalues --    0.28367   0.28577   0.31109   0.31504   0.32383

 Mulliken charges:
               1
     1  C   -0.171573
     2  C   -0.219106
     3  C   -0.173008
     4  C    0.154876
     5  C   -0.176926
     6  C   -0.222112
     7  H    0.228766
     8  H    0.222822
     9  H    0.273594
    10  H    0.276812
    11  H    0.239770
    12  N    0.487188
    13  O   -0.463271
    14  O   -0.462432
    15  C   -0.157034
    16  C   -0.214131
    17  C   -0.176299
    18  C    0.148915
    19  C   -0.172660
    20  C   -0.216104
    21  H    0.231665
    22  H    0.225468
    23  H    0.273612
    24  H    0.274765
    25  H    0.225748
    26  N    0.485918
    27  O   -0.458450
    28  O   -0.466813
 Sum of Mulliken charges =  -0.00000

 Dipole moment (field-independent basis, Debye):
    X=             -0.9697    Y=              0.0985    Z=              1.6958  Tot=              1.9559
 Quadrupole moment (field-independent basis, Debye-Ang):
   XX=           -102.3235   YY=           -108.6053   ZZ=           -102.1078
   XY=             27.2992   XZ=             -3.8445   YZ=              1.3397

 Normal termination of Gaussian 16 at Thu May  6 11:11:24 2021.
