 Gaussian 16, Revision A.03,
 Gaussian 16:  EM64L-G16RevA.03 25-Dec-2016

 -------------
 #p 6-31g* mp2
 -------------

 ------------------------------------------------------
 Input file generated by CHIRIPA (05-May-2021 14:55:24)
 ------------------------------------------------------
 Symbolic Z-matrix:
 Charge =  0 Multiplicity = 1

                         Standard orientation:
 ---------------------------------------------------------------------
 Center     Atomic      Atomic             Coordinates (Angstroms)
 Number     Number       Type             X           Y           Z
 ---------------------------------------------------------------------
      1          6           0       -5.080642    2.197596    0.006506
      2          6           0       -3.684708    2.213182    0.093947
      3          6           0       -2.957689    1.019571    0.058093
      4          6           0       -3.662024   -0.176952   -0.066537
      5          6           0       -5.052341   -0.225248   -0.155846
      6          6           0       -5.758808    0.980576   -0.117893
      7          1           0       -5.637425    3.129565    0.035174
      8          1           0       -3.155384    3.156853    0.190620
      9          1           0       -1.876574    1.002724    0.123855
     10          1           0       -5.552064   -1.181563   -0.251544
     11          1           0       -6.842864    0.965441   -0.186003
     12          7           0       -2.903241   -1.447040   -0.105606
     13          8           0       -3.547345   -2.487994   -0.215971
     14          8           0       -1.678771   -1.377530   -0.025123
     15          6           0        5.519501   -0.078739   -0.284192
     16          6           0        6.520463    0.976742    0.186999
     17          6           0        7.860134    0.889319   -0.544734
     18          1           0        5.953752   -1.077382   -0.138984
     19          1           0        5.356448    0.037113   -1.364649
     20          1           0        6.680527    0.859817    1.266500
     21          1           0        6.083703    1.972981    0.040830
     22          1           0        7.720593    1.027911   -1.621731
     23          1           0        8.320808   -0.091577   -0.389096
     24          1           0        8.560624    1.652870   -0.192366
     25          6           0        4.175426   -0.004136    0.438042
     26          6           0        3.174464   -1.059618   -0.033148
     27          6           0        1.834794   -0.972195    0.698586
     28          1           0        4.338480   -0.119987    1.518499
     29          1           0        3.741176    0.994506    0.292835
     30          1           0        3.611225   -2.055856    0.113021
     31          1           0        3.014400   -0.942693   -1.112649
     32          1           0        1.374120    0.008701    0.542947
     33          1           0        1.974335   -1.110787    1.775582
     34          1           0        1.134304   -1.735746    0.346217
 ---------------------------------------------------------------------

 SCF Done:  E(RHF) =  -669.535808143     A.U. after   15 cycles
 E2 =    -0.2090773407D+01 EUMP2 =    -0.67162658155071D+03

 The electronic state is 1-A.
 Alpha  occ. eigenvalues --  -20.60845 -20.60838 -15.85888 -11.31234 -11.27802
 Alpha  occ. eigenvalues --  -11.27796 -11.27546 -11.26816 -11.26806 -11.21294
 Alpha  occ. eigenvalues --  -11.20962 -11.20847 -11.20818 -11.20777 -11.19896
 Alpha  occ. eigenvalues --   -1.59914  -1.39468  -1.19406  -1.08806  -1.07914
 Alpha  occ. eigenvalues --   -1.04806  -1.02932  -0.95651  -0.95351  -0.86371
 Alpha  occ. eigenvalues --   -0.86204  -0.82477  -0.79017  -0.77723  -0.77514
 Alpha  occ. eigenvalues --   -0.72117  -0.71231  -0.70515  -0.65062  -0.64810
 Alpha  occ. eigenvalues --   -0.64557  -0.62153  -0.60344  -0.58738  -0.56949
 Alpha  occ. eigenvalues --   -0.55311  -0.54671  -0.53137  -0.52900  -0.51970
 Alpha  occ. eigenvalues --   -0.51792  -0.49347  -0.48867  -0.48850  -0.47313
 Alpha  occ. eigenvalues --   -0.46083  -0.45254  -0.45187  -0.44876  -0.43143
 Alpha  occ. eigenvalues --   -0.37388  -0.36409
 Alpha virt. eigenvalues --    0.05008   0.11246   0.16502   0.21144   0.23304
 Alpha virt. eigenvalues --    0.24623   0.26390   0.27258   0.27665   0.28034
 Alpha virt. eigenvalues --    0.29147   0.30564   0.31594   0.32213   0.32776

 Mulliken charges:
               1
     1  C   -0.170621
     2  C   -0.218779
     3  C   -0.171347
     4  C    0.157559
     5  C   -0.170567
     6  C   -0.218672
     7  H    0.225751
     8  H    0.223661
     9  H    0.276953
    10  H    0.275701
    11  H    0.223575
    12  N    0.493743
    13  O   -0.460021
    14  O   -0.464932
    15  C   -0.297658
    16  C   -0.299001
    17  C   -0.475374
    18  H    0.149699
    19  H    0.148690
    20  H    0.151347
    21  H    0.150149
    22  H    0.154665
    23  H    0.155264
    24  H    0.158854
    25  C   -0.297032
    26  C   -0.300556
    27  C   -0.477434
    28  H    0.148163
    29  H    0.145597
    30  H    0.151012
    31  H    0.150681
    32  H    0.144929
    33  H    0.149438
    34  H    0.186562
 Sum of Mulliken charges =  -0.00000

 Dipole moment (field-independent basis, Debye):
    X=             -2.9073    Y=              4.3616    Z=              0.1169  Tot=              5.2431
 Quadrupole moment (field-independent basis, Debye-Ang):
   XX=            -73.4845   YY=            -94.9328   ZZ=            -95.4669
   XY=            -14.1983   XZ=              0.7443   YZ=             -0.5176

 Normal termination of Gaussian 16 at Thu May  6 14:19:32 2021.
