 Gaussian 16, Revision A.03,
 Gaussian 16:  EM64L-G16RevA.03 25-Dec-2016

 -------------
 #p 6-31g* mp2
 -------------

 ------------------------------------------------------
 Input file generated by CHIRIPA (05-May-2021 14:55:23)
 ------------------------------------------------------
 Symbolic Z-matrix:
 Charge =  0 Multiplicity = 1

                         Standard orientation:
 ---------------------------------------------------------------------
 Center     Atomic      Atomic             Coordinates (Angstroms)
 Number     Number       Type             X           Y           Z
 ---------------------------------------------------------------------
      1          6           0       -1.576634    1.612469    0.509637
      2          6           0       -2.888273    1.867441    0.923296
      3          6           0       -3.902892    0.936736    0.680636
      4          6           0       -3.568985   -0.243846    0.018802
      5          6           0       -2.271665   -0.526794   -0.405686
      6          6           0       -1.273051    0.418271   -0.152367
      7          1           0       -0.794670    2.341041    0.702281
      8          1           0       -3.126947    2.794017    1.437626
      9          1           0       -4.926699    1.108613    0.989980
     10          1           0       -2.064383   -1.459445   -0.916190
     11          1           0       -0.255294    0.217583   -0.474762
     12          7           0       -4.634645   -1.236743   -0.243734
     13          8           0       -4.314604   -2.269243   -0.828673
     14          8           0       -5.769771   -0.963674    0.140400
     15          6           0        4.245177    0.781429   -0.415666
     16          6           0        2.861362    1.384283   -0.171513
     17          6           0        2.679930    2.742169   -0.850499
     18          1           0        5.011618    1.479817   -0.052669
     19          1           0        4.405764    0.675821   -1.497541
     20          1           0        2.702883    1.487439    0.909625
     21          1           0        2.098120    0.684295   -0.534958
     22          1           0        2.811459    2.651923   -1.933623
     23          1           0        3.419657    3.459630   -0.480832
     24          1           0        1.683774    3.154908   -0.662937
     25          6           0        4.441804   -0.576106    0.256765
     26          6           0        5.825618   -1.178961    0.012612
     27          6           0        6.007050   -2.536846    0.691599
     28          1           0        4.281216   -0.470498    1.338640
     29          1           0        3.675362   -1.274494   -0.106231
     30          1           0        6.588861   -0.478972    0.376057
     31          1           0        5.984098   -1.282116   -1.068526
     32          1           0        5.267323   -3.254308    0.321931
     33          1           0        5.875523   -2.446600    1.774722
     34          1           0        7.003206   -2.949584    0.504036
 ---------------------------------------------------------------------

 SCF Done:  E(RHF) =  -669.535468669     A.U. after   15 cycles
 E2 =    -0.2091361478D+01 EUMP2 =    -0.67162683014726D+03

 The electronic state is 1-A.
 Alpha  occ. eigenvalues --  -20.60723 -20.60718 -15.85775 -11.31130 -11.27698
 Alpha  occ. eigenvalues --  -11.27688 -11.27430 -11.26715 -11.26671 -11.22836
 Alpha  occ. eigenvalues --  -11.22272 -11.22236 -11.22167 -11.22087 -11.21514
 Alpha  occ. eigenvalues --   -1.59798  -1.39352  -1.19299  -1.09279  -1.08695
 Alpha  occ. eigenvalues --   -1.04703  -1.04377  -0.96797  -0.95532  -0.87813
 Alpha  occ. eigenvalues --   -0.86101  -0.82368  -0.80482  -0.79052  -0.77415
 Alpha  occ. eigenvalues --   -0.71994  -0.71121  -0.70411  -0.65927  -0.64950
 Alpha  occ. eigenvalues --   -0.64717  -0.62115  -0.61712  -0.60208  -0.58408
 Alpha  occ. eigenvalues --   -0.56058  -0.55209  -0.53516  -0.53220  -0.53028
 Alpha  occ. eigenvalues --   -0.52809  -0.50723  -0.48828  -0.48750  -0.48693
 Alpha  occ. eigenvalues --   -0.47500  -0.46588  -0.46481  -0.44760  -0.44618
 Alpha  occ. eigenvalues --   -0.37278  -0.36304
 Alpha virt. eigenvalues --    0.05115   0.11345   0.16601   0.18721   0.22454
 Alpha virt. eigenvalues --    0.23780   0.24448   0.25810   0.26336   0.27971
 Alpha virt. eigenvalues --    0.28895   0.29534   0.30891   0.31712   0.32054

 Mulliken charges:
               1
     1  C   -0.175846
     2  C   -0.218669
     3  C   -0.171199
     4  C    0.158955
     5  C   -0.172696
     6  C   -0.224300
     7  H    0.228254
     8  H    0.223264
     9  H    0.275330
    10  H    0.275727
    11  H    0.232971
    12  N    0.487976
    13  O   -0.460585
    14  O   -0.460635
    15  C   -0.297902
    16  C   -0.306797
    17  C   -0.476598
    18  H    0.152935
    19  H    0.152150
    20  H    0.153013
    21  H    0.146441
    22  H    0.160262
    23  H    0.160604
    24  H    0.153159
    25  C   -0.298853
    26  C   -0.300392
    27  C   -0.476259
    28  H    0.150677
    29  H    0.148471
    30  H    0.153081
    31  H    0.153123
    32  H    0.156098
    33  H    0.155950
    34  H    0.162290
 Sum of Mulliken charges =  -0.00000

 Dipole moment (field-independent basis, Debye):
    X=              4.0360    Y=              3.5038    Z=              0.9201  Tot=              5.4233
 Quadrupole moment (field-independent basis, Debye-Ang):
   XX=           -118.5637   YY=            -95.7213   ZZ=            -93.8680
   XY=            -15.2781   XZ=             -4.8688   YZ=              2.1903

 Normal termination of Gaussian 16 at Wed May  5 16:00:57 2021.
