 Gaussian 16, Revision A.03,
 Gaussian 16:  EM64L-G16RevA.03 25-Dec-2016

 -------------
 #p 6-31g* mp2
 -------------

 ------------------------------------------------------
 Input file generated by CHIRIPA (05-May-2021 14:57:24)
 ------------------------------------------------------
 Symbolic Z-matrix:
 Charge =  0 Multiplicity = 1

                         Standard orientation:
 ---------------------------------------------------------------------
 Center     Atomic      Atomic             Coordinates (Angstroms)
 Number     Number       Type             X           Y           Z
 ---------------------------------------------------------------------
      1          6           0        2.400677    2.567319   -0.693173
      2          6           0        1.484624    1.551096   -0.984134
      3          6           0        1.730851    0.235874   -0.579025
      4          6           0        2.908509   -0.028791    0.118373
      5          6           0        3.840601    0.961909    0.423343
      6          6           0        3.573674    2.270007    0.008400
      7          1           0        2.201362    3.586248   -1.011691
      8          1           0        0.572830    1.779075   -1.528837
      9          1           0        1.038797   -0.570077   -0.790972
     10          1           0        4.740780    0.703896    0.967886
     11          1           0        4.286888    3.057204    0.235758
     12          7           0        3.180135   -1.417386    0.552449
     13          8           0        4.225035   -1.624594    1.165544
     14          8           0        2.342993   -2.272267    0.271363
     15          6           0       -3.891382    1.120639    1.841452
     16          6           0       -3.355291   -0.148095    2.085259
     17          6           0       -2.783404   -0.888819    1.046596
     18          6           0       -2.764393   -0.327747   -0.229384
     19          6           0       -3.290344    0.933701   -0.503998
     20          6           0       -3.857258    1.656543    0.549878
     21          1           0       -4.333706    1.689105    2.654220
     22          1           0       -3.380406   -0.566796    3.087309
     23          1           0       -2.361173   -1.873345    1.207369
     24          1           0       -3.250702    1.324634   -1.513463
     25          1           0       -4.272837    2.641615    0.357603
     26          7           0       -2.161594   -1.102453   -1.337023
     27          8           0       -2.157177   -0.585819   -2.452240
     28          8           0       -1.704951   -2.211632   -1.069003
 ---------------------------------------------------------------------

 SCF Done:  E(RHF) =  -868.338135576     A.U. after   16 cycles
 E2 =    -0.2600155044D+01 EUMP2 =    -0.87093829062002D+03

 The electronic state is 1-A.
 Alpha  occ. eigenvalues --  -20.61353 -20.61264 -20.60308 -20.60270 -15.86324
 Alpha  occ. eigenvalues --  -15.85344 -11.31608 -11.30769 -11.28215 -11.28088
 Alpha  occ. eigenvalues --  -11.27872 -11.27389 -11.27268 -11.27181 -11.27146
 Alpha  occ. eigenvalues --  -11.27093 -11.26430 -11.26343  -1.60392  -1.59375
 Alpha  occ. eigenvalues --   -1.39934  -1.38920  -1.19770  -1.18958  -1.09183
 Alpha  occ. eigenvalues --   -1.08354  -1.05146  -1.04362  -0.96025  -0.95171
 Alpha  occ. eigenvalues --   -0.86550  -0.85760  -0.82844  -0.81991  -0.77913
 Alpha  occ. eigenvalues --   -0.77019  -0.72516  -0.71770  -0.71541  -0.70859
 Alpha  occ. eigenvalues --   -0.70707  -0.70060  -0.65412  -0.65137  -0.64607
 Alpha  occ. eigenvalues --   -0.64364  -0.62485  -0.61684  -0.55643  -0.54890
 Alpha  occ. eigenvalues --   -0.53497  -0.53226  -0.52704  -0.52448  -0.49309
 Alpha  occ. eigenvalues --   -0.49281  -0.48339  -0.48301  -0.45328  -0.44314
 Alpha  occ. eigenvalues --   -0.37754  -0.36971  -0.36745  -0.35966
 Alpha virt. eigenvalues --    0.04568   0.05498   0.10862   0.11689   0.16077
 Alpha virt. eigenvalues --    0.16966   0.20992   0.21748   0.26799   0.27233
 Alpha virt. eigenvalues --    0.28218   0.28547   0.30722   0.31100   0.32168

 Mulliken charges:
               1
     1  C   -0.171442
     2  C   -0.219928
     3  C   -0.176385
     4  C    0.156869
     5  C   -0.171576
     6  C   -0.219137
     7  H    0.222930
     8  H    0.225329
     9  H    0.285771
    10  H    0.274133
    11  H    0.221260
    12  N    0.486682
    13  O   -0.464069
    14  O   -0.454281
    15  C   -0.170194
    16  C   -0.218257
    17  C   -0.170263
    18  C    0.154635
    19  C   -0.174911
    20  C   -0.218503
    21  H    0.227093
    22  H    0.226906
    23  H    0.282329
    24  H    0.272890
    25  H    0.223276
    26  N    0.483136
    27  O   -0.464580
    28  O   -0.449714
 Sum of Mulliken charges =  -0.00000

 Dipole moment (field-independent basis, Debye):
    X=             -3.2996    Y=              7.3881    Z=              2.4740  Tot=              8.4612
 Quadrupole moment (field-independent basis, Debye-Ang):
   XX=            -95.9224   YY=           -104.3893   ZZ=           -105.1202
   XY=              8.0280   XZ=            -12.8566   YZ=             -3.2448

 Normal termination of Gaussian 16 at Fri May  7 04:59:02 2021.
