 Gaussian 16, Revision A.03,
 Gaussian 16:  EM64L-G16RevA.03 25-Dec-2016

 -------------
 #p 6-31g* mp2
 -------------

 ------------------------------------------------------
 Input file generated by CHIRIPA (05-May-2021 14:53:14)
 ------------------------------------------------------
 Symbolic Z-matrix:
 Charge =  0 Multiplicity = 1

                         Standard orientation:
 ---------------------------------------------------------------------
 Center     Atomic      Atomic             Coordinates (Angstroms)
 Number     Number       Type             X           Y           Z
 ---------------------------------------------------------------------
      1          6           0        3.627295    0.819451    0.717093
      2          6           0        2.183850    1.322472    0.679378
      3          6           0        1.947863    2.512050    1.610510
      4          1           0        3.883639    0.536984    1.747357
      5          1           0        4.302080    1.641647    0.441314
      6          1           0        1.511894    0.499197    0.953802
      7          1           0        1.930852    1.603594   -0.350951
      8          1           0        2.594536    3.351324    1.334765
      9          1           0        2.173197    2.240652    2.646931
     10          1           0        0.909557    2.855499    1.567818
     11          6           0        3.878877   -0.369527   -0.208524
     12          6           0        5.322322   -0.872547   -0.170809
     13          6           0        5.558309   -2.062125   -1.101942
     14          1           0        3.204092   -1.191723    0.067254
     15          1           0        3.622534   -0.087060   -1.238789
     16          1           0        5.575321   -1.153669    0.859520
     17          1           0        5.994279   -0.049272   -0.445234
     18          1           0        5.332975   -1.790727   -2.138363
     19          1           0        4.911637   -2.901399   -0.826196
     20          1           0        6.596616   -2.405574   -1.059250
     21          6           0       -2.194152    1.989487   -1.263129
     22          6           0       -1.262591    0.973818   -1.024109
     23          6           0       -1.660216   -0.230021   -0.434860
     24          6           0       -3.003441   -0.385079   -0.095751
     25          6           0       -3.955328    0.608098   -0.321134
     26          6           0       -3.535184    1.803714   -0.911499
     27          1           0       -1.876520    2.921464   -1.721305
     28          1           0       -0.220470    1.115315   -1.296150
     29          1           0       -0.959989   -1.032870   -0.238560
     30          1           0       -4.987226    0.437779   -0.039007
     31          1           0       -4.260842    2.590761   -1.095945
     32          7           0       -3.436309   -1.655176    0.528651
     33          8           0       -4.625551   -1.767073    0.818168
     34          8           0       -2.578153   -2.514732    0.716718
 ---------------------------------------------------------------------

 SCF Done:  E(RHF) =  -669.535457056     A.U. after   15 cycles
 E2 =    -0.2091781348D+01 EUMP2 =    -0.67162723840371D+03

 The electronic state is 1-A.
 Alpha  occ. eigenvalues --  -20.60740 -20.60735 -15.85792 -11.31146 -11.27711
 Alpha  occ. eigenvalues --  -11.27694 -11.27441 -11.26732 -11.26657 -11.22468
 Alpha  occ. eigenvalues --  -11.21996 -11.21974 -11.21896 -11.21717 -11.21352
 Alpha  occ. eigenvalues --   -1.59815  -1.39369  -1.19312  -1.09014  -1.08709
 Alpha  occ. eigenvalues --   -1.04712  -1.04079  -0.96494  -0.95548  -0.87514
 Alpha  occ. eigenvalues --   -0.86110  -0.82386  -0.80195  -0.78838  -0.77411
 Alpha  occ. eigenvalues --   -0.72011  -0.71138  -0.70423  -0.65653  -0.64961
 Alpha  occ. eigenvalues --   -0.64713  -0.62088  -0.61467  -0.59868  -0.58115
 Alpha  occ. eigenvalues --   -0.55765  -0.55215  -0.53213  -0.53036  -0.52924
 Alpha  occ. eigenvalues --   -0.52790  -0.50433  -0.48783  -0.48767  -0.48448
 Alpha  occ. eigenvalues --   -0.47216  -0.46350  -0.46266  -0.44777  -0.44330
 Alpha  occ. eigenvalues --   -0.37295  -0.36294
 Alpha virt. eigenvalues --    0.05084   0.11288   0.16533   0.20237   0.22656
 Alpha virt. eigenvalues --    0.23930   0.25004   0.25487   0.27420   0.28278
 Alpha virt. eigenvalues --    0.29320   0.29866   0.31231   0.31339   0.32043

 Mulliken charges:
               1
     1  C   -0.297809
     2  C   -0.304041
     3  C   -0.476514
     4  H    0.153886
     5  H    0.150792
     6  H    0.153557
     7  H    0.142369
     8  H    0.155844
     9  H    0.160212
    10  H    0.160806
    11  C   -0.299446
    12  C   -0.299990
    13  C   -0.476378
    14  H    0.150707
    15  H    0.146167
    16  H    0.154162
    17  H    0.152264
    18  H    0.154593
    19  H    0.157291
    20  H    0.161929
    21  C   -0.173184
    22  C   -0.219520
    23  C   -0.174202
    24  C    0.158695
    25  C   -0.171307
    26  C   -0.218367
    27  H    0.225417
    28  H    0.231027
    29  H    0.275630
    30  H    0.275376
    31  H    0.223173
    32  N    0.488161
    33  O   -0.460557
    34  O   -0.460743
 Sum of Mulliken charges =  -0.00000

 Dipole moment (field-independent basis, Debye):
    X=              1.6822    Y=              4.4655    Z=             -2.1083  Tot=              5.2169
 Quadrupole moment (field-independent basis, Debye-Ang):
   XX=            -99.0819   YY=            -98.4946   ZZ=            -94.8316
   XY=            -15.7132   XZ=              6.5498   YZ=             -0.4532

 Normal termination of Gaussian 16 at Thu May  6 17:07:15 2021.
