 Gaussian 16, Revision A.03,
 Gaussian 16:  EM64L-G16RevA.03 25-Dec-2016

 -------------
 #p 6-31g* mp2
 -------------

 ------------------------------------------------------
 Input file generated by CHIRIPA (05-May-2021 14:53:16)
 ------------------------------------------------------
 Symbolic Z-matrix:
 Charge =  0 Multiplicity = 1

                         Standard orientation:
 ---------------------------------------------------------------------
 Center     Atomic      Atomic             Coordinates (Angstroms)
 Number     Number       Type             X           Y           Z
 ---------------------------------------------------------------------
      1          6           0        3.200656   -0.620014   -0.060307
      2          6           0        2.459625   -1.643629   -0.921161
      3          6           0        2.639640   -3.077351   -0.421329
      4          1           0        4.269876   -0.871718   -0.041393
      5          1           0        2.843372   -0.695589    0.976048
      6          1           0        2.817210   -1.565198   -1.955858
      7          1           0        1.392073   -1.389349   -0.938184
      8          1           0        2.265403   -3.178214    0.602572
      9          1           0        3.698638   -3.355062   -0.420884
     10          1           0        2.101597   -3.792636   -1.051200
     11          6           0        3.030288    0.817864   -0.547346
     12          6           0        3.771319    1.841479    0.313508
     13          6           0        3.591304    3.275200   -0.186324
     14          1           0        3.387572    0.893439   -1.583702
     15          1           0        1.961068    1.069568   -0.566260
     16          1           0        4.838871    1.587198    0.330531
     17          1           0        3.413734    1.763048    1.348205
     18          1           0        2.532306    3.552912   -0.186769
     19          1           0        3.965541    3.376064   -1.210226
     20          1           0        4.129347    3.990486    0.443547
     21          6           0       -4.180919    1.215984   -1.043854
     22          6           0       -3.649477    1.740131    0.139092
     23          6           0       -2.681051    1.032299    0.857195
     24          6           0       -2.265073   -0.202314    0.361228
     25          6           0       -2.775514   -0.751100   -0.814175
     26          6           0       -3.743014   -0.025769   -1.515880
     27          1           0       -4.932855    1.772642   -1.595325
     28          1           0       -3.987681    2.704255    0.508048
     29          1           0       -2.252819    1.414636    1.775812
     30          1           0       -2.418575   -1.714697   -1.156946
     31          1           0       -4.153977   -0.435285   -2.434275
     32          7           0       -1.240335   -0.960926    1.112772
     33          8           0       -0.890575   -2.046501    0.654697
     34          8           0       -0.806307   -0.455588    2.145675
 ---------------------------------------------------------------------

 SCF Done:  E(RHF) =  -669.536420589     A.U. after   15 cycles
 E2 =    -0.2091852205D+01 EUMP2 =    -0.67162827279334D+03

 The electronic state is 1-A.
 Alpha  occ. eigenvalues --  -20.61056 -20.61038 -15.86057 -11.31343 -11.27901
 Alpha  occ. eigenvalues --  -11.27895 -11.27629 -11.26898 -11.26888 -11.21000
 Alpha  occ. eigenvalues --  -11.20684 -11.20672 -11.20418 -11.20322 -11.19728
 Alpha  occ. eigenvalues --   -1.60099  -1.39656  -1.19507  -1.08919  -1.07560
 Alpha  occ. eigenvalues --   -1.04896  -1.02630  -0.95767  -0.95097  -0.86298
 Alpha  occ. eigenvalues --   -0.86119  -0.82600  -0.78748  -0.77663  -0.77342
 Alpha  occ. eigenvalues --   -0.72282  -0.71418  -0.70614  -0.65163  -0.64899
 Alpha  occ. eigenvalues --   -0.64172  -0.62243  -0.60001  -0.58519  -0.56707
 Alpha  occ. eigenvalues --   -0.55402  -0.54375  -0.53228  -0.52986  -0.51812
 Alpha  occ. eigenvalues --   -0.51532  -0.49111  -0.49038  -0.48961  -0.47071
 Alpha  occ. eigenvalues --   -0.45844  -0.45229  -0.44846  -0.44533  -0.42902
 Alpha  occ. eigenvalues --   -0.37482  -0.36494
 Alpha virt. eigenvalues --    0.04838   0.11152   0.16310   0.21273   0.23613
 Alpha virt. eigenvalues --    0.25200   0.27135   0.27332   0.28180   0.28391
 Alpha virt. eigenvalues --    0.28826   0.30838   0.31959   0.32405   0.32792

 Mulliken charges:
               1
     1  C   -0.301480
     2  C   -0.299071
     3  C   -0.473729
     4  H    0.145536
     5  H    0.160774
     6  H    0.142783
     7  H    0.156315
     8  H    0.169612
     9  H    0.146816
    10  H    0.155736
    11  C   -0.295755
    12  C   -0.299818
    13  C   -0.474819
    14  H    0.145796
    15  H    0.145019
    16  H    0.150931
    17  H    0.155531
    18  H    0.152207
    19  H    0.153358
    20  H    0.158573
    21  C   -0.170386
    22  C   -0.218524
    23  C   -0.170908
    24  C    0.157841
    25  C   -0.170896
    26  C   -0.218443
    27  H    0.226279
    28  H    0.224062
    29  H    0.275806
    30  H    0.276237
    31  H    0.224161
    32  N    0.487752
    33  O   -0.457965
    34  O   -0.459331
 Sum of Mulliken charges =  -0.00000

 Dipole moment (field-independent basis, Debye):
    X=             -3.8759    Y=              2.5890    Z=             -2.4683  Tot=              5.2743
 Quadrupole moment (field-independent basis, Debye-Ang):
   XX=            -78.9876   YY=            -94.9713   ZZ=            -94.5534
   XY=             -5.4724   XZ=              5.1152   YZ=              4.4931

 Normal termination of Gaussian 16 at Thu May  6 18:55:23 2021.
