 Gaussian 16, Revision A.03,
 Gaussian 16:  EM64L-G16RevA.03 25-Dec-2016

 -------------
 #p 6-31g* mp2
 -------------

 ------------------------------------------------------
 Input file generated by CHIRIPA (05-May-2021 14:55:22)
 ------------------------------------------------------
 Symbolic Z-matrix:
 Charge =  0 Multiplicity = 1

                         Standard orientation:
 ---------------------------------------------------------------------
 Center     Atomic      Atomic             Coordinates (Angstroms)
 Number     Number       Type             X           Y           Z
 ---------------------------------------------------------------------
      1          6           0        3.981774    2.110927    0.317867
      2          6           0        2.611142    2.071078    0.594091
      3          6           0        1.886055    0.888361    0.420951
      4          6           0        2.566502   -0.240860   -0.031975
      5          6           0        3.931313   -0.232860   -0.315732
      6          6           0        4.636331    0.960859   -0.135364
      7          1           0        4.537245    3.033964    0.455174
      8          1           0        2.100187    2.962700    0.946201
      9          1           0        0.824265    0.829538    0.627251
     10          1           0        4.413082   -1.137870   -0.665408
     11          1           0        5.700710    0.988874   -0.350673
     12          7           0        1.809508   -1.498773   -0.219096
     13          8           0        2.432264   -2.479943   -0.619244
     14          8           0        0.607754   -1.479737    0.037928
     15          6           0       -3.645406    0.726652    0.276633
     16          6           0       -3.728309    1.811953   -0.797254
     17          6           0       -4.130707    3.174123   -0.231249
     18          1           0       -4.618136    0.643145    0.780386
     19          1           0       -2.921468    1.034316    1.043869
     20          1           0       -4.450852    1.501702   -1.562951
     21          1           0       -2.755323    1.892752   -1.298639
     22          1           0       -3.406145    3.509280    0.517938
     23          1           0       -5.111307    3.116008    0.252123
     24          1           0       -4.183885    3.935136   -1.016036
     25          6           0       -3.244230   -0.640788   -0.273728
     26          6           0       -3.161327   -1.726089    0.800159
     27          6           0       -2.758928   -3.088258    0.234154
     28          1           0       -3.968168   -0.948452   -1.040964
     29          1           0       -2.271500   -0.557281   -0.777481
     30          1           0       -4.134313   -1.806888    1.301544
     31          1           0       -2.438784   -1.415838    1.565856
     32          1           0       -1.778329   -3.030143   -0.249218
     33          1           0       -3.483491   -3.423415   -0.515033
     34          1           0       -2.705750   -3.849272    1.018940
 ---------------------------------------------------------------------

 SCF Done:  E(RHF) =  -669.536452812     A.U. after   15 cycles
 E2 =    -0.2091800146D+01 EUMP2 =    -0.67162825295794D+03

 The electronic state is 1-A.
 Alpha  occ. eigenvalues --  -20.61075 -20.61070 -15.86097 -11.31370 -11.27929
 Alpha  occ. eigenvalues --  -11.27922 -11.27653 -11.26922 -11.26912 -11.21325
 Alpha  occ. eigenvalues --  -11.20970 -11.20889 -11.20447 -11.20386 -11.19462
 Alpha  occ. eigenvalues --   -1.60127  -1.39686  -1.19532  -1.08946  -1.07720
 Alpha  occ. eigenvalues --   -1.04921  -1.02735  -0.95797  -0.95187  -0.86324
 Alpha  occ. eigenvalues --   -0.86206  -0.82633  -0.78898  -0.77696  -0.77429
 Alpha  occ. eigenvalues --   -0.72333  -0.71433  -0.70641  -0.65198  -0.64924
 Alpha  occ. eigenvalues --   -0.64342  -0.62269  -0.60100  -0.58665  -0.56783
 Alpha  occ. eigenvalues --   -0.55427  -0.54468  -0.53255  -0.53011  -0.51907
 Alpha  occ. eigenvalues --   -0.51611  -0.49362  -0.49068  -0.48828  -0.47170
 Alpha  occ. eigenvalues --   -0.45942  -0.45203  -0.44987  -0.44706  -0.43007
 Alpha  occ. eigenvalues --   -0.37507  -0.36520
 Alpha virt. eigenvalues --    0.04820   0.11134   0.16317   0.20666   0.22926
 Alpha virt. eigenvalues --    0.25047   0.26342   0.27453   0.28149   0.28651
 Alpha virt. eigenvalues --    0.29060   0.31142   0.32088   0.32290   0.32822

 Mulliken charges:
               1
     1  C   -0.170396
     2  C   -0.218545
     3  C   -0.171169
     4  C    0.157577
     5  C   -0.170365
     6  C   -0.218599
     7  H    0.226368
     8  H    0.224312
     9  H    0.275750
    10  H    0.276044
    11  H    0.224115
    12  N    0.492716
    13  O   -0.457783
    14  O   -0.464623
    15  C   -0.296875
    16  C   -0.298840
    17  C   -0.474500
    18  H    0.148478
    19  H    0.142720
    20  H    0.153042
    21  H    0.148636
    22  H    0.150155
    23  H    0.155983
    24  H    0.158538
    25  C   -0.302402
    26  C   -0.294628
    27  C   -0.484798
    28  H    0.146046
    29  H    0.161093
    30  H    0.144105
    31  H    0.152978
    32  H    0.183989
    33  H    0.146144
    34  H    0.154735
 Sum of Mulliken charges =  -0.00000

 Dipole moment (field-independent basis, Debye):
    X=              3.0329    Y=              4.3289    Z=              0.5879  Tot=              5.3182
 Quadrupole moment (field-independent basis, Debye-Ang):
   XX=            -77.6660   YY=            -97.6733   ZZ=            -95.3584
   XY=              9.1622   XZ=              0.5806   YZ=              0.4575

 Normal termination of Gaussian 16 at Thu May  6 17:35:39 2021.
