 Gaussian 16, Revision A.03,
 Gaussian 16:  EM64L-G16RevA.03 25-Dec-2016

 -------------
 #p 6-31g* mp2
 -------------

 ------------------------------------------------------
 Input file generated by CHIRIPA (05-May-2021 14:51:13)
 ------------------------------------------------------
 Symbolic Z-matrix:
 Charge =  0 Multiplicity = 1

                         Standard orientation:
 ---------------------------------------------------------------------
 Center     Atomic      Atomic             Coordinates (Angstroms)
 Number     Number       Type             X           Y           Z
 ---------------------------------------------------------------------
      1          6           0       -4.032419   -0.220195   -0.011622
      2          6           0       -3.488854   -1.612886   -0.332455
      3          6           0       -4.540366   -2.710471   -0.166849
      4          1           0       -4.414931   -0.211122    1.018207
      5          1           0       -4.889994   -0.009340   -0.665456
      6          1           0       -2.631697   -1.820496    0.320841
      7          1           0       -3.107416   -1.618592   -1.361575
      8          1           0       -5.392649   -2.530687   -0.830093
      9          1           0       -4.914226   -2.733738    0.861882
     10          1           0       -4.130431   -3.697825   -0.401253
     11          6           0       -2.992995    0.887695   -0.172573
     12          6           0       -3.536560    2.280386    0.148261
     13          6           0       -2.485048    3.377970   -0.017345
     14          1           0       -2.135420    0.676839    0.481262
     15          1           0       -2.610482    0.878621   -1.202401
     16          1           0       -3.917997    2.286091    1.177381
     17          1           0       -4.393717    2.487996   -0.505036
     18          1           0       -2.111188    3.401237   -1.046077
     19          1           0       -1.632765    3.198186    0.645899
     20          1           0       -2.894983    4.365324    0.217059
     21          6           0        4.243010   -0.537836    0.000242
     22          6           0        5.190496    0.652393   -0.153425
     23          6           0        6.647966    0.227988   -0.336335
     24          1           0        4.560954   -1.142785    0.860412
     25          1           0        4.329636   -1.183190   -0.884862
     26          1           0        5.101093    1.296036    0.731079
     27          1           0        4.870145    1.254685   -1.013213
     28          1           0        6.758365   -0.395976   -1.229130
     29          1           0        6.990626   -0.354388    0.525073
     30          1           0        7.307887    1.094427   -0.444251
     31          6           0        2.782404   -0.129663    0.183952
     32          6           0        1.834918   -1.319892    0.337619
     33          6           0        0.377448   -0.895487    0.520529
     34          1           0        2.695778    0.515691    1.069056
     35          1           0        2.464459    0.475286   -0.676218
     36          1           0        2.155269   -1.922184    1.197407
     37          1           0        1.924321   -1.963536   -0.546884
     38          1           0        0.034788   -0.313111   -0.340879
     39          1           0        0.267048   -0.271524    1.413324
     40          1           0       -0.282474   -1.761927    0.628445
 ---------------------------------------------------------------------

 SCF Done:  E(RHF) =  -470.732176892     A.U. after   11 cycles
 E2 =    -0.1583762304D+01 EUMP2 =    -0.47231593919625D+03

 The electronic state is 1-A.
 Alpha  occ. eigenvalues --  -11.21599 -11.21585 -11.21525 -11.21491 -11.21402
 Alpha  occ. eigenvalues --  -11.21343 -11.21302 -11.21213 -11.21069 -11.21039
 Alpha  occ. eigenvalues --  -11.21025 -11.21015  -1.08435  -1.08339  -1.03531
 Alpha  occ. eigenvalues --   -1.03458  -0.96002  -0.95897  -0.87020  -0.86927
 Alpha  occ. eigenvalues --   -0.79648  -0.79524  -0.78299  -0.78062  -0.65057
 Alpha  occ. eigenvalues --   -0.64984  -0.60927  -0.60887  -0.59450  -0.59191
 Alpha  occ. eigenvalues --   -0.57701  -0.57430  -0.55269  -0.55205  -0.52803
 Alpha  occ. eigenvalues --   -0.52587  -0.52513  -0.52205  -0.49928  -0.49853
 Alpha  occ. eigenvalues --   -0.48079  -0.47694  -0.46653  -0.46532  -0.45947
 Alpha  occ. eigenvalues --   -0.45734  -0.45626  -0.45411  -0.43741  -0.43637
 Alpha virt. eigenvalues --    0.22150   0.23002   0.24114   0.24271   0.25608
 Alpha virt. eigenvalues --    0.26211   0.26946   0.27500   0.27938   0.29477
 Alpha virt. eigenvalues --    0.29869   0.31053   0.31683   0.31925   0.32214

 Mulliken charges:
               1
     1  C   -0.297566
     2  C   -0.305054
     3  C   -0.475273
     4  H    0.148892
     5  H    0.148834
     6  H    0.158562
     7  H    0.151031
     8  H    0.154923
     9  H    0.154807
    10  H    0.159604
    11  C   -0.305470
    12  C   -0.299118
    13  C   -0.475685
    14  H    0.161395
    15  H    0.147688
    16  H    0.151446
    17  H    0.151373
    18  H    0.154680
    19  H    0.155154
    20  H    0.160002
    21  C   -0.298213
    22  C   -0.299600
    23  C   -0.475697
    24  H    0.149592
    25  H    0.149515
    26  H    0.151902
    27  H    0.151999
    28  H    0.155170
    29  H    0.155146
    30  H    0.160265
    31  C   -0.298604
    32  C   -0.300472
    33  C   -0.480454
    34  H    0.149236
    35  H    0.149843
    36  H    0.151454
    37  H    0.151994
    38  H    0.159967
    39  H    0.153024
    40  H    0.163707
 Sum of Mulliken charges =  -0.00000

 Dipole moment (field-independent basis, Debye):
    X=              0.0347    Y=             -0.0077    Z=              0.0084  Tot=              0.0365
 Quadrupole moment (field-independent basis, Debye-Ang):
   XX=            -86.6650   YY=            -85.7479   ZZ=            -82.8122
   XY=             -0.4363   XZ=              0.5365   YZ=             -0.0424

 Normal termination of Gaussian 16 at Thu May  6 00:46:49 2021.
