 Gaussian 16, Revision A.03,
 Gaussian 16:  EM64L-G16RevA.03 25-Dec-2016

 -------------
 #p 6-31g* mp2
 -------------

 ------------------------------------------------------
 Input file generated by CHIRIPA (05-May-2021 14:51:11)
 ------------------------------------------------------
 Symbolic Z-matrix:
 Charge =  0 Multiplicity = 1

                         Standard orientation:
 ---------------------------------------------------------------------
 Center     Atomic      Atomic             Coordinates (Angstroms)
 Number     Number       Type             X           Y           Z
 ---------------------------------------------------------------------
      1          6           0        2.150209    0.890049    0.223311
      2          6           0        2.894105    1.618793   -0.896303
      3          6           0        2.621575    3.123266   -0.905464
      4          1           0        1.071582    1.068084    0.114627
      5          1           0        2.442512    1.322466    1.190249
      6          1           0        2.601531    1.184207   -1.860746
      7          1           0        3.971072    1.438845   -0.785052
      8          1           0        2.930389    3.576489    0.042071
      9          1           0        1.553067    3.320404   -1.039734
     10          1           0        3.163223    3.624468   -1.713718
     11          6           0        2.412553   -0.614747    0.245517
     12          6           0        1.668657   -1.343491    1.365131
     13          6           0        1.941187   -2.847964    1.374292
     14          1           0        2.120251   -1.047164   -0.721421
     15          1           0        3.491180   -0.792782    0.354201
     16          1           0        0.591690   -1.163543    1.253881
     17          1           0        1.961231   -0.908905    2.329574
     18          1           0        3.009695   -3.045102    1.508563
     19          1           0        1.632373   -3.301187    0.426757
     20          1           0        1.399540   -3.349166    2.182546
     21          6           0       -2.725585    0.252388    0.249305
     22          6           0       -2.484656    1.761846    0.210920
     23          6           0       -3.380765    2.528449    1.184110
     24          1           0       -3.779928    0.049747    0.016403
     25          1           0       -2.555428   -0.113168    1.271465
     26          1           0       -2.653872    2.124223   -0.811170
     27          1           0       -1.430720    1.960906    0.443752
     28          1           0       -3.206727    2.195001    2.212275
     29          1           0       -4.436829    2.359246    0.950224
     30          1           0       -3.191926    3.605610    1.140235
     31          6           0       -1.837177   -0.527690   -0.718133
     32          6           0       -2.078107   -2.037148   -0.679747
     33          6           0       -1.181997   -2.803751   -1.652939
     34          1           0       -2.007335   -0.162134   -1.740292
     35          1           0       -0.782835   -0.325049   -0.485231
     36          1           0       -3.132042   -2.236208   -0.912580
     37          1           0       -1.908890   -2.399525    0.342341
     38          1           0       -0.125934   -2.634548   -1.419052
     39          1           0       -1.356036   -2.470302   -2.681103
     40          1           0       -1.370837   -3.880911   -1.609063
 ---------------------------------------------------------------------

 SCF Done:  E(RHF) =  -470.732193805     A.U. after   11 cycles
 E2 =    -0.1586143193D+01 EUMP2 =    -0.47231833699824D+03

 The electronic state is 1-A.
 Alpha  occ. eigenvalues --  -11.21651 -11.21649 -11.21648 -11.21621 -11.21460
 Alpha  occ. eigenvalues --  -11.21443 -11.21393 -11.21376 -11.21129 -11.21105
 Alpha  occ. eigenvalues --  -11.21095 -11.21078  -1.08570  -1.08410  -1.03628
 Alpha  occ. eigenvalues --   -1.03521  -0.96063  -0.95986  -0.87074  -0.87007
 Alpha  occ. eigenvalues --   -0.79647  -0.79635  -0.78452  -0.78179  -0.65693
 Alpha  occ. eigenvalues --   -0.64632  -0.61315  -0.60616  -0.59395  -0.59383
 Alpha  occ. eigenvalues --   -0.57660  -0.57614  -0.55544  -0.55114  -0.52723
 Alpha  occ. eigenvalues --   -0.52711  -0.52452  -0.52436  -0.50138  -0.49833
 Alpha  occ. eigenvalues --   -0.48076  -0.47847  -0.46692  -0.46667  -0.46505
 Alpha  occ. eigenvalues --   -0.45793  -0.45747  -0.45010  -0.43834  -0.43815
 Alpha virt. eigenvalues --    0.19101   0.21702   0.23069   0.25299   0.25672
 Alpha virt. eigenvalues --    0.25735   0.26726   0.27382   0.28804   0.30192
 Alpha virt. eigenvalues --    0.31200   0.31392   0.31766   0.31865   0.32216

 Mulliken charges:
               1
     1  C   -0.308397
     2  C   -0.299090
     3  C   -0.476399
     4  H    0.158062
     5  H    0.149795
     6  H    0.152414
     7  H    0.152077
     8  H    0.155053
     9  H    0.155951
    10  H    0.160415
    11  C   -0.301294
    12  C   -0.305755
    13  C   -0.478304
    14  H    0.151124
    15  H    0.150903
    16  H    0.156818
    17  H    0.152500
    18  H    0.155499
    19  H    0.158221
    20  H    0.160238
    21  C   -0.298456
    22  C   -0.304849
    23  C   -0.475537
    24  H    0.150222
    25  H    0.149673
    26  H    0.151861
    27  H    0.156054
    28  H    0.155508
    29  H    0.155323
    30  H    0.160513
    31  C   -0.309500
    32  C   -0.300126
    33  C   -0.480952
    34  H    0.149833
    35  H    0.159648
    36  H    0.152597
    37  H    0.152874
    38  H    0.159325
    39  H    0.155320
    40  H    0.160837
 Sum of Mulliken charges =  -0.00000

 Dipole moment (field-independent basis, Debye):
    X=             -0.0006    Y=              0.0025    Z=             -0.0002  Tot=              0.0026
 Quadrupole moment (field-independent basis, Debye-Ang):
   XX=            -83.9352   YY=            -86.4064   ZZ=            -84.3126
   XY=              0.5513   XZ=              1.3493   YZ=             -0.2765

 Normal termination of Gaussian 16 at Wed May  5 21:28:44 2021.
