 Gaussian 16, Revision A.03,
 Gaussian 16:  EM64L-G16RevA.03 25-Dec-2016

 -------------
 #p 6-31g* mp2
 -------------

 ------------------------------------------------------
 Input file generated by CHIRIPA (05-May-2021 14:57:21)
 ------------------------------------------------------
 Symbolic Z-matrix:
 Charge =  0 Multiplicity = 1

                         Standard orientation:
 ---------------------------------------------------------------------
 Center     Atomic      Atomic             Coordinates (Angstroms)
 Number     Number       Type             X           Y           Z
 ---------------------------------------------------------------------
      1          6           0        1.599334    2.204573    0.815728
      2          6           0        1.648364    1.186351    1.773506
      3          6           0        2.342445    0.000733    1.514448
      4          6           0        2.978982   -0.133698    0.281549
      5          6           0        2.948381    0.862555   -0.693044
      6          6           0        2.248355    2.039716   -0.412326
      7          1           0        1.057846    3.122305    1.025384
      8          1           0        1.145259    1.311623    2.728094
      9          1           0        2.396505   -0.803623    2.237985
     10          1           0        3.459742    0.708617   -1.635504
     11          1           0        2.211965    2.828796   -1.158030
     12          7           0        3.716921   -1.384382   -0.004170
     13          8           0        4.269402   -1.478282   -1.098055
     14          8           0        3.728865   -2.247086    0.871179
     15          6           0       -4.798402   -1.141389    0.877846
     16          6           0       -4.504713    0.210520    1.084267
     17          6           0       -3.431637    0.813273    0.421133
     18          6           0       -2.669708    0.030914   -0.445277
     19          6           0       -2.937121   -1.318319   -0.671884
     20          6           0       -4.015050   -1.900156    0.001974
     21          1           0       -5.633878   -1.601497    1.397149
     22          1           0       -5.111359    0.802229    1.763903
     23          1           0       -3.182041    1.857852    0.562457
     24          1           0       -2.314314   -1.882454   -1.355464
     25          1           0       -4.240802   -2.950278   -0.160273
     26          7           0       -1.531121    0.657949   -1.152983
     27          8           0       -0.875118   -0.053015   -1.911157
     28          8           0       -1.316260    1.848511   -0.936110
 ---------------------------------------------------------------------

 SCF Done:  E(RHF) =  -868.338953071     A.U. after   16 cycles
 E2 =    -0.2600506449D+01 EUMP2 =    -0.87093945952081D+03

 The electronic state is 1-A.
 Alpha  occ. eigenvalues --  -20.61311 -20.61272 -20.59913 -20.59887 -15.86314
 Alpha  occ. eigenvalues --  -15.84950 -11.31582 -11.30070 -11.28177 -11.28090
 Alpha  occ. eigenvalues --  -11.27847 -11.27151 -11.27087 -11.26736 -11.26571
 Alpha  occ. eigenvalues --  -11.26317 -11.25693 -11.25469  -1.60341  -1.58982
 Alpha  occ. eigenvalues --   -1.39907  -1.38543  -1.19740  -1.18235  -1.09153
 Alpha  occ. eigenvalues --   -1.07660  -1.05128  -1.03617  -0.96010  -0.94539
 Alpha  occ. eigenvalues --   -0.86530  -0.85024  -0.82852  -0.81393  -0.77910
 Alpha  occ. eigenvalues --   -0.76479  -0.72570  -0.71653  -0.71181  -0.70846
 Alpha  occ. eigenvalues --   -0.70297  -0.69338  -0.65397  -0.65128  -0.63896
 Alpha  occ. eigenvalues --   -0.63637  -0.62478  -0.60995  -0.55629  -0.54107
 Alpha  occ. eigenvalues --   -0.53468  -0.53217  -0.51956  -0.51727  -0.49323
 Alpha  occ. eigenvalues --   -0.49271  -0.47944  -0.47914  -0.45353  -0.44006
 Alpha  occ. eigenvalues --   -0.37719  -0.36730  -0.36089  -0.35182
 Alpha virt. eigenvalues --    0.04589   0.06103   0.10925   0.12474   0.16111
 Alpha virt. eigenvalues --    0.17675   0.21080   0.22487   0.26993   0.27943
 Alpha virt. eigenvalues --    0.28368   0.29369   0.30671   0.31951   0.32278

 Mulliken charges:
               1
     1  C   -0.158540
     2  C   -0.225915
     3  C   -0.173864
     4  C    0.157457
     5  C   -0.165626
     6  C   -0.205908
     7  H    0.224644
     8  H    0.215767
     9  H    0.269805
    10  H    0.274196
    11  H    0.225541
    12  N    0.488441
    13  O   -0.461312
    14  O   -0.466359
    15  C   -0.170519
    16  C   -0.218683
    17  C   -0.172147
    18  C    0.159150
    19  C   -0.170251
    20  C   -0.218390
    21  H    0.227013
    22  H    0.223289
    23  H    0.271503
    24  H    0.278624
    25  H    0.226094
    26  N    0.490300
    27  O   -0.455936
    28  O   -0.468375
 Sum of Mulliken charges =  -0.00000

 Dipole moment (field-independent basis, Debye):
    X=             -6.8384    Y=              2.2771    Z=              3.2111  Tot=              7.8905
 Quadrupole moment (field-independent basis, Debye-Ang):
   XX=           -100.1539   YY=           -102.2339   ZZ=           -102.4810
   XY=             19.8044   XZ=             -5.1470   YZ=              2.5227

 Normal termination of Gaussian 16 at Thu May  6 09:39:55 2021.
