 Gaussian 16, Revision A.03,
 Gaussian 16:  EM64L-G16RevA.03 25-Dec-2016

 -------------
 #p 6-31g* mp2
 -------------

 ------------------------------------------------------
 Input file generated by CHIRIPA (05-May-2021 14:51:08)
 ------------------------------------------------------
 Symbolic Z-matrix:
 Charge =  0 Multiplicity = 1

                         Standard orientation:
 ---------------------------------------------------------------------
 Center     Atomic      Atomic             Coordinates (Angstroms)
 Number     Number       Type             X           Y           Z
 ---------------------------------------------------------------------
      1          6           0       -4.216773   -0.360550   -0.306547
      2          6           0       -3.931811   -1.802893    0.113489
      3          6           0       -5.105541   -2.742467   -0.164631
      4          1           0       -5.109685   -0.000808    0.222830
      5          1           0       -4.458872   -0.339103   -1.378146
      6          1           0       -3.688969   -1.821432    1.183675
      7          1           0       -3.039362   -2.159178   -0.416805
      8          1           0       -5.345317   -2.753652   -1.232799
      9          1           0       -5.998615   -2.413987    0.376775
     10          1           0       -4.880298   -3.768295    0.143269
     11          6           0       -3.052773    0.590772   -0.034856
     12          6           0       -3.337735    2.033114   -0.454891
     13          6           0       -2.164004    2.972689   -0.176772
     14          1           0       -2.810674    0.569325    1.036743
     15          1           0       -2.159861    0.231030   -0.564232
     16          1           0       -4.230184    2.389400    0.075402
     17          1           0       -3.580577    2.051654   -1.525078
     18          1           0       -1.270931    2.644208   -0.718178
     19          1           0       -1.924228    2.983874    0.891396
     20          1           0       -2.389248    3.998517   -0.484672
     21          6           0        2.942644    0.166157    0.011710
     22          6           0        1.957635    0.046598    1.175088
     23          6           0        0.577375    0.613623    0.841682
     24          1           0        3.037774    1.223038   -0.272718
     25          1           0        2.531718   -0.357108   -0.862777
     26          1           0        2.370927    0.568756    2.047532
     27          1           0        1.864985   -1.010099    1.456906
     28          1           0        0.140578    0.086713   -0.012820
     29          1           0        0.649393    1.674539    0.581162
     30          1           0       -0.110922    0.517882    1.687223
     31          6           0        4.326901   -0.396378    0.329693
     32          6           0        5.311911   -0.276821   -0.833685
     33          6           0        6.692171   -0.843845   -0.500280
     34          1           0        4.737828    0.126887    1.204181
     35          1           0        4.231772   -1.453259    0.614121
     36          1           0        5.404560    0.779878   -1.115502
     37          1           0        4.898619   -0.798977   -1.706129
     38          1           0        6.620152   -1.904761   -0.239759
     39          1           0        7.128967   -0.316935    0.354224
     40          1           0        7.380468   -0.748104   -1.345821
 ---------------------------------------------------------------------

 SCF Done:  E(RHF) =  -470.731632496     A.U. after   11 cycles
 E2 =    -0.1583981672D+01 EUMP2 =    -0.47231561416821D+03

 The electronic state is 1-A.
 Alpha  occ. eigenvalues --  -11.21590 -11.21573 -11.21518 -11.21515 -11.21382
 Alpha  occ. eigenvalues --  -11.21323 -11.21320 -11.21228 -11.21062 -11.21050
 Alpha  occ. eigenvalues --  -11.20936 -11.20929  -1.08413  -1.08348  -1.03534
 Alpha  occ. eigenvalues --   -1.03425  -0.95954  -0.95904  -0.86982  -0.86927
 Alpha  occ. eigenvalues --   -0.79738  -0.79404  -0.78289  -0.78052  -0.65060
 Alpha  occ. eigenvalues --   -0.64981  -0.60918  -0.60866  -0.59384  -0.59215
 Alpha  occ. eigenvalues --   -0.57657  -0.57459  -0.55341  -0.55109  -0.52710
 Alpha  occ. eigenvalues --   -0.52572  -0.52502  -0.52249  -0.49982  -0.49721
 Alpha  occ. eigenvalues --   -0.48115  -0.47662  -0.46614  -0.46537  -0.45919
 Alpha  occ. eigenvalues --   -0.45699  -0.45653  -0.45333  -0.43728  -0.43673
 Alpha virt. eigenvalues --    0.21993   0.23045   0.23755   0.24670   0.25360
 Alpha virt. eigenvalues --    0.26445   0.26529   0.27636   0.27884   0.29717
 Alpha virt. eigenvalues --    0.30628   0.31065   0.31615   0.31957   0.32113

 Mulliken charges:
               1
     1  C   -0.297953
     2  C   -0.299279
     3  C   -0.475596
     4  H    0.149169
     5  H    0.148961
     6  H    0.151690
     7  H    0.151153
     8  H    0.155082
     9  H    0.155186
    10  H    0.160015
    11  C   -0.300598
    12  C   -0.299702
    13  C   -0.477172
    14  H    0.149973
    15  H    0.154130
    16  H    0.151170
    17  H    0.151057
    18  H    0.158592
    19  H    0.155671
    20  H    0.158732
    21  C   -0.298397
    22  C   -0.301179
    23  C   -0.476129
    24  H    0.149409
    25  H    0.148870
    26  H    0.151268
    27  H    0.151352
    28  H    0.155706
    29  H    0.158158
    30  H    0.160742
    31  C   -0.298108
    32  C   -0.299598
    33  C   -0.475681
    34  H    0.149544
    35  H    0.149597
    36  H    0.151898
    37  H    0.151747
    38  H    0.155147
    39  H    0.155189
    40  H    0.160181
 Sum of Mulliken charges =  -0.00000

 Dipole moment (field-independent basis, Debye):
    X=              0.0071    Y=              0.0142    Z=              0.0059  Tot=              0.0170
 Quadrupole moment (field-independent basis, Debye-Ang):
   XX=            -86.5698   YY=            -84.7813   ZZ=            -83.8445
   XY=              0.0251   XZ=             -0.5044   YZ=              0.4577

 Normal termination of Gaussian 16 at Thu May  6 05:16:54 2021.
