 Gaussian 16, Revision A.03,
 Gaussian 16:  EM64L-G16RevA.03 25-Dec-2016

 -------------
 #p 6-31g* mp2
 -------------

 ------------------------------------------------------
 Input file generated by CHIRIPA (05-May-2021 14:55:22)
 ------------------------------------------------------
 Symbolic Z-matrix:
 Charge =  0 Multiplicity = 1

                         Standard orientation:
 ---------------------------------------------------------------------
 Center     Atomic      Atomic             Coordinates (Angstroms)
 Number     Number       Type             X           Y           Z
 ---------------------------------------------------------------------
      1          6           0       -1.255271   -2.217409    0.404616
      2          6           0       -2.440377   -2.249919   -0.337670
      3          6           0       -3.199233   -1.089195   -0.514882
      4          6           0       -2.741372    0.092058    0.066750
      5          6           0       -1.564899    0.156553    0.811760
      6          6           0       -0.822078   -1.016395    0.975955
      7          1           0       -0.672002   -3.123836    0.537223
      8          1           0       -2.779229   -3.181223   -0.782526
      9          1           0       -4.120475   -1.086034   -1.084726
     10          1           0       -1.252706    1.099882    1.243136
     11          1           0        0.097895   -0.988178    1.552929
     12          7           0       -3.536251    1.327335   -0.113966
     13          8           0       -3.111270    2.355391    0.408650
     14          8           0       -4.569208    1.244099   -0.774806
     15          6           0        3.074827    0.840470    0.036562
     16          6           0        4.047493    1.960690   -0.333587
     17          6           0        3.500248    3.350585   -0.007227
     18          1           0        2.126164    0.996697   -0.495018
     19          1           0        2.845870    0.902774    1.109452
     20          1           0        4.275625    1.895446   -1.405182
     21          1           0        4.994016    1.801671    0.198788
     22          1           0        3.289679    3.440070    1.063406
     23          1           0        2.567206    3.534376   -0.549678
     24          1           0        4.211640    4.136350   -0.279908
     25          6           0        3.607713   -0.554950   -0.283690
     26          6           0        2.635046   -1.675172    0.086459
     27          6           0        3.182291   -3.065065   -0.239902
     28          1           0        3.836668   -0.617255   -1.356580
     29          1           0        4.556376   -0.711178    0.247890
     30          1           0        1.688523   -1.516153   -0.445916
     31          1           0        2.406915   -1.609927    1.158054
     32          1           0        4.115334   -3.248858    0.302549
     33          1           0        3.392860   -3.154551   -1.310534
     34          1           0        2.470900   -3.850831    0.032780
 ---------------------------------------------------------------------

 SCF Done:  E(RHF) =  -669.534557493     A.U. after   15 cycles
 E2 =    -0.2093070984D+01 EUMP2 =    -0.67162762847672D+03

 The electronic state is 1-A.
 Alpha  occ. eigenvalues --  -20.60738 -20.60732 -15.85789 -11.31149 -11.27705
 Alpha  occ. eigenvalues --  -11.27671 -11.27425 -11.26737 -11.26633 -11.22544
 Alpha  occ. eigenvalues --  -11.22099 -11.22028 -11.22014 -11.21971 -11.21320
 Alpha  occ. eigenvalues --   -1.59813  -1.39367  -1.19313  -1.09124  -1.08705
 Alpha  occ. eigenvalues --   -1.04714  -1.04184  -0.96613  -0.95546  -0.87636
 Alpha  occ. eigenvalues --   -0.86115  -0.82376  -0.80316  -0.78939  -0.77403
 Alpha  occ. eigenvalues --   -0.72007  -0.71137  -0.70414  -0.65739  -0.64959
 Alpha  occ. eigenvalues --   -0.64722  -0.62076  -0.61574  -0.60011  -0.58233
 Alpha  occ. eigenvalues --   -0.55875  -0.55209  -0.53366  -0.53102  -0.53021
 Alpha  occ. eigenvalues --   -0.52751  -0.50543  -0.48814  -0.48764  -0.48508
 Alpha  occ. eigenvalues --   -0.47321  -0.46423  -0.46346  -0.44774  -0.44438
 Alpha  occ. eigenvalues --   -0.37257  -0.36274
 Alpha virt. eigenvalues --    0.05072   0.11274   0.16520   0.19919   0.22610
 Alpha virt. eigenvalues --    0.23468   0.24632   0.26145   0.26475   0.28746
 Alpha virt. eigenvalues --    0.29011   0.29981   0.31209   0.31629   0.32356

 Mulliken charges:
               1
     1  C   -0.174317
     2  C   -0.218640
     3  C   -0.171645
     4  C    0.158697
     5  C   -0.174456
     6  C   -0.217720
     7  H    0.226842
     8  H    0.223242
     9  H    0.275294
    10  H    0.275925
    11  H    0.231029
    12  N    0.487987
    13  O   -0.460408
    14  O   -0.460629
    15  C   -0.301049
    16  C   -0.300021
    17  C   -0.476834
    18  H    0.152634
    19  H    0.144551
    20  H    0.153855
    21  H    0.152527
    22  H    0.154849
    23  H    0.158704
    24  H    0.162424
    25  C   -0.297163
    26  C   -0.310322
    27  C   -0.474716
    28  H    0.153021
    29  H    0.151452
    30  H    0.160170
    31  H    0.143022
    32  H    0.158927
    33  H    0.159640
    34  H    0.153127
 Sum of Mulliken charges =  -0.00000

 Dipole moment (field-independent basis, Debye):
    X=              2.9483    Y=             -4.2750    Z=              0.5390  Tot=              5.2210
 Quadrupole moment (field-independent basis, Debye-Ang):
   XX=           -107.8221   YY=            -95.7812   ZZ=            -92.9754
   XY=             14.6554   XZ=              0.6534   YZ=              1.1769

 Normal termination of Gaussian 16 at Thu May  6 06:16:25 2021.
