 Gaussian 16, Revision A.03,
 Gaussian 16:  EM64L-G16RevA.03 25-Dec-2016

 -------------
 #p 6-31g* mp2
 -------------

 ------------------------------------------------------
 Input file generated by CHIRIPA (05-May-2021 14:53:18)
 ------------------------------------------------------
 Symbolic Z-matrix:
 Charge =  0 Multiplicity = 1

                         Standard orientation:
 ---------------------------------------------------------------------
 Center     Atomic      Atomic             Coordinates (Angstroms)
 Number     Number       Type             X           Y           Z
 ---------------------------------------------------------------------
      1          6           0        4.641356    0.498602   -0.258151
      2          6           0        6.121295    0.514707    0.125914
      3          6           0        6.869655    1.715016   -0.454612
      4          1           0        4.553318    0.492750   -1.353213
      5          1           0        4.169646    1.428547    0.088385
      6          1           0        6.589763   -0.415605   -0.220026
      7          1           0        6.205822    0.520327    1.220189
      8          1           0        6.428903    2.652213   -0.099648
      9          1           0        6.815025    1.710964   -1.548047
     10          1           0        7.925804    1.706714   -0.167662
     11          6           0        3.879766   -0.695354    0.314718
     12          6           0        2.399827   -0.711459   -0.069346
     13          6           0        1.651467   -1.911768    0.511179
     14          1           0        4.351476   -1.625299   -0.031817
     15          1           0        3.967805   -0.689502    1.409780
     16          1           0        2.315300   -0.717079   -1.163622
     17          1           0        1.931359    0.218853    0.276594
     18          1           0        1.706097   -1.907716    1.604614
     19          1           0        2.092219   -2.848965    0.156215
     20          1           0        0.595318   -1.903466    0.224230
     21          6           0       -4.257036    2.409989    0.223565
     22          6           0       -4.315452    1.760022   -1.013630
     23          6           0       -3.804130    0.467242   -1.161332
     24          6           0       -3.238802   -0.148702   -0.045846
     25          6           0       -3.165847    0.472625    1.199915
     26          6           0       -3.683432    1.765353    1.324448
     27          1           0       -4.656676    3.414232    0.329304
     28          1           0       -4.760351    2.258220   -1.870314
     29          1           0       -3.836336   -0.059105   -2.107556
     30          1           0       -2.716339   -0.049658    2.035726
     31          1           0       -3.636701    2.267698    2.286483
     32          7           0       -2.694174   -1.517283   -0.189948
     33          8           0       -2.201193   -2.038272    0.808140
     34          8           0       -2.770586   -2.043075   -1.298253
 ---------------------------------------------------------------------

 SCF Done:  E(RHF) =  -669.536086361     A.U. after   15 cycles
 E2 =    -0.2090899980D+01 EUMP2 =    -0.67162698634058D+03

 The electronic state is 1-A.
 Alpha  occ. eigenvalues --  -20.60946 -20.60929 -15.85962 -11.31280 -11.27843
 Alpha  occ. eigenvalues --  -11.27839 -11.27582 -11.26850 -11.26840 -11.21321
 Alpha  occ. eigenvalues --  -11.21026 -11.20929 -11.20868 -11.20848 -11.19927
 Alpha  occ. eigenvalues --   -1.60001  -1.39555  -1.19449  -1.08855  -1.07967
 Alpha  occ. eigenvalues --   -1.04844  -1.02993  -0.95698  -0.95410  -0.86418
 Alpha  occ. eigenvalues --   -0.86244  -0.82529  -0.79073  -0.77774  -0.77584
 Alpha  occ. eigenvalues --   -0.72180  -0.71321  -0.70558  -0.65103  -0.64847
 Alpha  occ. eigenvalues --   -0.64608  -0.62191  -0.60401  -0.58805  -0.57020
 Alpha  occ. eigenvalues --   -0.55350  -0.54713  -0.53179  -0.52936  -0.52052
 Alpha  occ. eigenvalues --   -0.51841  -0.49371  -0.48948  -0.48934  -0.47381
 Alpha  occ. eigenvalues --   -0.46139  -0.45309  -0.45246  -0.44959  -0.43178
 Alpha  occ. eigenvalues --   -0.37427  -0.36444
 Alpha virt. eigenvalues --    0.04915   0.11210   0.16401   0.21341   0.23284
 Alpha virt. eigenvalues --    0.24875   0.27067   0.27263   0.27907   0.28141
 Alpha virt. eigenvalues --    0.28681   0.30861   0.31912   0.32231   0.32390

 Mulliken charges:
               1
     1  C   -0.297491
     2  C   -0.299226
     3  C   -0.475340
     4  H    0.149081
     5  H    0.147064
     6  H    0.152196
     7  H    0.151208
     8  H    0.153842
     9  H    0.154845
    10  H    0.159419
    11  C   -0.297336
    12  C   -0.300341
    13  C   -0.480290
    14  H    0.149806
    15  H    0.148103
    16  H    0.150899
    17  H    0.145952
    18  H    0.151220
    19  H    0.153817
    20  H    0.177842
    21  C   -0.170527
    22  C   -0.218573
    23  C   -0.170731
    24  C    0.158480
    25  C   -0.170725
    26  C   -0.218606
    27  H    0.225966
    28  H    0.223799
    29  H    0.275839
    30  H    0.276091
    31  H    0.223783
    32  N    0.486933
    33  O   -0.458095
    34  O   -0.458903
 Sum of Mulliken charges =  -0.00000

 Dipole moment (field-independent basis, Debye):
    X=             -2.1632    Y=              4.7578    Z=              0.4960  Tot=              5.2499
 Quadrupole moment (field-independent basis, Debye-Ang):
   XX=            -83.7382   YY=            -97.0950   ZZ=            -89.6069
   XY=            -16.4453   XZ=             -0.0814   YZ=              0.5201

 Normal termination of Gaussian 16 at Thu May  6 02:50:57 2021.
