 Gaussian 16, Revision A.03,
 Gaussian 16:  EM64L-G16RevA.03 25-Dec-2016

 -------------
 #p 6-31g* mp2
 -------------

 ------------------------------------------------------
 Input file generated by CHIRIPA (05-May-2021 14:55:21)
 ------------------------------------------------------
 Symbolic Z-matrix:
 Charge =  0 Multiplicity = 1

                         Standard orientation:
 ---------------------------------------------------------------------
 Center     Atomic      Atomic             Coordinates (Angstroms)
 Number     Number       Type             X           Y           Z
 ---------------------------------------------------------------------
      1          6           0        4.567665   -1.068463   -1.535679
      2          6           0        3.199911   -0.968727   -1.811037
      3          6           0        2.321329   -0.438458   -0.861587
      4          6           0        2.847014   -0.015657    0.358325
      5          6           0        4.204731   -0.101947    0.662379
      6          6           0        5.064834   -0.635518   -0.302024
      7          1           0        5.242991   -1.481671   -2.279043
      8          1           0        2.810997   -1.304167   -2.768258
      9          1           0        1.258038   -0.349704   -1.048547
     10          1           0        4.562847    0.240772    1.625559
     11          1           0        6.126586   -0.711765   -0.085430
     12          7           0        1.926681    0.547463    1.371380
     13          8           0        2.414777    0.912914    2.438547
     14          8           0        0.734653    0.612723    1.079064
     15          6           0       -3.883688    0.888568   -0.383785
     16          6           0       -2.550417    1.509587   -0.801767
     17          6           0       -2.657307    3.009963   -1.076060
     18          1           0       -4.627150    1.066464   -1.172811
     19          1           0       -4.253183    1.401184    0.515155
     20          1           0       -2.182869    0.995031   -1.698849
     21          1           0       -1.809993    1.330026   -0.011739
     22          1           0       -3.000410    3.541454   -0.182527
     23          1           0       -3.375405    3.204555   -1.879223
     24          1           0       -1.692858    3.433452   -1.373305
     25          6           0       -3.792974   -0.610895   -0.106099
     26          6           0       -5.126246   -1.231914    0.311884
     27          6           0       -5.019356   -2.732292    0.586176
     28          1           0       -3.423480   -1.123511   -1.005039
     29          1           0       -3.049514   -0.788791    0.682928
     30          1           0       -5.866670   -1.052353   -0.478145
     31          1           0       -5.493795   -0.717358    1.208966
     32          1           0       -4.301259   -2.926883    1.389340
     33          1           0       -4.676253   -3.263781   -0.307356
     34          1           0       -5.983806   -3.155779    0.883422
 ---------------------------------------------------------------------

 SCF Done:  E(RHF) =  -669.536182827     A.U. after   15 cycles
 E2 =    -0.2090939454D+01 EUMP2 =    -0.67162712228118D+03

 The electronic state is 1-A.
 Alpha  occ. eigenvalues --  -20.60914 -20.60902 -15.85959 -11.31264 -11.27831
 Alpha  occ. eigenvalues --  -11.27819 -11.27569 -11.26837 -11.26826 -11.21092
 Alpha  occ. eigenvalues --  -11.20744 -11.20674 -11.20660 -11.20618 -11.20333
 Alpha  occ. eigenvalues --   -1.59979  -1.39535  -1.19434  -1.08842  -1.07749
 Alpha  occ. eigenvalues --   -1.04829  -1.02868  -0.95686  -0.95348  -0.86368
 Alpha  occ. eigenvalues --   -0.86230  -0.82523  -0.78937  -0.77639  -0.77477
 Alpha  occ. eigenvalues --   -0.72186  -0.71294  -0.70543  -0.65094  -0.64833
 Alpha  occ. eigenvalues --   -0.64367  -0.62175  -0.60254  -0.58720  -0.56950
 Alpha  occ. eigenvalues --   -0.55336  -0.54639  -0.53163  -0.52921  -0.52055
 Alpha  occ. eigenvalues --   -0.51776  -0.49298  -0.48939  -0.48933  -0.47253
 Alpha  occ. eigenvalues --   -0.45948  -0.45118  -0.45015  -0.44875  -0.43126
 Alpha  occ. eigenvalues --   -0.37416  -0.36431
 Alpha virt. eigenvalues --    0.04954   0.11224   0.16450   0.21207   0.23490
 Alpha virt. eigenvalues --    0.24788   0.26773   0.27325   0.27592   0.28585
 Alpha virt. eigenvalues --    0.28957   0.30861   0.31807   0.32041   0.32577

 Mulliken charges:
               1
     1  C   -0.170578
     2  C   -0.218671
     3  C   -0.171047
     4  C    0.157464
     5  C   -0.170772
     6  C   -0.218640
     7  H    0.225892
     8  H    0.223860
     9  H    0.277076
    10  H    0.275706
    11  H    0.223684
    12  N    0.495810
    13  O   -0.459360
    14  O   -0.468206
    15  C   -0.297128
    16  C   -0.311730
    17  C   -0.474092
    18  H    0.145090
    19  H    0.150579
    20  H    0.140239
    21  H    0.182519
    22  H    0.156526
    23  H    0.149922
    24  H    0.158297
    25  C   -0.299357
    26  C   -0.299105
    27  C   -0.475431
    28  H    0.143612
    29  H    0.157856
    30  H    0.149687
    31  H    0.152693
    32  H    0.156510
    33  H    0.152467
    34  H    0.158625
 Sum of Mulliken charges =  -0.00000

 Dipole moment (field-independent basis, Debye):
    X=              3.4614    Y=             -1.9711    Z=             -3.4026  Tot=              5.2387
 Quadrupole moment (field-independent basis, Debye-Ang):
   XX=            -74.2288   YY=            -96.9013   ZZ=            -95.0831
   XY=             -5.3534   XZ=             -6.7180   YZ=              0.6192

 Normal termination of Gaussian 16 at Thu May  6 01:26:26 2021.
