 Gaussian 16, Revision A.03,
 Gaussian 16:  EM64L-G16RevA.03 25-Dec-2016

 -------------
 #p 6-31g* mp2
 -------------

 ------------------------------------------------------
 Input file generated by CHIRIPA (05-May-2021 14:53:12)
 ------------------------------------------------------
 Symbolic Z-matrix:
 Charge =  0 Multiplicity = 1

                         Standard orientation:
 ---------------------------------------------------------------------
 Center     Atomic      Atomic             Coordinates (Angstroms)
 Number     Number       Type             X           Y           Z
 ---------------------------------------------------------------------
      1          6           0       -4.323727    0.345223   -0.114825
      2          6           0       -5.826100    0.353074   -0.399077
      3          6           0       -6.352572    1.742961   -0.758014
      4          1           0       -4.108571    1.043514    0.705567
      5          1           0       -3.788815    0.724520   -0.996526
      6          1           0       -6.357929   -0.027426    0.482395
      7          1           0       -6.037729   -0.345460   -1.218759
      8          1           0       -5.848310    2.127260   -1.650558
      9          1           0       -6.170330    2.447101    0.060262
     10          1           0       -7.428603    1.725552   -0.957296
     11          6           0       -3.782554   -1.037180    0.245481
     12          6           0       -2.280181   -1.045032    0.529733
     13          6           0       -1.753709   -2.434919    0.888671
     14          1           0       -4.317465   -1.416478    1.127183
     15          1           0       -3.997709   -1.735472   -0.574911
     16          1           0       -2.068552   -0.346498    1.349416
     17          1           0       -1.748351   -0.664532   -0.351739
     18          1           0       -1.935951   -3.139059    0.070395
     19          1           0       -2.257970   -2.819218    1.781215
     20          1           0       -0.677677   -2.417510    1.087953
     21          6           0        3.515902   -2.164664   -0.612127
     22          6           0        4.559054   -1.249361   -0.786984
     23          6           0        4.376761    0.102191   -0.479368
     24          6           0        3.132739    0.505699    0.003207
     25          6           0        2.073997   -0.382063    0.188232
     26          6           0        2.278885   -1.728863   -0.125934
     27          1           0        3.666288   -3.212735   -0.853634
     28          1           0        5.520807   -1.584971   -1.164398
     29          1           0        5.167195    0.832121   -0.605197
     30          1           0        1.126531   -0.017599    0.566244
     31          1           0        1.466963   -2.437463    0.010863
     32          7           0        2.927794    1.934011    0.332333
     33          8           0        1.822304    2.264249    0.755974
     34          8           0        3.876527    2.696236    0.160429
 ---------------------------------------------------------------------

 SCF Done:  E(RHF) =  -669.535532168     A.U. after   15 cycles
 E2 =    -0.2091351550D+01 EUMP2 =    -0.67162688371831D+03

 The electronic state is 1-A.
 Alpha  occ. eigenvalues --  -20.60726 -20.60721 -15.85779 -11.31136 -11.27712
 Alpha  occ. eigenvalues --  -11.27685 -11.27448 -11.26726 -11.26683 -11.22170
 Alpha  occ. eigenvalues --  -11.21953 -11.21737 -11.21683 -11.21496 -11.21061
 Alpha  occ. eigenvalues --   -1.59802  -1.39355  -1.19308  -1.08732  -1.08705
 Alpha  occ. eigenvalues --   -1.04713  -1.03888  -0.96350  -0.95541  -0.87369
 Alpha  occ. eigenvalues --   -0.86108  -0.82376  -0.79962  -0.78486  -0.77425
 Alpha  occ. eigenvalues --   -0.71997  -0.71125  -0.70419  -0.65353  -0.64963
 Alpha  occ. eigenvalues --   -0.64730  -0.62148  -0.61266  -0.59728  -0.57932
 Alpha  occ. eigenvalues --   -0.55613  -0.55209  -0.53198  -0.53040  -0.52848
 Alpha  occ. eigenvalues --   -0.52602  -0.50261  -0.48756  -0.48752  -0.48266
 Alpha  occ. eigenvalues --   -0.46971  -0.46037  -0.45927  -0.44763  -0.44125
 Alpha  occ. eigenvalues --   -0.37293  -0.36313
 Alpha virt. eigenvalues --    0.05102   0.11333   0.16581   0.19452   0.22833
 Alpha virt. eigenvalues --    0.23795   0.26048   0.26405   0.26695   0.28172
 Alpha virt. eigenvalues --    0.29345   0.29625   0.31080   0.31540   0.32544

 Mulliken charges:
               1
     1  C   -0.299390
     2  C   -0.300081
     3  C   -0.476031
     4  H    0.153365
     5  H    0.151551
     6  H    0.151877
     7  H    0.151239
     8  H    0.156242
     9  H    0.156960
    10  H    0.160301
    11  C   -0.298771
    12  C   -0.304106
    13  C   -0.480508
    14  H    0.150869
    15  H    0.149550
    16  H    0.157915
    17  H    0.152104
    18  H    0.156253
    19  H    0.161382
    20  H    0.150685
    21  C   -0.171039
    22  C   -0.218676
    23  C   -0.170809
    24  C    0.158666
    25  C   -0.175792
    26  C   -0.224713
    27  H    0.225777
    28  H    0.223188
    29  H    0.275393
    30  H    0.279642
    31  H    0.230089
    32  N    0.487975
    33  O   -0.460370
    34  O   -0.460737
 Sum of Mulliken charges =  -0.00000

 Dipole moment (field-independent basis, Debye):
    X=              0.5312    Y=             -4.9777    Z=             -1.1495  Tot=              5.1362
 Quadrupole moment (field-independent basis, Debye-Ang):
   XX=            -85.5108   YY=           -101.2031   ZZ=            -94.2661
   XY=            -14.1377   XZ=             -5.6561   YZ=             -0.4308

 Normal termination of Gaussian 16 at Wed May  5 18:30:16 2021.
