 Gaussian 16, Revision A.03,
 Gaussian 16:  EM64L-G16RevA.03 25-Dec-2016

 -------------
 #p 6-31g* mp2
 -------------

 ------------------------------------------------------
 Input file generated by CHIRIPA (05-May-2021 14:53:12)
 ------------------------------------------------------
 Symbolic Z-matrix:
 Charge =  0 Multiplicity = 1

                         Standard orientation:
 ---------------------------------------------------------------------
 Center     Atomic      Atomic             Coordinates (Angstroms)
 Number     Number       Type             X           Y           Z
 ---------------------------------------------------------------------
      1          6           0        4.135699   -0.179108   -0.442448
      2          6           0        5.041500    0.051254    0.767694
      3          6           0        6.390057    0.664003    0.388583
      4          1           0        4.650077   -0.835294   -1.157837
      5          1           0        3.972905    0.777883   -0.957288
      6          1           0        5.201412   -0.905652    1.280894
      7          1           0        4.524829    0.706813    1.480373
      8          1           0        6.248777    1.631604   -0.103749
      9          1           0        6.929204    0.009977   -0.304361
     10          1           0        7.021689    0.820160    1.268648
     11          6           0        2.783898   -0.791212   -0.079556
     12          6           0        1.878098   -1.021575   -1.289698
     13          6           0        0.529541   -1.634324   -0.910586
     14          1           0        2.946692   -1.748204    0.435284
     15          1           0        2.269521   -0.135027    0.635834
     16          1           0        2.394769   -1.677133   -2.002376
     17          1           0        1.718185   -0.064668   -1.802897
     18          1           0       -0.009607   -0.980297   -0.217642
     19          1           0        0.670821   -2.601924   -0.418255
     20          1           0       -0.102091   -1.790480   -1.790652
     21          6           0       -3.690024   -1.917441    0.547212
     22          6           0       -2.760749   -1.411054    1.461839
     23          6           0       -2.207342   -0.139908    1.281626
     24          6           0       -2.607543    0.601046    0.170718
     25          6           0       -3.531184    0.124170   -0.758133
     26          6           0       -4.071602   -1.149567   -0.557907
     27          1           0       -4.114878   -2.905905    0.694979
     28          1           0       -2.462559   -2.005166    2.321000
     29          1           0       -1.485973    0.276518    1.974182
     30          1           0       -3.808920    0.739896   -1.604988
     31          1           0       -4.793083   -1.540277   -1.269845
     32          7           0       -2.028551    1.948122   -0.030658
     33          8           0       -2.397605    2.581076   -1.017475
     34          8           0       -1.216646    2.345500    0.802131
 ---------------------------------------------------------------------

 SCF Done:  E(RHF) =  -669.534786063     A.U. after   15 cycles
 E2 =    -0.2092805576D+01 EUMP2 =    -0.67162759163903D+03

 The electronic state is 1-A.
 Alpha  occ. eigenvalues --  -20.60826 -20.60821 -15.85876 -11.31204 -11.27788
 Alpha  occ. eigenvalues --  -11.27771 -11.27533 -11.26804 -11.26790 -11.21377
 Alpha  occ. eigenvalues --  -11.21350 -11.21168 -11.21090 -11.20923 -11.20824
 Alpha  occ. eigenvalues --   -1.59901  -1.39455  -1.19401  -1.08792  -1.08193
 Alpha  occ. eigenvalues --   -1.04805  -1.03316  -0.95786  -0.95626  -0.86802
 Alpha  occ. eigenvalues --   -0.86199  -0.82465  -0.79384  -0.78010  -0.77515
 Alpha  occ. eigenvalues --   -0.72096  -0.71229  -0.70510  -0.65051  -0.64828
 Alpha  occ. eigenvalues --   -0.64790  -0.62150  -0.60729  -0.59147  -0.57405
 Alpha  occ. eigenvalues --   -0.55306  -0.55167  -0.53267  -0.52891  -0.52434
 Alpha  occ. eigenvalues --   -0.52089  -0.49675  -0.48855  -0.48849  -0.47700
 Alpha  occ. eigenvalues --   -0.46402  -0.45557  -0.45464  -0.44855  -0.43565
 Alpha  occ. eigenvalues --   -0.37346  -0.36333
 Alpha virt. eigenvalues --    0.05004   0.11176   0.16512   0.21336   0.23085
 Alpha virt. eigenvalues --    0.24442   0.26669   0.27285   0.27761   0.28171
 Alpha virt. eigenvalues --    0.28436   0.30796   0.31583   0.31949   0.32153

 Mulliken charges:
               1
     1  C   -0.298504
     2  C   -0.299939
     3  C   -0.475766
     4  H    0.148150
     5  H    0.153365
     6  H    0.149593
     7  H    0.154025
     8  H    0.156907
     9  H    0.154098
    10  H    0.159533
    11  C   -0.299022
    12  C   -0.299692
    13  C   -0.479423
    14  H    0.145702
    15  H    0.152898
    16  H    0.150040
    17  H    0.156736
    18  H    0.159217
    19  H    0.149760
    20  H    0.158419
    21  C   -0.170551
    22  C   -0.212724
    23  C   -0.179116
    24  C    0.164481
    25  C   -0.171262
    26  C   -0.217753
    27  H    0.225871
    28  H    0.223948
    29  H    0.275476
    30  H    0.275626
    31  H    0.223595
    32  N    0.488112
    33  O   -0.460222
    34  O   -0.461578
 Sum of Mulliken charges =  -0.00000

 Dipole moment (field-independent basis, Debye):
    X=             -2.1391    Y=             -4.6806    Z=              0.7156  Tot=              5.1957
 Quadrupole moment (field-independent basis, Debye-Ang):
   XX=            -84.0515   YY=           -100.5907   ZZ=            -91.3018
   XY=             10.6022   XZ=              0.4524   YZ=             -0.8926

 Normal termination of Gaussian 16 at Thu May  6 08:49:25 2021.
