 Gaussian 16, Revision A.03,
 Gaussian 16:  EM64L-G16RevA.03 25-Dec-2016

 -------------
 #p 6-31g* mp2
 -------------

 ------------------------------------------------------
 Input file generated by CHIRIPA (05-May-2021 14:53:17)
 ------------------------------------------------------
 Symbolic Z-matrix:
 Charge =  0 Multiplicity = 1

                         Standard orientation:
 ---------------------------------------------------------------------
 Center     Atomic      Atomic             Coordinates (Angstroms)
 Number     Number       Type             X           Y           Z
 ---------------------------------------------------------------------
      1          6           0       -3.238872   -0.506867   -0.338695
      2          6           0       -1.883494   -0.100142    0.240539
      3          6           0       -0.727817   -0.928631   -0.321432
      4          1           0       -3.414385   -1.571426   -0.131681
      5          1           0       -3.208935   -0.401854   -1.432070
      6          1           0       -1.916425   -0.204573    1.332613
      7          1           0       -1.711273    0.963619    0.032290
      8          1           0       -0.666378   -0.816360   -1.408732
      9          1           0       -0.872695   -1.991189   -0.101021
     10          1           0        0.231630   -0.621202    0.106129
     11          6           0       -4.404102    0.312349    0.213440
     12          6           0       -5.759479   -0.094376   -0.365794
     13          6           0       -6.915156    0.734112    0.196177
     14          1           0       -4.434038    0.207335    1.306816
     15          1           0       -4.228589    1.376908    0.006426
     16          1           0       -5.931700   -1.158138   -0.157545
     17          1           0       -5.726549    0.010054   -1.457868
     18          1           0       -6.770278    1.796670   -0.024234
     19          1           0       -6.976595    0.621841    1.283477
     20          1           0       -7.874604    0.426684   -0.231383
     21          6           0        2.754042   -2.431653    0.204148
     22          6           0        3.025362   -1.828687   -1.028466
     23          6           0        3.155683   -0.440162   -1.126259
     24          6           0        3.007917    0.318413    0.033921
     25          6           0        2.737388   -0.252824    1.276417
     26          6           0        2.611172   -1.643186    1.350635
     27          1           0        2.654400   -3.511006    0.270960
     28          1           0        3.136818   -2.438524   -1.920499
     29          1           0        3.365549    0.052675   -2.067793
     30          1           0        2.631567    0.381399    2.148186
     31          1           0        2.400442   -2.108728    2.309232
     32          7           0        3.143708    1.789356   -0.057128
     33          8           0        3.009065    2.435450    0.979727
     34          8           0        3.382212    2.268332   -1.163625
 ---------------------------------------------------------------------

 SCF Done:  E(RHF) =  -669.534026272     A.U. after   15 cycles
 E2 =    -0.2093779181D+01 EUMP2 =    -0.67162780545242D+03

 The electronic state is 1-A.
 Alpha  occ. eigenvalues --  -20.60811 -20.60806 -15.85866 -11.31244 -11.27820
 Alpha  occ. eigenvalues --  -11.27792 -11.27547 -11.26845 -11.26809 -11.21592
 Alpha  occ. eigenvalues --  -11.21545 -11.21387 -11.21323 -11.21047 -11.20924
 Alpha  occ. eigenvalues --   -1.59887  -1.39440  -1.19449  -1.08816  -1.08405
 Alpha  occ. eigenvalues --   -1.04838  -1.03499  -0.95953  -0.95647  -0.86974
 Alpha  occ. eigenvalues --   -0.86223  -0.82476  -0.79571  -0.78223  -0.77525
 Alpha  occ. eigenvalues --   -0.72082  -0.71217  -0.70524  -0.65074  -0.65040
 Alpha  occ. eigenvalues --   -0.64825  -0.62175  -0.60903  -0.59447  -0.57637
 Alpha  occ. eigenvalues --   -0.55320  -0.55247  -0.53908  -0.52914  -0.52413
 Alpha  occ. eigenvalues --   -0.51714  -0.49906  -0.48844  -0.48836  -0.47870
 Alpha  occ. eigenvalues --   -0.46610  -0.45765  -0.45695  -0.44840  -0.43680
 Alpha  occ. eigenvalues --   -0.37402  -0.36412
 Alpha virt. eigenvalues --    0.04997   0.11195   0.16472   0.21364   0.22889
 Alpha virt. eigenvalues --    0.24389   0.26652   0.27277   0.27506   0.28025
 Alpha virt. eigenvalues --    0.28304   0.30908   0.31408   0.31921   0.32370

 Mulliken charges:
               1
     1  C   -0.298063
     2  C   -0.299624
     3  C   -0.480897
     4  H    0.147042
     5  H    0.149543
     6  H    0.148829
     7  H    0.155660
     8  H    0.152546
     9  H    0.147074
    10  H    0.171730
    11  C   -0.298342
    12  C   -0.299521
    13  C   -0.475717
    14  H    0.148828
    15  H    0.151651
    16  H    0.150687
    17  H    0.152015
    18  H    0.156190
    19  H    0.154905
    20  H    0.159929
    21  C   -0.168428
    22  C   -0.215240
    23  C   -0.170980
    24  C    0.162212
    25  C   -0.180171
    26  C   -0.215143
    27  H    0.226006
    28  H    0.224078
    29  H    0.275917
    30  H    0.275955
    31  H    0.223946
    32  N    0.488072
    33  O   -0.460352
    34  O   -0.460337
 Sum of Mulliken charges =  -0.00000

 Dipole moment (field-independent basis, Debye):
    X=             -0.3404    Y=             -5.1754    Z=              0.3104  Tot=              5.1958
 Quadrupole moment (field-independent basis, Debye-Ang):
   XX=            -99.2648   YY=            -98.4438   ZZ=            -89.4449
   XY=            -15.7394   XZ=              0.1300   YZ=             -0.3469

 Normal termination of Gaussian 16 at Thu May  6 06:00:29 2021.
