 Gaussian 16, Revision A.03,
 Gaussian 16:  EM64L-G16RevA.03 25-Dec-2016

 -------------
 #p 6-31g* mp2
 -------------

 ------------------------------------------------------
 Input file generated by CHIRIPA (05-May-2021 14:51:13)
 ------------------------------------------------------
 Symbolic Z-matrix:
 Charge =  0 Multiplicity = 1

                         Standard orientation:
 ---------------------------------------------------------------------
 Center     Atomic      Atomic             Coordinates (Angstroms)
 Number     Number       Type             X           Y           Z
 ---------------------------------------------------------------------
      1          6           0        2.285291   -0.870483   -0.043312
      2          6           0        1.731531   -1.844551    0.997133
      3          6           0        0.306964   -2.300812    0.680540
      4          1           0        1.623863    0.004479   -0.105747
      5          1           0        2.263928   -1.349640   -1.031921
      6          1           0        1.755219   -1.364199    1.983702
      7          1           0        2.394458   -2.717209    1.057236
      8          1           0        0.270556   -2.803848   -0.291175
      9          1           0       -0.372315   -1.443151    0.640555
     10          1           0       -0.069219   -2.996551    1.437040
     11          6           0        3.708569   -0.405317    0.259387
     12          6           0        4.262329    0.568750   -0.781059
     13          6           0        5.686896    1.025011   -0.464466
     14          1           0        3.729932    0.073839    1.247996
     15          1           0        4.369997   -1.280280    0.321821
     16          1           0        3.599402    1.441408   -0.841161
     17          1           0        4.238641    0.088399   -1.767627
     18          1           0        6.366175    0.167350   -0.424481
     19          1           0        5.723304    1.528047    0.507249
     20          1           0        6.063079    1.720751   -1.220966
     21          6           0       -3.039403    0.013921   -0.546532
     22          6           0       -3.943895   -1.074134    0.033136
     23          6           0       -4.018670   -2.316136   -0.855477
     24          1           0       -3.407455    0.295591   -1.542597
     25          1           0       -2.030252   -0.396244   -0.690660
     26          1           0       -4.950694   -0.661636    0.177419
     27          1           0       -3.573760   -1.353109    1.028017
     28          1           0       -3.024310   -2.754048   -0.989940
     29          1           0       -4.409066   -2.058645   -1.845370
     30          1           0       -4.670508   -3.081132   -0.422178
     31          6           0       -2.954457    1.261880    0.330458
     32          6           0       -2.049965    2.349935   -0.249210
     33          6           0       -1.975191    3.591936    0.639402
     34          1           0       -3.963609    1.672045    0.474584
     35          1           0       -2.586406    0.980210    1.326523
     36          1           0       -2.420100    2.628910   -1.244091
     37          1           0       -1.043167    1.937437   -0.393494
     38          1           0       -1.584793    3.334446    1.629296
     39          1           0       -2.969551    4.029848    0.773866
     40          1           0       -1.323352    4.356933    0.206103
 ---------------------------------------------------------------------

 SCF Done:  E(RHF) =  -470.733317827     A.U. after   11 cycles
 E2 =    -0.1583286644D+01 EUMP2 =    -0.47231660447092D+03

 The electronic state is 1-A.
 Alpha  occ. eigenvalues --  -11.21680 -11.21633 -11.21630 -11.21544 -11.21469
 Alpha  occ. eigenvalues --  -11.21404 -11.21390 -11.21298 -11.21159 -11.21097
 Alpha  occ. eigenvalues --  -11.21094 -11.20994  -1.08493  -1.08410  -1.03593
 Alpha  occ. eigenvalues --   -1.03505  -0.96045  -0.95954  -0.87067  -0.86967
 Alpha  occ. eigenvalues --   -0.79664  -0.79565  -0.78325  -0.78199  -0.65212
 Alpha  occ. eigenvalues --   -0.64984  -0.61011  -0.60885  -0.59408  -0.59325
 Alpha  occ. eigenvalues --   -0.57660  -0.57559  -0.55439  -0.55142  -0.52730
 Alpha  occ. eigenvalues --   -0.52652  -0.52497  -0.52359  -0.50095  -0.49785
 Alpha  occ. eigenvalues --   -0.48034  -0.47858  -0.46717  -0.46599  -0.46010
 Alpha  occ. eigenvalues --   -0.45778  -0.45739  -0.45418  -0.43843  -0.43763
 Alpha virt. eigenvalues --    0.19884   0.22782   0.23747   0.24567   0.25535
 Alpha virt. eigenvalues --    0.26662   0.26850   0.27600   0.27933   0.29601
 Alpha virt. eigenvalues --    0.30653   0.31455   0.31715   0.31991   0.32025

 Mulliken charges:
               1
     1  C   -0.299544
     2  C   -0.299727
     3  C   -0.482288
     4  H    0.149794
     5  H    0.149923
     6  H    0.152034
     7  H    0.152465
     8  H    0.155379
     9  H    0.161371
    10  H    0.160916
    11  C   -0.298314
    12  C   -0.299744
    13  C   -0.475759
    14  H    0.149651
    15  H    0.149924
    16  H    0.152082
    17  H    0.152075
    18  H    0.155221
    19  H    0.155258
    20  H    0.160425
    21  C   -0.304009
    22  C   -0.299446
    23  C   -0.477070
    24  H    0.149874
    25  H    0.154835
    26  H    0.151576
    27  H    0.152409
    28  H    0.157579
    29  H    0.154645
    30  H    0.159854
    31  C   -0.298960
    32  C   -0.300609
    33  C   -0.475666
    34  H    0.149864
    35  H    0.149260
    36  H    0.152444
    37  H    0.151659
    38  H    0.154926
    39  H    0.155477
    40  H    0.160219
 Sum of Mulliken charges =  -0.00000

 Dipole moment (field-independent basis, Debye):
    X=              0.0287    Y=             -0.0174    Z=             -0.0011  Tot=              0.0336
 Quadrupole moment (field-independent basis, Debye-Ang):
   XX=            -85.0867   YY=            -85.0823   ZZ=            -84.5456
   XY=             -1.2342   XZ=              0.0140   YZ=             -0.3393

 Normal termination of Gaussian 16 at Wed May  5 18:22:37 2021.
