 Gaussian 16, Revision A.03,
 Gaussian 16:  EM64L-G16RevA.03 25-Dec-2016

 -------------
 #p 6-31g* mp2
 -------------

 ------------------------------------------------------
 Input file generated by CHIRIPA (05-May-2021 14:53:13)
 ------------------------------------------------------
 Symbolic Z-matrix:
 Charge =  0 Multiplicity = 1

                         Standard orientation:
 ---------------------------------------------------------------------
 Center     Atomic      Atomic             Coordinates (Angstroms)
 Number     Number       Type             X           Y           Z
 ---------------------------------------------------------------------
      1          6           0        3.328946   -1.164708   -0.148145
      2          6           0        1.856677   -1.184801    0.264169
      3          6           0        1.135790   -2.458016   -0.179722
      4          1           0        3.398807   -1.265678   -1.239873
      5          1           0        3.834363   -2.041514    0.279828
      6          1           0        1.354499   -0.307479   -0.163310
      7          1           0        1.790306   -1.083579    1.355025
      8          1           0        1.610627   -3.342081    0.257955
      9          1           0        1.172343   -2.561570   -1.269007
     10          1           0        0.084722   -2.451383    0.125356
     11          6           0        4.063123    0.101803    0.288505
     12          6           0        5.535392    0.121895   -0.123810
     13          6           0        6.256279    1.395111    0.320081
     14          1           0        3.557706    0.978608   -0.139468
     15          1           0        3.993263    0.202772    1.380232
     16          1           0        5.601763    0.020674   -1.214665
     17          1           0        6.037571   -0.755427    0.303669
     18          1           0        6.219726    1.498665    1.409366
     19          1           0        5.781442    2.279175   -0.117595
     20          1           0        7.307347    1.388478    0.015003
     21          6           0       -4.181276   -1.734628    0.210483
     22          6           0       -2.862837   -1.764058   -0.255748
     23          6           0       -2.136482   -0.579074   -0.406644
     24          6           0       -2.762452    0.623034   -0.080477
     25          6           0       -4.074504    0.685081    0.386386
     26          6           0       -4.781843   -0.512306    0.529500
     27          1           0       -4.738140   -2.659970    0.324680
     28          1           0       -2.393874   -2.711875   -0.504271
     29          1           0       -1.114428   -0.572984   -0.765517
     30          1           0       -4.515080    1.645232    0.626014
     31          1           0       -5.805618   -0.486423    0.891798
     32          7           0       -2.003558    1.884090   -0.236105
     33          8           0       -2.577757    2.930215    0.058097
     34          8           0       -0.848908    1.802501   -0.649340
 ---------------------------------------------------------------------

 SCF Done:  E(RHF) =  -669.535091332     A.U. after   15 cycles
 E2 =    -0.2093017506D+01 EUMP2 =    -0.67162810883764D+03

 The electronic state is 1-A.
 Alpha  occ. eigenvalues --  -20.60845 -20.60839 -15.85883 -11.31182 -11.27772
 Alpha  occ. eigenvalues --  -11.27697 -11.27505 -11.26773 -11.26738 -11.21599
 Alpha  occ. eigenvalues --  -11.21540 -11.21319 -11.21272 -11.21039 -11.20748
 Alpha  occ. eigenvalues --   -1.59908  -1.39464  -1.19366  -1.08772  -1.08279
 Alpha  occ. eigenvalues --   -1.04773  -1.03480  -0.95985  -0.95603  -0.86989
 Alpha  occ. eigenvalues --   -0.86162  -0.82456  -0.79525  -0.78045  -0.77507
 Alpha  occ. eigenvalues --   -0.72110  -0.71222  -0.70494  -0.65030  -0.64965
 Alpha  occ. eigenvalues --   -0.64716  -0.62290  -0.60829  -0.59287  -0.57533
 Alpha  occ. eigenvalues --   -0.55338  -0.55157  -0.53141  -0.52850  -0.52647
 Alpha  occ. eigenvalues --   -0.52346  -0.49884  -0.48884  -0.48855  -0.47827
 Alpha  occ. eigenvalues --   -0.46513  -0.45601  -0.45474  -0.44853  -0.43712
 Alpha  occ. eigenvalues --   -0.37348  -0.36341
 Alpha virt. eigenvalues --    0.04980   0.11272   0.16393   0.20604   0.23162
 Alpha virt. eigenvalues --    0.24233   0.26617   0.26700   0.27446   0.28068
 Alpha virt. eigenvalues --    0.29008   0.30045   0.31411   0.31798   0.32450

 Mulliken charges:
               1
     1  C   -0.297515
     2  C   -0.312313
     3  C   -0.487605
     4  H    0.149572
     5  H    0.147486
     6  H    0.171486
     7  H    0.153798
     8  H    0.159250
     9  H    0.154904
    10  H    0.152058
    11  C   -0.300341
    12  C   -0.299705
    13  C   -0.475940
    14  H    0.158690
    15  H    0.149476
    16  H    0.151700
    17  H    0.149892
    18  H    0.154935
    19  H    0.158029
    20  H    0.159039
    21  C   -0.170503
    22  C   -0.224117
    23  C   -0.173465
    24  C    0.155739
    25  C   -0.170180
    26  C   -0.219113
    27  H    0.225809
    28  H    0.225980
    29  H    0.287961
    30  H    0.275494
    31  H    0.223467
    32  N    0.489137
    33  O   -0.459575
    34  O   -0.463530
 Sum of Mulliken charges =  -0.00000

 Dipole moment (field-independent basis, Debye):
    X=             -2.6415    Y=             -4.2866    Z=              0.5524  Tot=              5.0653
 Quadrupole moment (field-independent basis, Debye-Ang):
   XX=            -77.2990   YY=           -100.2326   ZZ=            -94.4406
   XY=              7.9978   XZ=             -2.8071   YZ=              1.0171

 Normal termination of Gaussian 16 at Wed May  5 18:33:26 2021.
