 Gaussian 16, Revision A.03,
 Gaussian 16:  EM64L-G16RevA.03 25-Dec-2016

 -------------
 #p 6-31g* mp2
 -------------

 ------------------------------------------------------
 Input file generated by CHIRIPA (05-May-2021 14:55:24)
 ------------------------------------------------------
 Symbolic Z-matrix:
 Charge =  0 Multiplicity = 1

                         Standard orientation:
 ---------------------------------------------------------------------
 Center     Atomic      Atomic             Coordinates (Angstroms)
 Number     Number       Type             X           Y           Z
 ---------------------------------------------------------------------
      1          6           0        1.063571    0.999982    1.343870
      2          6           0        2.372917    1.302387    1.732053
      3          6           0        3.460250    0.700417    1.091829
      4          6           0        3.200605   -0.203372    0.062732
      5          6           0        1.907584   -0.525272   -0.346863
      6          6           0        0.835486    0.088725    0.307478
      7          1           0        0.224822    1.472278    1.846694
      8          1           0        2.553047    2.009700    2.536606
      9          1           0        4.484060    0.916345    1.372196
     10          1           0        1.759595   -1.234371   -1.152278
     11          1           0       -0.180305   -0.148032    0.003897
     12          7           0        4.343651   -0.847017   -0.622517
     13          8           0        4.088247   -1.639867   -1.526284
     14          8           0        5.473332   -0.546469   -0.242872
     15          6           0       -3.804943   -0.603584    0.000323
     16          6           0       -5.164753   -1.259198    0.243374
     17          6           0       -5.046817   -2.715704    0.693343
     18          1           0       -3.257432   -1.179923   -0.757972
     19          1           0       -3.210146   -0.656341    0.922726
     20          1           0       -5.757329   -1.203988   -0.678809
     21          1           0       -5.709168   -0.681121    1.001039
     22          1           0       -4.477927   -2.785882    1.626103
     23          1           0       -4.526362   -3.311720   -0.063290
     24          1           0       -6.030612   -3.164898    0.861364
     25          6           0       -3.906332    0.852652   -0.450036
     26          6           0       -2.546522    1.508264   -0.693088
     27          6           0       -2.664459    2.964771   -1.143056
     28          1           0       -4.501130    0.905408   -1.372440
     29          1           0       -4.453843    1.428990    0.308259
     30          1           0       -2.002108    0.930188   -1.450753
     31          1           0       -1.953947    1.453056    0.229096
     32          1           0       -3.184913    3.560788   -0.386423
     33          1           0       -3.233348    3.034950   -2.075816
     34          1           0       -1.680663    3.413965   -1.311077
 ---------------------------------------------------------------------

 SCF Done:  E(RHF) =  -669.534857679     A.U. after   15 cycles
 E2 =    -0.2092334466D+01 EUMP2 =    -0.67162719214568D+03

 The electronic state is 1-A.
 Alpha  occ. eigenvalues --  -20.60697 -20.60692 -15.85748 -11.31094 -11.27656
 Alpha  occ. eigenvalues --  -11.27626 -11.27385 -11.26686 -11.26557 -11.22831
 Alpha  occ. eigenvalues --  -11.22397 -11.22341 -11.22308 -11.21988 -11.21671
 Alpha  occ. eigenvalues --   -1.59773  -1.39327  -1.19255  -1.09406  -1.08657
 Alpha  occ. eigenvalues --   -1.04659  -1.04420  -0.96834  -0.95500  -0.87857
 Alpha  occ. eigenvalues --   -0.86062  -0.82330  -0.80554  -0.79250  -0.77362
 Alpha  occ. eigenvalues --   -0.71968  -0.71095  -0.70386  -0.66034  -0.64905
 Alpha  occ. eigenvalues --   -0.64668  -0.62036  -0.61811  -0.60192  -0.58458
 Alpha  occ. eigenvalues --   -0.56108  -0.55167  -0.53545  -0.53260  -0.52985
 Alpha  occ. eigenvalues --   -0.52735  -0.50780  -0.48860  -0.48725  -0.48657
 Alpha  occ. eigenvalues --   -0.47580  -0.46704  -0.46673  -0.44737  -0.44685
 Alpha  occ. eigenvalues --   -0.37236  -0.36245
 Alpha virt. eigenvalues --    0.05140   0.11349   0.16620   0.19775   0.22538
 Alpha virt. eigenvalues --    0.23560   0.24532   0.25173   0.26921   0.27982
 Alpha virt. eigenvalues --    0.29093   0.30405   0.31094   0.31247   0.31642

 Mulliken charges:
               1
     1  C   -0.174798
     2  C   -0.218379
     3  C   -0.171610
     4  C    0.158827
     5  C   -0.173284
     6  C   -0.221800
     7  H    0.225199
     8  H    0.222850
     9  H    0.275126
    10  H    0.275069
    11  H    0.233679
    12  N    0.488051
    13  O   -0.460678
    14  O   -0.460738
    15  C   -0.301238
    16  C   -0.300020
    17  C   -0.476526
    18  H    0.149012
    19  H    0.145570
    20  H    0.154670
    21  H    0.153483
    22  H    0.155361
    23  H    0.156470
    24  H    0.163127
    25  C   -0.297689
    26  C   -0.305306
    27  C   -0.476157
    28  H    0.154231
    29  H    0.151909
    30  H    0.152630
    31  H    0.143010
    32  H    0.156546
    33  H    0.159918
    34  H    0.163487
 Sum of Mulliken charges =  -0.00000

 Dipole moment (field-independent basis, Debye):
    X=             -4.3154    Y=              2.3034    Z=              2.3320  Tot=              5.4190
 Quadrupole moment (field-independent basis, Debye-Ang):
   XX=           -118.0003   YY=            -95.7011   ZZ=            -92.3121
   XY=              9.8712   XZ=              9.9408   YZ=              1.8718

 Normal termination of Gaussian 16 at Wed May  5 22:24:33 2021.
