 Gaussian 16, Revision A.03,
 Gaussian 16:  EM64L-G16RevA.03 25-Dec-2016

 -------------
 #p 6-31g* mp2
 -------------

 ------------------------------------------------------
 Input file generated by CHIRIPA (05-May-2021 14:51:08)
 ------------------------------------------------------
 Symbolic Z-matrix:
 Charge =  0 Multiplicity = 1

                         Standard orientation:
 ---------------------------------------------------------------------
 Center     Atomic      Atomic             Coordinates (Angstroms)
 Number     Number       Type             X           Y           Z
 ---------------------------------------------------------------------
      1          6           0       -2.890891   -0.122561   -0.221345
      2          6           0       -2.850665   -1.050777   -1.435751
      3          6           0       -3.603772   -2.361009   -1.203552
      4          1           0       -2.462893   -0.644500    0.645456
      5          1           0       -3.938069    0.095029    0.030579
      6          1           0       -1.803845   -1.265441   -1.686157
      7          1           0       -3.278633   -0.526500   -2.299808
      8          1           0       -4.656538   -2.165073   -0.975749
      9          1           0       -3.173370   -2.908213   -0.358612
     10          1           0       -3.562222   -3.009462   -2.084258
     11          6           0       -2.142359    1.191385   -0.438076
     12          6           0       -2.182584    2.119601    0.776331
     13          6           0       -1.429477    3.429833    0.544131
     14          1           0       -1.095180    0.973795   -0.690000
     15          1           0       -2.570356    1.713324   -1.304876
     16          1           0       -1.754617    1.595324    1.640387
     17          1           0       -3.229405    2.334265    1.026736
     18          1           0       -1.859879    3.977037   -0.300808
     19          1           0       -0.376712    3.233897    0.316329
     20          1           0       -1.471027    4.078286    1.424837
     21          6           0        2.289941   -0.742006    1.028961
     22          6           0        0.848790   -1.251051    1.073006
     23          6           0        0.409886   -1.662529    2.478653
     24          1           0        2.960351   -1.524722    1.409553
     25          1           0        2.390092    0.113958    1.710644
     26          1           0        0.751050   -2.104933    0.390400
     27          1           0        0.181753   -0.467103    0.692085
     28          1           0        0.478909   -0.814410    3.167514
     29          1           0        1.051441   -2.461545    2.864115
     30          1           0       -0.623395   -2.023248    2.487116
     31          6           0        2.743308   -0.326818   -0.369540
     32          6           0        4.184459    0.182228   -0.413585
     33          6           0        4.623363    0.593705   -1.819232
     34          1           0        2.643157   -1.182781   -1.051223
     35          1           0        2.072897    0.455899   -0.750133
     36          1           0        4.851496   -0.601721   -0.032665
     37          1           0        4.282200    1.036109    0.269020
     38          1           0        3.981808    1.392721   -2.204694
     39          1           0        4.554340   -0.254414   -2.508093
     40          1           0        5.656644    0.954424   -1.827695
 ---------------------------------------------------------------------

 SCF Done:  E(RHF) =  -470.733000433     A.U. after   11 cycles
 E2 =    -0.1584520122D+01 EUMP2 =    -0.47231752055518D+03

 The electronic state is 1-A.
 Alpha  occ. eigenvalues --  -11.21650 -11.21648 -11.21639 -11.21571 -11.21474
 Alpha  occ. eigenvalues --  -11.21414 -11.21408 -11.21340 -11.21164 -11.21123
 Alpha  occ. eigenvalues --  -11.21101 -11.21058  -1.08531  -1.08413  -1.03594
 Alpha  occ. eigenvalues --   -1.03540  -0.96053  -0.95986  -0.87061  -0.87007
 Alpha  occ. eigenvalues --   -0.79673  -0.79594  -0.78339  -0.78235  -0.65424
 Alpha  occ. eigenvalues --   -0.64854  -0.61059  -0.60857  -0.59408  -0.59358
 Alpha  occ. eigenvalues --   -0.57675  -0.57584  -0.55391  -0.55223  -0.52738
 Alpha  occ. eigenvalues --   -0.52686  -0.52474  -0.52411  -0.50009  -0.49914
 Alpha  occ. eigenvalues --   -0.47984  -0.47921  -0.46801  -0.46563  -0.46114
 Alpha  occ. eigenvalues --   -0.45795  -0.45734  -0.45375  -0.43848  -0.43791
 Alpha virt. eigenvalues --    0.19407   0.22314   0.23820   0.24211   0.25281
 Alpha virt. eigenvalues --    0.26297   0.26970   0.27681   0.29444   0.29785
 Alpha virt. eigenvalues --    0.30231   0.31152   0.31667   0.31992   0.32125

 Mulliken charges:
               1
     1  C   -0.302050
     2  C   -0.300258
     3  C   -0.475749
     4  H    0.153648
     5  H    0.149785
     6  H    0.153529
     7  H    0.151708
     8  H    0.155051
     9  H    0.154952
    10  H    0.160173
    11  C   -0.303144
    12  C   -0.301275
    13  C   -0.475506
    14  H    0.151497
    15  H    0.150958
    16  H    0.152758
    17  H    0.152573
    18  H    0.155561
    19  H    0.154123
    20  H    0.160466
    21  C   -0.297747
    22  C   -0.310140
    23  C   -0.477049
    24  H    0.149987
    25  H    0.149539
    26  H    0.152003
    27  H    0.162987
    28  H    0.155390
    29  H    0.155858
    30  H    0.160688
    31  C   -0.299638
    32  C   -0.299702
    33  C   -0.475806
    34  H    0.149757
    35  H    0.149582
    36  H    0.152253
    37  H    0.152112
    38  H    0.155379
    39  H    0.155276
    40  H    0.160469
 Sum of Mulliken charges =  -0.00000

 Dipole moment (field-independent basis, Debye):
    X=              0.0114    Y=             -0.0029    Z=              0.0027  Tot=              0.0121
 Quadrupole moment (field-independent basis, Debye-Ang):
   XX=            -84.3569   YY=            -84.7931   ZZ=            -85.5365
   XY=             -1.3909   XZ=              0.6881   YZ=              0.3505

 Normal termination of Gaussian 16 at Wed May  5 22:54:41 2021.
