 Gaussian 16, Revision A.03,
 Gaussian 16:  EM64L-G16RevA.03 25-Dec-2016

 -------------
 #p 6-31g* mp2
 -------------

 ------------------------------------------------------
 Input file generated by CHIRIPA (05-May-2021 14:53:11)
 ------------------------------------------------------
 Symbolic Z-matrix:
 Charge =  0 Multiplicity = 1

                         Standard orientation:
 ---------------------------------------------------------------------
 Center     Atomic      Atomic             Coordinates (Angstroms)
 Number     Number       Type             X           Y           Z
 ---------------------------------------------------------------------
      1          6           0        3.524653    0.472620   -0.010641
      2          6           0        3.381406    1.989701   -0.136854
      3          6           0        1.968438    2.478695    0.182837
      4          1           0        2.805564   -0.014423   -0.683430
      5          1           0        3.252808    0.169294    1.009893
      6          1           0        3.654770    2.290232   -1.156447
      7          1           0        4.101051    2.473189    0.536172
      8          1           0        1.689153    2.207300    1.206041
      9          1           0        1.240336    2.023303   -0.496196
     10          1           0        1.888469    3.565969    0.086398
     11          6           0        4.931595   -0.031452   -0.327114
     12          6           0        5.074843   -1.548533   -0.200900
     13          6           0        6.487810   -2.037527   -0.520592
     14          1           0        5.203440    0.271873   -1.347648
     15          1           0        5.650684    0.455591    0.345675
     16          1           0        4.355197   -2.032021   -0.873927
     17          1           0        4.801478   -1.849065    0.818692
     18          1           0        7.215912   -1.582136    0.158441
     19          1           0        6.767095   -1.766132   -1.543795
     20          1           0        6.567779   -3.124801   -0.424153
     21          6           0       -5.505732   -0.633863   -1.009055
     22          6           0       -4.960210   -1.577541   -0.132471
     23          6           0       -3.740481   -1.332433    0.505284
     24          6           0       -3.090291   -0.127712    0.242242
     25          6           0       -3.608103    0.832256   -0.625872
     26          6           0       -4.829131    0.565908   -1.252529
     27          1           0       -6.453751   -0.832520   -1.500168
     28          1           0       -5.483455   -2.510164    0.058505
     29          1           0       -3.295474   -2.045562    1.188537
     30          1           0       -3.063189    1.752821   -0.796306
     31          1           0       -5.250413    1.300608   -1.932810
     32          7           0       -1.798332    0.143016    0.911531
     33          8           0       -1.245199    1.212077    0.662953
     34          8           0       -1.363290   -0.718974    1.672022
 ---------------------------------------------------------------------

 SCF Done:  E(RHF) =  -669.535514856     A.U. after   15 cycles
 E2 =    -0.2091031044D+01 EUMP2 =    -0.67162654589987D+03

 The electronic state is 1-A.
 Alpha  occ. eigenvalues --  -20.60879 -20.60871 -15.85911 -11.31264 -11.27831
 Alpha  occ. eigenvalues --  -11.27828 -11.27573 -11.26845 -11.26835 -11.20858
 Alpha  occ. eigenvalues --  -11.20507 -11.20481 -11.20340 -11.20211 -11.19291
 Alpha  occ. eigenvalues --   -1.59944  -1.39499  -1.19436  -1.08835  -1.07418
 Alpha  occ. eigenvalues --   -1.04836  -1.02462  -0.95676  -0.94878  -0.86236
 Alpha  occ. eigenvalues --   -0.85886  -0.82504  -0.78554  -0.77554  -0.77175
 Alpha  occ. eigenvalues --   -0.72130  -0.71263  -0.70544  -0.65090  -0.64839
 Alpha  occ. eigenvalues --   -0.64063  -0.62183  -0.59869  -0.58329  -0.56486
 Alpha  occ. eigenvalues --   -0.55339  -0.54165  -0.53168  -0.52929  -0.51602
 Alpha  occ. eigenvalues --   -0.51292  -0.48912  -0.48894  -0.48789  -0.46797
 Alpha  occ. eigenvalues --   -0.45625  -0.44951  -0.44647  -0.44590  -0.42733
 Alpha  occ. eigenvalues --   -0.37417  -0.36440
 Alpha virt. eigenvalues --    0.04960   0.11215   0.16439   0.21345   0.23799
 Alpha virt. eigenvalues --    0.25410   0.27260   0.27642   0.28152   0.28494
 Alpha virt. eigenvalues --    0.29231   0.30912   0.32320   0.32577   0.32723

 Mulliken charges:
               1
     1  C   -0.296550
     2  C   -0.301275
     3  C   -0.471280
     4  H    0.148694
     5  H    0.154752
     6  H    0.144899
     7  H    0.146868
     8  H    0.166595
     9  H    0.162314
    10  H    0.149549
    11  C   -0.297571
    12  C   -0.298814
    13  C   -0.475099
    14  H    0.146255
    15  H    0.147721
    16  H    0.150655
    17  H    0.153109
    18  H    0.154260
    19  H    0.153406
    20  H    0.158066
    21  C   -0.170709
    22  C   -0.218568
    23  C   -0.170750
    24  C    0.157801
    25  C   -0.171059
    26  C   -0.218536
    27  H    0.225863
    28  H    0.223699
    29  H    0.275797
    30  H    0.275844
    31  H    0.223731
    32  N    0.489920
    33  O   -0.459770
    34  O   -0.459818
 Sum of Mulliken charges =  -0.00000

 Dipole moment (field-independent basis, Debye):
    X=             -4.8907    Y=             -0.9875    Z=             -2.2509  Tot=              5.4736
 Quadrupole moment (field-independent basis, Debye-Ang):
   XX=            -69.5506   YY=            -91.4908   ZZ=            -94.5666
   XY=              4.2344   XZ=              7.0860   YZ=             -2.2363

 Normal termination of Gaussian 16 at Wed May  5 23:18:49 2021.
