 Gaussian 16, Revision A.03,
 Gaussian 16:  EM64L-G16RevA.03 25-Dec-2016

 -------------
 #p 6-31g* mp2
 -------------

 ------------------------------------------------------
 Input file generated by CHIRIPA (05-May-2021 14:53:17)
 ------------------------------------------------------
 Symbolic Z-matrix:
 Charge =  0 Multiplicity = 1

                         Standard orientation:
 ---------------------------------------------------------------------
 Center     Atomic      Atomic             Coordinates (Angstroms)
 Number     Number       Type             X           Y           Z
 ---------------------------------------------------------------------
      1          6           0       -4.578105    0.031149   -0.470031
      2          6           0       -5.384472   -0.671045    0.622983
      3          6           0       -6.576000   -1.452656    0.068780
      4          1           0       -5.238871    0.711532   -1.024479
      5          1           0       -4.223079   -0.717173   -1.192088
      6          1           0       -5.736705    0.078210    1.343514
      7          1           0       -4.721667   -1.349692    1.175017
      8          1           0       -6.239152   -2.221035   -0.634589
      9          1           0       -7.259958   -0.785019   -0.465135
     10          1           0       -7.138445   -1.946689    0.867182
     11          6           0       -3.383641    0.816713    0.068369
     12          6           0       -2.577273    1.518906   -1.024645
     13          6           0       -1.385746    2.300517   -0.470442
     14          1           0       -3.738667    1.565034    0.790426
     15          1           0       -2.722875    0.136330    0.622817
     16          1           0       -3.240079    2.197554   -1.576680
     17          1           0       -2.225041    0.769652   -1.745177
     18          1           0       -0.701788    1.632881    0.063472
     19          1           0       -1.722594    3.068897    0.232927
     20          1           0       -0.823301    2.794551   -1.268844
     21          6           0        0.679189   -0.699822    0.723398
     22          6           0        1.294650   -1.480023   -0.260988
     23          6           0        2.640974   -1.284517   -0.583072
     24          6           0        3.345064   -0.295559    0.102132
     25          6           0        2.760054    0.497916    1.087754
     26          6           0        1.412563    0.284922    1.393445
     27          1           0       -0.367121   -0.858487    0.967232
     28          1           0        0.727562   -2.245512   -0.782985
     29          1           0        3.142316   -1.874281   -1.340868
     30          1           0        3.351268    1.253360    1.590936
     31          1           0        0.937194    0.892330    2.158380
     32          7           0        4.770975   -0.079329   -0.230167
     33          8           0        5.369404    0.798392    0.387997
     34          8           0        5.263176   -0.791662   -1.102495
 ---------------------------------------------------------------------

 SCF Done:  E(RHF) =  -669.534175376     A.U. after   15 cycles
 E2 =    -0.2093324597D+01 EUMP2 =    -0.67162749997262D+03

 The electronic state is 1-A.
 Alpha  occ. eigenvalues --  -20.60793 -20.60787 -15.85847 -11.31236 -11.27813
 Alpha  occ. eigenvalues --  -11.27798 -11.27546 -11.26829 -11.26809 -11.22365
 Alpha  occ. eigenvalues --  -11.22327 -11.22297 -11.22151 -11.21672 -11.21582
 Alpha  occ. eigenvalues --   -1.59868  -1.39420  -1.19421  -1.09230  -1.08817
 Alpha  occ. eigenvalues --   -1.04825  -1.04227  -0.96678  -0.95645  -0.87694
 Alpha  occ. eigenvalues --   -0.86224  -0.82472  -0.80296  -0.79062  -0.77507
 Alpha  occ. eigenvalues --   -0.72066  -0.71191  -0.70562  -0.65876  -0.65076
 Alpha  occ. eigenvalues --   -0.64824  -0.62172  -0.61632  -0.60038  -0.58298
 Alpha  occ. eigenvalues --   -0.56040  -0.55339  -0.53385  -0.53299  -0.52936
 Alpha  occ. eigenvalues --   -0.52875  -0.50599  -0.48826  -0.48819  -0.48599
 Alpha  occ. eigenvalues --   -0.47336  -0.46592  -0.46517  -0.44821  -0.44508
 Alpha  occ. eigenvalues --   -0.37317  -0.36400
 Alpha virt. eigenvalues --    0.04994   0.11121   0.16380   0.19443   0.22644
 Alpha virt. eigenvalues --    0.23986   0.24984   0.26373   0.26750   0.27972
 Alpha virt. eigenvalues --    0.29382   0.30545   0.31052   0.31323   0.31934

 Mulliken charges:
               1
     1  C   -0.298281
     2  C   -0.299586
     3  C   -0.476027
     4  H    0.153428
     5  H    0.148697
     6  H    0.153553
     7  H    0.148412
     8  H    0.155321
     9  H    0.157116
    10  H    0.161962
    11  C   -0.300027
    12  C   -0.299979
    13  C   -0.483108
    14  H    0.152646
    15  H    0.137934
    16  H    0.155641
    17  H    0.151140
    18  H    0.158023
    19  H    0.153654
    20  H    0.164825
    21  C   -0.174581
    22  C   -0.220262
    23  C   -0.170532
    24  C    0.158444
    25  C   -0.170908
    26  C   -0.219359
    27  H    0.233095
    28  H    0.223722
    29  H    0.275861
    30  H    0.276123
    31  H    0.225472
    32  N    0.488028
    33  O   -0.460129
    34  O   -0.460317
 Sum of Mulliken charges =  -0.00000

 Dipole moment (field-independent basis, Debye):
    X=             -5.0818    Y=             -0.7314    Z=              1.1238  Tot=              5.2557
 Quadrupole moment (field-independent basis, Debye-Ang):
   XX=           -128.7801   YY=            -91.6477   ZZ=            -92.6288
   XY=             -1.9585   XZ=              3.5076   YZ=              2.3727

 Normal termination of Gaussian 16 at Wed May  5 18:48:04 2021.
