 Gaussian 16, Revision A.03,
 Gaussian 16:  EM64L-G16RevA.03 25-Dec-2016

 -------------
 #p 6-31g* mp2
 -------------

 ------------------------------------------------------
 Input file generated by CHIRIPA (05-May-2021 14:57:25)
 ------------------------------------------------------
 Symbolic Z-matrix:
 Charge =  0 Multiplicity = 1

                         Standard orientation:
 ---------------------------------------------------------------------
 Center     Atomic      Atomic             Coordinates (Angstroms)
 Number     Number       Type             X           Y           Z
 ---------------------------------------------------------------------
      1          6           0        4.455534    1.655304   -1.182706
      2          6           0        3.435485    0.918248   -1.793255
      3          6           0        2.740959   -0.061210   -1.077124
      4          6           0        3.094141   -0.278434    0.253803
      5          6           0        4.105633    0.439413    0.890097
      6          6           0        4.786769    1.413959    0.154664
      7          1           0        4.989857    2.414262   -1.746511
      8          1           0        3.176101    1.103531   -2.831732
      9          1           0        1.947028   -0.646372   -1.525094
     10          1           0        4.341624    0.232072    1.926792
     11          1           0        5.578508    1.984840    0.631412
     12          7           0        2.365966   -1.312742    1.022156
     13          8           0        2.696179   -1.485000    2.193448
     14          8           0        1.478796   -1.931590    0.438552
     15          6           0       -4.091359    2.275696    0.820135
     16          6           0       -4.956309    1.192326    0.633877
     17          6           0       -4.481245   -0.013555    0.109748
     18          6           0       -3.129349   -0.101601   -0.218751
     19          6           0       -2.242637    0.959910   -0.044891
     20          6           0       -2.739666    2.156240    0.480756
     21          1           0       -4.468931    3.208744    1.227881
     22          1           0       -6.006530    1.282233    0.896553
     23          1           0       -5.128855   -0.868037   -0.044782
     24          1           0       -1.200766    0.840105   -0.316127
     25          1           0       -2.065628    2.995946    0.624323
     26          7           0       -2.614793   -1.373158   -0.774426
     27          8           0       -1.419513   -1.425244   -1.055908
     28          8           0       -3.416506   -2.293642   -0.917960
 ---------------------------------------------------------------------

 SCF Done:  E(RHF) =  -868.336568281     A.U. after   16 cycles
 E2 =    -0.2600530110D+01 EUMP2 =    -0.87093709839099D+03

 The electronic state is 1-A.
 Alpha  occ. eigenvalues --  -20.60255 -20.60249 -20.60181 -20.60139 -15.85270
 Alpha  occ. eigenvalues --  -15.85237 -11.30870 -11.30831 -11.27501 -11.27444
 Alpha  occ. eigenvalues --  -11.27415 -11.27379 -11.27282 -11.27213 -11.26568
 Alpha  occ. eigenvalues --  -11.26518 -11.26503 -11.26477  -1.59287  -1.59278
 Alpha  occ. eigenvalues --   -1.38843  -1.38803  -1.19075  -1.19022  -1.08430
 Alpha  occ. eigenvalues --   -1.08382  -1.04501  -1.04461  -0.95228  -0.95166
 Alpha  occ. eigenvalues --   -0.85884  -0.85850  -0.82079  -0.81960  -0.77113
 Alpha  occ. eigenvalues --   -0.76940  -0.71614  -0.71314  -0.70661  -0.70559
 Alpha  occ. eigenvalues --   -0.70161  -0.70134  -0.64721  -0.64662  -0.64498
 Alpha  occ. eigenvalues --   -0.64471  -0.61835  -0.61794  -0.55003  -0.54962
 Alpha  occ. eigenvalues --   -0.52848  -0.52771  -0.52583  -0.52558  -0.48296
 Alpha  occ. eigenvalues --   -0.48280  -0.48235  -0.48131  -0.44343  -0.43984
 Alpha  occ. eigenvalues --   -0.37095  -0.37009  -0.36133  -0.36071
 Alpha virt. eigenvalues --    0.05391   0.05605   0.11478   0.11582   0.16839
 Alpha virt. eigenvalues --    0.17052   0.21419   0.21833   0.27114   0.27671
 Alpha virt. eigenvalues --    0.28129   0.28948   0.30712   0.31446   0.32246

 Mulliken charges:
               1
     1  C   -0.172101
     2  C   -0.220453
     3  C   -0.178681
     4  C    0.155697
     5  C   -0.172292
     6  C   -0.219257
     7  H    0.223826
     8  H    0.223463
     9  H    0.289881
    10  H    0.274652
    11  H    0.221728
    12  N    0.485216
    13  O   -0.466292
    14  O   -0.445261
    15  C   -0.171308
    16  C   -0.218393
    17  C   -0.170871
    18  C    0.160275
    19  C   -0.169109
    20  C   -0.218324
    21  H    0.223990
    22  H    0.222474
    23  H    0.275661
    24  H    0.272175
    25  H    0.220918
    26  N    0.489766
    27  O   -0.455362
    28  O   -0.462020
 Sum of Mulliken charges =  -0.00000

 Dipole moment (field-independent basis, Debye):
    X=              0.6564    Y=              7.8703    Z=             -0.8316  Tot=              7.9413
 Quadrupole moment (field-independent basis, Debye-Ang):
   XX=            -73.4990   YY=           -108.0663   ZZ=           -105.1111
   XY=             -0.5837   XZ=            -11.6650   YZ=              1.4637

 Normal termination of Gaussian 16 at Fri May  7 03:30:08 2021.
