 Gaussian 16, Revision A.03,
 Gaussian 16:  EM64L-G16RevA.03 25-Dec-2016

 -------------
 #p 6-31g* mp2
 -------------

 ------------------------------------------------------
 Input file generated by CHIRIPA (05-May-2021 14:53:18)
 ------------------------------------------------------
 Symbolic Z-matrix:
 Charge =  0 Multiplicity = 1

                         Standard orientation:
 ---------------------------------------------------------------------
 Center     Atomic      Atomic             Coordinates (Angstroms)
 Number     Number       Type             X           Y           Z
 ---------------------------------------------------------------------
      1          6           0        2.582225    1.318323   -0.630911
      2          6           0        1.158508    1.857966   -0.490194
      3          6           0        0.922049    3.123997   -1.314236
      4          1           0        3.294448    2.096151   -0.323233
      5          1           0        2.784996    1.110368   -1.690644
      6          1           0        0.958006    2.063537    0.569124
      7          1           0        0.449584    1.078697   -0.798061
      8          1           0        1.094982    2.929392   -2.377638
      9          1           0        1.606292    3.919828   -1.002684
     10          1           0       -0.102005    3.492620   -1.198950
     11          6           0        2.834046    0.052880    0.186994
     12          6           0        4.257763   -0.486763    0.046276
     13          6           0        4.494222   -1.752794    0.870318
     14          1           0        2.631274    0.260835    1.246726
     15          1           0        2.121822   -0.724948   -0.120685
     16          1           0        4.966687    0.292506    0.354144
     17          1           0        4.458265   -0.692334   -1.013042
     18          1           0        3.809978   -2.548625    0.558767
     19          1           0        4.321289   -1.558189    1.933720
     20          1           0        5.518276   -2.121417    0.755032
     21          6           0       -2.841434    1.640457    1.224092
     22          6           0       -1.721374    0.963801    1.718181
     23          6           0       -1.310169   -0.242656    1.143797
     24          6           0       -2.045572   -0.746002    0.071829
     25          6           0       -3.165820   -0.095361   -0.442955
     26          6           0       -3.558818    1.109652    0.146999
     27          1           0       -3.153796    2.577100    1.676335
     28          1           0       -1.162334    1.373674    2.554557
     29          1           0       -0.446853   -0.787259    1.506442
     30          1           0       -3.702967   -0.528800   -1.277833
     31          1           0       -4.429069    1.632974   -0.238799
     32          7           0       -1.619885   -2.022459   -0.544488
     33          8           0       -2.284773   -2.444920   -1.487933
     34          8           0       -0.629405   -2.576316   -0.072443
 ---------------------------------------------------------------------

 SCF Done:  E(RHF) =  -669.534820946     A.U. after   15 cycles
 E2 =    -0.2094301019D+01 EUMP2 =    -0.67162912196470D+03

 The electronic state is 1-A.
 Alpha  occ. eigenvalues --  -20.60880 -20.60875 -15.85915 -11.31204 -11.27795
 Alpha  occ. eigenvalues --  -11.27750 -11.27534 -11.26790 -11.26755 -11.21638
 Alpha  occ. eigenvalues --  -11.21397 -11.21337 -11.21235 -11.21213 -11.20749
 Alpha  occ. eigenvalues --   -1.59945  -1.39499  -1.19399  -1.08803  -1.08363
 Alpha  occ. eigenvalues --   -1.04792  -1.03447  -0.95898  -0.95645  -0.86917
 Alpha  occ. eigenvalues --   -0.86192  -0.82479  -0.79542  -0.78214  -0.77503
 Alpha  occ. eigenvalues --   -0.72133  -0.71265  -0.70503  -0.65080  -0.64975
 Alpha  occ. eigenvalues --   -0.64772  -0.62137  -0.60847  -0.59312  -0.57526
 Alpha  occ. eigenvalues --   -0.55297  -0.55176  -0.53209  -0.52886  -0.52562
 Alpha  occ. eigenvalues --   -0.52305  -0.49835  -0.48894  -0.48888  -0.47823
 Alpha  occ. eigenvalues --   -0.46570  -0.45740  -0.45654  -0.44839  -0.43709
 Alpha  occ. eigenvalues --   -0.37363  -0.36264
 Alpha virt. eigenvalues --    0.04977   0.11165   0.16392   0.20826   0.23026
 Alpha virt. eigenvalues --    0.24301   0.25692   0.26504   0.27829   0.28068
 Alpha virt. eigenvalues --    0.29358   0.30458   0.31592   0.31701   0.32005

 Mulliken charges:
               1
     1  C   -0.297765
     2  C   -0.298988
     3  C   -0.475603
     4  H    0.147630
     5  H    0.151957
     6  H    0.142711
     7  H    0.156668
     8  H    0.157314
     9  H    0.153811
    10  H    0.156683
    11  C   -0.305933
    12  C   -0.298826
    13  C   -0.477479
    14  H    0.140082
    15  H    0.163902
    16  H    0.149502
    17  H    0.154069
    18  H    0.163900
    19  H    0.151566
    20  H    0.159530
    21  C   -0.171766
    22  C   -0.213970
    23  C   -0.169534
    24  C    0.157623
    25  C   -0.171689
    26  C   -0.218694
    27  H    0.225776
    28  H    0.223124
    29  H    0.278401
    30  H    0.275563
    31  H    0.223506
    32  N    0.487981
    33  O   -0.459687
    34  O   -0.461364
 Sum of Mulliken charges =  -0.00000

 Dipole moment (field-independent basis, Debye):
    X=             -1.5591    Y=              4.3648    Z=              2.1095  Tot=              5.0924
 Quadrupole moment (field-independent basis, Debye-Ang):
   XX=            -86.2234   YY=           -102.8551   ZZ=            -92.4718
   XY=             -8.3694   XZ=             -1.9857   YZ=             -0.4812

 Normal termination of Gaussian 16 at Wed May  5 15:48:03 2021.
