 Gaussian 16, Revision A.03,
 Gaussian 16:  EM64L-G16RevA.03 25-Dec-2016

 -------------
 #p 6-31g* mp2
 -------------

 ------------------------------------------------------
 Input file generated by CHIRIPA (05-May-2021 14:55:21)
 ------------------------------------------------------
 Symbolic Z-matrix:
 Charge =  0 Multiplicity = 1

                         Standard orientation:
 ---------------------------------------------------------------------
 Center     Atomic      Atomic             Coordinates (Angstroms)
 Number     Number       Type             X           Y           Z
 ---------------------------------------------------------------------
      1          6           0       -2.100903    2.685108   -0.278887
      2          6           0       -1.281842    1.554588   -0.365971
      3          6           0       -1.821287    0.273662   -0.215058
      4          6           0       -3.190072    0.159468    0.023015
      5          6           0       -4.032182    1.266564    0.115101
      6          6           0       -3.471043    2.537748   -0.039052
      7          1           0       -1.673423    3.676378   -0.397378
      8          1           0       -0.217432    1.666012   -0.552148
      9          1           0       -1.210191   -0.618552   -0.277779
     10          1           0       -5.089652    1.123695    0.301551
     11          1           0       -4.109547    3.413942    0.029071
     12          7           0       -3.772641   -1.191434    0.184495
     13          8           0       -4.981570   -1.265194    0.393512
     14          8           0       -3.009300   -2.150931    0.098988
     15          6           0        4.544558   -0.097291   -0.293160
     16          6           0        5.252869    0.800283    0.722046
     17          6           0        6.419272    1.577650    0.111311
     18          1           0        5.271745   -0.800757   -0.721272
     19          1           0        4.179215    0.519834   -1.125672
     20          1           0        5.615557    0.181839    1.553070
     21          1           0        4.523871    1.501567    1.147932
     22          1           0        6.069922    2.218376   -0.704792
     23          1           0        7.167812    0.891150   -0.297352
     24          1           0        6.911334    2.212827    0.854472
     25          6           0        3.376229   -0.880920    0.302373
     26          6           0        2.667918   -1.778493   -0.712833
     27          6           0        1.501514   -2.555861   -0.102098
     28          1           0        3.741572   -1.498044    1.134885
     29          1           0        2.649042   -0.177453    0.730485
     30          1           0        3.396916   -2.479777   -1.138718
     31          1           0        2.305230   -1.160049   -1.543857
     32          1           0        0.752975   -1.869360    0.306566
     33          1           0        1.850865   -3.196587    0.714006
     34          1           0        1.009453   -3.191037   -0.845259
 ---------------------------------------------------------------------

 SCF Done:  E(RHF) =  -669.535407831     A.U. after   15 cycles
 E2 =    -0.2091207719D+01 EUMP2 =    -0.67162661555007D+03

 The electronic state is 1-A.
 Alpha  occ. eigenvalues --  -20.60741 -20.60735 -15.85793 -11.31172 -11.27750
 Alpha  occ. eigenvalues --  -11.27726 -11.27503 -11.26775 -11.26766 -11.22012
 Alpha  occ. eigenvalues --  -11.22002 -11.21860 -11.21797 -11.21439 -11.21340
 Alpha  occ. eigenvalues --   -1.59816  -1.39368  -1.19352  -1.08862  -1.08746
 Alpha  occ. eigenvalues --   -1.04761  -1.03917  -0.96353  -0.95576  -0.87361
 Alpha  occ. eigenvalues --   -0.86157  -0.82409  -0.79970  -0.78673  -0.77453
 Alpha  occ. eigenvalues --   -0.72012  -0.71139  -0.70472  -0.65516  -0.65005
 Alpha  occ. eigenvalues --   -0.64774  -0.62170  -0.61282  -0.59705  -0.57954
 Alpha  occ. eigenvalues --   -0.55695  -0.55237  -0.53088  -0.53019  -0.52911
 Alpha  occ. eigenvalues --   -0.52692  -0.50289  -0.48774  -0.48765  -0.48277
 Alpha  occ. eigenvalues --   -0.47025  -0.46206  -0.46154  -0.44770  -0.44164
 Alpha  occ. eigenvalues --   -0.37337  -0.36363
 Alpha virt. eigenvalues --    0.05073   0.11274   0.16562   0.19416   0.22761
 Alpha virt. eigenvalues --    0.23697   0.25719   0.26318   0.27047   0.28182
 Alpha virt. eigenvalues --    0.29277   0.30692   0.31389   0.31546   0.31786

 Mulliken charges:
               1
     1  C   -0.170599
     2  C   -0.222111
     3  C   -0.180502
     4  C    0.158487
     5  C   -0.170157
     6  C   -0.218881
     7  H    0.225521
     8  H    0.223244
     9  H    0.288914
    10  H    0.275651
    11  H    0.223446
    12  N    0.486858
    13  O   -0.460559
    14  O   -0.459937
    15  C   -0.298110
    16  C   -0.299501
    17  C   -0.475774
    18  H    0.152135
    19  H    0.146512
    20  H    0.153979
    21  H    0.149510
    22  H    0.154040
    23  H    0.156686
    24  H    0.161164
    25  C   -0.297800
    26  C   -0.301645
    27  C   -0.478466
    28  H    0.153186
    29  H    0.143470
    30  H    0.155532
    31  H    0.146973
    32  H    0.149688
    33  H    0.160554
    34  H    0.168498
 Sum of Mulliken charges =  -0.00000

 Dipole moment (field-independent basis, Debye):
    X=              2.1507    Y=              4.6233    Z=             -0.5545  Tot=              5.1292
 Quadrupole moment (field-independent basis, Debye-Ang):
   XX=           -103.7784   YY=            -92.2096   ZZ=            -95.6577
   XY=            -18.4752   XZ=              1.6526   YZ=              0.3308

 Normal termination of Gaussian 16 at Thu May  6 20:42:23 2021.
