 Gaussian 16, Revision A.03,
 Gaussian 16:  EM64L-G16RevA.03 25-Dec-2016

 -------------
 #p 6-31g* mp2
 -------------

 ------------------------------------------------------
 Input file generated by CHIRIPA (05-May-2021 14:55:20)
 ------------------------------------------------------
 Symbolic Z-matrix:
 Charge =  0 Multiplicity = 1

                         Standard orientation:
 ---------------------------------------------------------------------
 Center     Atomic      Atomic             Coordinates (Angstroms)
 Number     Number       Type             X           Y           Z
 ---------------------------------------------------------------------
      1          6           0        2.419424    2.334591    1.069687
      2          6           0        3.611310    1.844671    0.525711
      3          6           0        3.660548    0.568257   -0.042523
      4          6           0        2.493873   -0.194701   -0.049881
      5          6           0        1.291198    0.265396    0.484135
      6          6           0        1.265207    1.544782    1.047202
      7          1           0        2.390205    3.327294    1.509098
      8          1           0        4.509235    2.455832    0.541782
      9          1           0        4.569880    0.164252   -0.470675
     10          1           0        0.412377   -0.367179    0.453454
     11          1           0        0.338170    1.922668    1.468925
     12          7           0        2.533693   -1.547556   -0.648710
     13          8           0        1.492110   -2.200018   -0.642814
     14          8           0        3.605734   -1.929845   -1.112630
     15          6           0       -2.909987    0.542606   -0.479000
     16          6           0       -3.740776    1.820814   -0.360861
     17          6           0       -3.180467    2.969700   -1.199854
     18          1           0       -1.877162    0.754317   -0.170140
     19          1           0       -2.864744    0.239217   -1.534132
     20          1           0       -3.785594    2.120934    0.693907
     21          1           0       -4.771790    1.605988   -0.669857
     22          1           0       -3.151404    2.694647   -2.259147
     23          1           0       -2.159605    3.212518   -0.887635
     24          1           0       -3.789633    3.873541   -1.100622
     25          6           0       -3.457527   -0.614968    0.354038
     26          6           0       -2.626737   -1.893176    0.235900
     27          6           0       -3.187046   -3.042062    1.074892
     28          1           0       -3.502770   -0.311580    1.409170
     29          1           0       -4.490352   -0.826679    0.045178
     30          1           0       -1.595724   -1.678350    0.544894
     31          1           0       -2.581918   -2.193296   -0.818869
     32          1           0       -4.207908   -3.284880    0.762673
     33          1           0       -3.216110   -2.767010    2.134185
     34          1           0       -2.577879   -3.945903    0.975660
 ---------------------------------------------------------------------

 SCF Done:  E(RHF) =  -669.535260196     A.U. after   15 cycles
 E2 =    -0.2092643659D+01 EUMP2 =    -0.67162790385498D+03

 The electronic state is 1-A.
 Alpha  occ. eigenvalues --  -20.60768 -20.60762 -15.85818 -11.31185 -11.27768
 Alpha  occ. eigenvalues --  -11.27741 -11.27515 -11.26787 -11.26777 -11.22021
 Alpha  occ. eigenvalues --  -11.21809 -11.21608 -11.21546 -11.21497 -11.20919
 Alpha  occ. eigenvalues --   -1.59842  -1.39395  -1.19368  -1.08762  -1.08709
 Alpha  occ. eigenvalues --   -1.04776  -1.03717  -0.96178  -0.95596  -0.87193
 Alpha  occ. eigenvalues --   -0.86173  -0.82430  -0.79794  -0.78527  -0.77452
 Alpha  occ. eigenvalues --   -0.72038  -0.71163  -0.70489  -0.65401  -0.65016
 Alpha  occ. eigenvalues --   -0.64778  -0.62123  -0.61120  -0.59544  -0.57760
 Alpha  occ. eigenvalues --   -0.55493  -0.55279  -0.53102  -0.52924  -0.52793
 Alpha  occ. eigenvalues --   -0.52588  -0.50143  -0.48806  -0.48796  -0.48082
 Alpha  occ. eigenvalues --   -0.46859  -0.46013  -0.45938  -0.44798  -0.43992
 Alpha  occ. eigenvalues --   -0.37349  -0.36366
 Alpha virt. eigenvalues --    0.05037   0.11263   0.16444   0.19307   0.23027
 Alpha virt. eigenvalues --    0.23542   0.24895   0.26752   0.27593   0.27967
 Alpha virt. eigenvalues --    0.29102   0.31131   0.31503   0.31893   0.32072

 Mulliken charges:
               1
     1  C   -0.170222
     2  C   -0.219266
     3  C   -0.169330
     4  C    0.155513
     5  C   -0.179016
     6  C   -0.225037
     7  H    0.225780
     8  H    0.223577
     9  H    0.275754
    10  H    0.293722
    11  H    0.224229
    12  N    0.486619
    13  O   -0.461927
    14  O   -0.460274
    15  C   -0.300008
    16  C   -0.299924
    17  C   -0.475137
    18  H    0.139295
    19  H    0.155725
    20  H    0.148898
    21  H    0.155257
    22  H    0.158591
    23  H    0.150351
    24  H    0.161014
    25  C   -0.299602
    26  C   -0.305640
    27  C   -0.476004
    28  H    0.145911
    29  H    0.152044
    30  H    0.154963
    31  H    0.159613
    32  H    0.154570
    33  H    0.152164
    34  H    0.167795
 Sum of Mulliken charges =  -0.00000

 Dipole moment (field-independent basis, Debye):
    X=             -0.2058    Y=              4.6288    Z=              2.0025  Tot=              5.0476
 Quadrupole moment (field-independent basis, Debye-Ang):
   XX=            -90.1620   YY=            -97.6202   ZZ=            -95.1912
   XY=             12.9778   XZ=              5.0987   YZ=              0.0254

 Normal termination of Gaussian 16 at Wed May  5 17:24:54 2021.
