 Gaussian 16, Revision A.03,
 Gaussian 16:  EM64L-G16RevA.03 25-Dec-2016

 -------------
 #p 6-31g* mp2
 -------------

 ------------------------------------------------------
 Input file generated by CHIRIPA (05-May-2021 14:53:12)
 ------------------------------------------------------
 Symbolic Z-matrix:
 Charge =  0 Multiplicity = 1

                         Standard orientation:
 ---------------------------------------------------------------------
 Center     Atomic      Atomic             Coordinates (Angstroms)
 Number     Number       Type             X           Y           Z
 ---------------------------------------------------------------------
      1          6           0       -3.282040   -0.464331   -0.304107
      2          6           0       -2.775297   -1.704972    0.432103
      3          6           0       -1.394023   -2.153272   -0.046336
      4          1           0       -3.315922   -0.673737   -1.382043
      5          1           0       -2.562020    0.354342   -0.167215
      6          1           0       -3.496741   -2.520657    0.295014
      7          1           0       -2.742800   -1.492652    1.508430
      8          1           0       -0.656880   -1.358228    0.105738
      9          1           0       -1.415106   -2.392074   -1.114573
     10          1           0       -1.051069   -3.041621    0.493182
     11          6           0       -4.661712   -0.003965    0.163114
     12          6           0       -5.168456    1.236676   -0.573096
     13          6           0       -6.549730    1.684976   -0.094657
     14          1           0       -5.381733   -0.822638    0.026222
     15          1           0       -4.627831    0.205441    1.241050
     16          1           0       -5.200953    1.024356   -1.649423
     17          1           0       -4.447011    2.052361   -0.436007
     18          1           0       -6.528647    1.923777    0.973580
     19          1           0       -7.286872    0.889932   -0.246731
     20          1           0       -6.892683    2.573325   -0.634175
     21          6           0        3.626268    2.650331    0.118862
     22          6           0        4.150026    1.849849   -0.901642
     23          6           0        3.866735    0.481549   -0.946922
     24          6           0        3.052443   -0.055611    0.048909
     25          6           0        2.515628    0.715704    1.078566
     26          6           0        2.812176    2.081706    1.103971
     27          1           0        3.851484    3.712367    0.146317
     28          1           0        4.782555    2.288734   -1.668018
     29          1           0        4.258991   -0.161297   -1.725576
     30          1           0        1.888202    0.249573    1.828551
     31          1           0        2.404033    2.700945    1.897701
     32          7           0        2.745519   -1.502953    0.011493
     33          8           0        2.025501   -1.952022    0.900621
     34          8           0        3.230781   -2.160904   -0.906254
 ---------------------------------------------------------------------

 SCF Done:  E(RHF) =  -669.535675965     A.U. after   15 cycles
 E2 =    -0.2091276547D+01 EUMP2 =    -0.67162695251202D+03

 The electronic state is 1-A.
 Alpha  occ. eigenvalues --  -20.60865 -20.60838 -15.85875 -11.31250 -11.27819
 Alpha  occ. eigenvalues --  -11.27809 -11.27557 -11.26834 -11.26824 -11.21438
 Alpha  occ. eigenvalues --  -11.21108 -11.20980 -11.20958 -11.20904 -11.19952
 Alpha  occ. eigenvalues --   -1.59909  -1.39467  -1.19420  -1.08815  -1.08049
 Alpha  occ. eigenvalues --   -1.04823  -1.03056  -0.95657  -0.95467  -0.86482
 Alpha  occ. eigenvalues --   -0.86221  -0.82483  -0.79139  -0.77852  -0.77527
 Alpha  occ. eigenvalues --   -0.72105  -0.71226  -0.70527  -0.65076  -0.64826
 Alpha  occ. eigenvalues --   -0.64691  -0.62171  -0.60462  -0.58883  -0.57083
 Alpha  occ. eigenvalues --   -0.55324  -0.54775  -0.53152  -0.52916  -0.52111
 Alpha  occ. eigenvalues --   -0.51909  -0.49459  -0.48869  -0.48850  -0.47451
 Alpha  occ. eigenvalues --   -0.46240  -0.45427  -0.45346  -0.44690  -0.43281
 Alpha  occ. eigenvalues --   -0.37398  -0.36426
 Alpha virt. eigenvalues --    0.04989   0.11197   0.16458   0.21314   0.23180
 Alpha virt. eigenvalues --    0.24725   0.26859   0.27264   0.27765   0.28006
 Alpha virt. eigenvalues --    0.28751   0.30716   0.31698   0.32122   0.32511

 Mulliken charges:
               1
     1  C   -0.297016
     2  C   -0.301386
     3  C   -0.471329
     4  H    0.149311
     5  H    0.145099
     6  H    0.150050
     7  H    0.148930
     8  H    0.153493
     9  H    0.151399
    10  H    0.170952
    11  C   -0.297582
    12  C   -0.298948
    13  C   -0.475375
    14  H    0.149843
    15  H    0.148046
    16  H    0.151917
    17  H    0.149485
    18  H    0.154308
    19  H    0.155602
    20  H    0.158986
    21  C   -0.170735
    22  C   -0.218438
    23  C   -0.170838
    24  C    0.158655
    25  C   -0.172084
    26  C   -0.218440
    27  H    0.225828
    28  H    0.223721
    29  H    0.275856
    30  H    0.275809
    31  H    0.223604
    32  N    0.488074
    33  O   -0.457508
    34  O   -0.459289
 Sum of Mulliken charges =  -0.00000

 Dipole moment (field-independent basis, Debye):
    X=              1.2893    Y=              4.9986    Z=              0.1428  Tot=              5.1641
 Quadrupole moment (field-independent basis, Debye-Ang):
   XX=            -88.5704   YY=            -95.4646   ZZ=            -91.1849
   XY=             16.2463   XZ=             -1.7173   YZ=              0.9930

 Normal termination of Gaussian 16 at Thu May  6 04:07:13 2021.
