 Gaussian 16, Revision A.03,
 Gaussian 16:  EM64L-G16RevA.03 25-Dec-2016

 -------------
 #p 6-31g* mp2
 -------------

 ------------------------------------------------------
 Input file generated by CHIRIPA (05-May-2021 14:57:21)
 ------------------------------------------------------
 Symbolic Z-matrix:
 Charge =  0 Multiplicity = 1

                         Standard orientation:
 ---------------------------------------------------------------------
 Center     Atomic      Atomic             Coordinates (Angstroms)
 Number     Number       Type             X           Y           Z
 ---------------------------------------------------------------------
      1          6           0       -3.828849    2.060168   -0.526967
      2          6           0       -3.102225    1.968666    0.664740
      3          6           0       -2.547905    0.749714    1.066528
      4          6           0       -2.740560   -0.362678    0.248750
      5          6           0       -3.459464   -0.303487   -0.944130
      6          6           0       -4.004840    0.925799   -1.326189
      7          1           0       -4.255984    3.011093   -0.831423
      8          1           0       -2.963947    2.847984    1.287414
      9          1           0       -1.980921    0.650662    1.984207
     10          1           0       -3.580435   -1.197391   -1.543897
     11          1           0       -4.568679    0.993903   -2.252198
     12          7           0       -2.158461   -1.658598    0.663662
     13          8           0       -2.342434   -2.623963   -0.074484
     14          8           0       -1.529261   -1.684436    1.719161
     15          6           0        2.671714   -2.340140   -0.557836
     16          6           0        3.881659   -1.773516   -0.143723
     17          6           0        3.984500   -0.395496    0.068493
     18          6           0        2.852428    0.389744   -0.143876
     19          6           0        1.632970   -0.145068   -0.556416
     20          6           0        1.553204   -1.525544   -0.762500
     21          1           0        2.600788   -3.411573   -0.720309
     22          1           0        4.751944   -2.403703    0.016004
     23          1           0        4.908882    0.069399    0.389128
     24          1           0        0.782650    0.508826   -0.707400
     25          1           0        0.612253   -1.962843   -1.084101
     26          7           0        2.949086    1.849892    0.077541
     27          8           0        1.937190    2.520000   -0.116512
     28          8           0        4.034915    2.296600    0.440950
 ---------------------------------------------------------------------

 SCF Done:  E(RHF) =  -868.339944584     A.U. after   16 cycles
 E2 =    -0.2599728341D+01 EUMP2 =    -0.87093967292467D+03

 The electronic state is 1-A.
 Alpha  occ. eigenvalues --  -20.61491 -20.61436 -20.60548 -20.60526 -15.86475
 Alpha  occ. eigenvalues --  -15.85584 -11.31594 -11.30715 -11.28135 -11.28061
 Alpha  occ. eigenvalues --  -11.27744 -11.27256 -11.27237 -11.27061 -11.26971
 Alpha  occ. eigenvalues --  -11.26874 -11.26223 -11.26110  -1.60543  -1.59619
 Alpha  occ. eigenvalues --   -1.40095  -1.39180  -1.19722  -1.18843  -1.09157
 Alpha  occ. eigenvalues --   -1.08268  -1.05058  -1.04217  -0.96034  -0.95155
 Alpha  occ. eigenvalues --   -0.86468  -0.85614  -0.82860  -0.82006  -0.77952
 Alpha  occ. eigenvalues --   -0.77098  -0.72689  -0.71886  -0.71813  -0.70935
 Alpha  occ. eigenvalues --   -0.70788  -0.69940  -0.65353  -0.65031  -0.64496
 Alpha  occ. eigenvalues --   -0.64196  -0.62399  -0.61572  -0.55544  -0.54687
 Alpha  occ. eigenvalues --   -0.53433  -0.53126  -0.52541  -0.52289  -0.49475
 Alpha  occ. eigenvalues --   -0.49432  -0.48579  -0.48542  -0.45537  -0.44640
 Alpha  occ. eigenvalues --   -0.37680  -0.36777  -0.36645  -0.35793
 Alpha virt. eigenvalues --    0.04520   0.05426   0.10980   0.11874   0.16074
 Alpha virt. eigenvalues --    0.16995   0.21231   0.21940   0.27190   0.27433
 Alpha virt. eigenvalues --    0.28175   0.28816   0.30828   0.31571   0.32287

 Mulliken charges:
               1
     1  C   -0.169190
     2  C   -0.215295
     3  C   -0.171399
     4  C    0.151626
     5  C   -0.173970
     6  C   -0.218301
     7  H    0.229143
     8  H    0.229843
     9  H    0.278818
    10  H    0.273959
    11  H    0.224801
    12  N    0.485450
    13  O   -0.466450
    14  O   -0.454783
    15  C   -0.169484
    16  C   -0.218413
    17  C   -0.171912
    18  C    0.158139
    19  C   -0.173336
    20  C   -0.217018
    21  H    0.228692
    22  H    0.222146
    23  H    0.273332
    24  H    0.270344
    25  H    0.232185
    26  N    0.488322
    27  O   -0.465911
    28  O   -0.461339
 Sum of Mulliken charges =  -0.00000

 Dipole moment (field-independent basis, Debye):
    X=             -2.6009    Y=             -0.5482    Z=             -2.1393  Tot=              3.4120
 Quadrupole moment (field-independent basis, Debye-Ang):
   XX=            -90.7157   YY=           -111.9022   ZZ=           -102.5160
   XY=            -27.6569   XZ=              4.4611   YZ=              4.0519

 Normal termination of Gaussian 16 at Wed May  5 20:54:23 2021.
