 Gaussian 16, Revision A.03,
 Gaussian 16:  EM64L-G16RevA.03 25-Dec-2016

 -------------
 #p 6-31g* mp2
 -------------

 ------------------------------------------------------
 Input file generated by CHIRIPA (05-May-2021 14:57:21)
 ------------------------------------------------------
 Symbolic Z-matrix:
 Charge =  0 Multiplicity = 1

                         Standard orientation:
 ---------------------------------------------------------------------
 Center     Atomic      Atomic             Coordinates (Angstroms)
 Number     Number       Type             X           Y           Z
 ---------------------------------------------------------------------
      1          6           0       -2.971913    2.295496    1.261811
      2          6           0       -3.239084    2.294627   -0.111193
      3          6           0       -3.200577    1.102961   -0.841260
      4          6           0       -2.890051   -0.074860   -0.163321
      5          6           0       -2.619110   -0.106481    1.203750
      6          6           0       -2.663322    1.097052    1.913751
      7          1           0       -3.004043    3.225820    1.821150
      8          1           0       -3.479023    3.223854   -0.620125
      9          1           0       -3.403219    1.073623   -1.904977
     10          1           0       -2.382918   -1.048586    1.683405
     11          1           0       -2.455394    1.094723    2.979961
     12          7           0       -2.846264   -1.342705   -0.925588
     13          8           0       -2.570165   -2.367023   -0.304960
     14          8           0       -3.088873   -1.288118   -2.129249
     15          6           0        4.585936    1.545927   -0.794082
     16          6           0        5.012441    0.412550   -0.094032
     17          6           0        4.085644   -0.524938    0.371491
     18          6           0        2.734013   -0.296514    0.118102
     19          6           0        2.277891    0.822833   -0.576379
     20          6           0        3.222425    1.747096   -1.032601
     21          1           0        5.312783    2.269054   -1.152099
     22          1           0        6.070726    0.253731    0.092661
     23          1           0        4.388315   -1.411063    0.916091
     24          1           0        1.216246    0.953872   -0.747138
     25          1           0        2.888311    2.626379   -1.575992
     26          7           0        1.743465   -1.281990    0.606008
     27          8           0        0.558327   -1.057717    0.369815
     28          8           0        2.170968   -2.260021    1.215381
 ---------------------------------------------------------------------

 SCF Done:  E(RHF) =  -868.337514208     A.U. after   16 cycles
 E2 =    -0.2600990419D+01 EUMP2 =    -0.87093850462690D+03

 The electronic state is 1-A.
 Alpha  occ. eigenvalues --  -20.60776 -20.60764 -20.59724 -20.59604 -15.85824
 Alpha  occ. eigenvalues --  -15.84720 -11.31213 -11.30256 -11.27790 -11.27782
 Alpha  occ. eigenvalues --  -11.27546 -11.26997 -11.26820 -11.26804 -11.26785
 Alpha  occ. eigenvalues --  -11.26778 -11.26060 -11.25918  -1.59835  -1.58722
 Alpha  occ. eigenvalues --   -1.39394  -1.38271  -1.19391  -1.18496  -1.08782
 Alpha  occ. eigenvalues --   -1.07871  -1.04800  -1.03939  -0.95614  -0.94666
 Alpha  occ. eigenvalues --   -0.86198  -0.85329  -0.82454  -0.81507  -0.77496
 Alpha  occ. eigenvalues --   -0.76492  -0.72092  -0.71158  -0.70960  -0.70507
 Alpha  occ. eigenvalues --   -0.69978  -0.69637  -0.65049  -0.64807  -0.64160
 Alpha  occ. eigenvalues --   -0.63969  -0.62147  -0.61272  -0.55304  -0.54492
 Alpha  occ. eigenvalues --   -0.53128  -0.52896  -0.52259  -0.52045  -0.48800
 Alpha  occ. eigenvalues --   -0.48787  -0.47743  -0.47670  -0.44797  -0.43620
 Alpha  occ. eigenvalues --   -0.37378  -0.36516  -0.36405  -0.35525
 Alpha virt. eigenvalues --    0.05020   0.06095   0.11249   0.12119   0.16532
 Alpha virt. eigenvalues --    0.17479   0.21359   0.22107   0.27258   0.28003
 Alpha virt. eigenvalues --    0.28223   0.29070   0.30863   0.31588   0.32430

 Mulliken charges:
               1
     1  C   -0.173037
     2  C   -0.222311
     3  C   -0.175603
     4  C    0.160823
     5  C   -0.153487
     6  C   -0.222794
     7  H    0.220719
     8  H    0.217691
     9  H    0.271799
    10  H    0.283607
    11  H    0.221199
    12  N    0.489735
    13  O   -0.449129
    14  O   -0.469959
    15  C   -0.170846
    16  C   -0.218615
    17  C   -0.170760
    18  C    0.158276
    19  C   -0.170621
    20  C   -0.218666
    21  H    0.225342
    22  H    0.223569
    23  H    0.276092
    24  H    0.275486
    25  H    0.222424
    26  N    0.491567
    27  O   -0.464555
    28  O   -0.457947
 Sum of Mulliken charges =  -0.00000

 Dipole moment (field-independent basis, Debye):
    X=              3.5546    Y=              7.5423    Z=              1.1112  Tot=              8.4117
 Quadrupole moment (field-independent basis, Debye-Ang):
   XX=            -83.6175   YY=           -106.0855   ZZ=           -103.0754
   XY=             -6.6272   XZ=             -9.7623   YZ=             -3.9354

 Normal termination of Gaussian 16 at Wed May  5 16:15:19 2021.
