 Gaussian 16, Revision A.03,
 Gaussian 16:  EM64L-G16RevA.03 25-Dec-2016

 -------------
 #p 6-31g* mp2
 -------------

 ------------------------------------------------------
 Input file generated by CHIRIPA (05-May-2021 14:57:25)
 ------------------------------------------------------
 Symbolic Z-matrix:
 Charge =  0 Multiplicity = 1

                         Standard orientation:
 ---------------------------------------------------------------------
 Center     Atomic      Atomic             Coordinates (Angstroms)
 Number     Number       Type             X           Y           Z
 ---------------------------------------------------------------------
      1          6           0       -3.428178   -2.319955   -0.539294
      2          6           0       -4.520062   -1.560085   -0.106964
      3          6           0       -4.393715   -0.181141    0.085643
      4          6           0       -3.155336    0.407961   -0.164696
      5          6           0       -2.048893   -0.322039   -0.596174
      6          6           0       -2.198247   -1.699600   -0.782091
      7          1           0       -3.535264   -3.390615   -0.686318
      8          1           0       -5.476442   -2.039180    0.082375
      9          1           0       -5.222625    0.431019    0.419688
     10          1           0       -1.108163    0.183784   -0.776697
     11          1           0       -1.348558   -2.287221   -1.117913
     12          7           0       -3.009400    1.867055    0.035668
     13          8           0       -1.907718    2.362215   -0.191821
     14          8           0       -3.999460    2.487906    0.416407
     15          6           0        1.145066   -1.376578    1.072675
     16          6           0        2.260129   -2.103275    0.642478
     17          6           0        3.392773   -1.443859    0.155820
     18          6           0        3.376059   -0.050593    0.113130
     19          6           0        2.280535    0.701484    0.534435
     20          6           0        1.158804    0.021018    1.017378
     21          1           0        0.269440   -1.897005    1.449279
     22          1           0        2.252271   -3.188740    0.684275
     23          1           0        4.269641   -1.981691   -0.183677
     24          1           0        2.317996    1.782745    0.480680
     25          1           0        0.294260    0.587975    1.350798
     26          7           0        4.569362    0.658643   -0.400106
     27          8           0        4.529624    1.886775   -0.427509
     28          8           0        5.521816   -0.027018   -0.765260
 ---------------------------------------------------------------------

 SCF Done:  E(RHF) =  -868.337891459     A.U. after   16 cycles
 E2 =    -0.2602177882D+01 EUMP2 =    -0.87094006934066D+03

 The electronic state is 1-A.
 Alpha  occ. eigenvalues --  -20.61644 -20.61605 -20.60846 -20.60825 -15.86660
 Alpha  occ. eigenvalues --  -15.85894 -11.31992 -11.31378 -11.28546 -11.28503
 Alpha  occ. eigenvalues --  -11.28303 -11.28008 -11.27881 -11.27752 -11.27565
 Alpha  occ. eigenvalues --  -11.27538 -11.27077 -11.26877  -1.60690  -1.59912
 Alpha  occ. eigenvalues --   -1.40246  -1.39460  -1.20179  -1.19582  -1.09575
 Alpha  occ. eigenvalues --   -1.08973  -1.05569  -1.04972  -0.96409  -0.95767
 Alpha  occ. eigenvalues --   -0.86985  -0.86362  -0.83236  -0.82567  -0.78305
 Alpha  occ. eigenvalues --   -0.77580  -0.72872  -0.72111  -0.72015  -0.71277
 Alpha  occ. eigenvalues --   -0.71235  -0.70678  -0.65817  -0.65595  -0.65211
 Alpha  occ. eigenvalues --   -0.64943  -0.62919  -0.62229  -0.56065  -0.55522
 Alpha  occ. eigenvalues --   -0.53946  -0.53667  -0.53257  -0.52992  -0.49637
 Alpha  occ. eigenvalues --   -0.49622  -0.48879  -0.48854  -0.45645  -0.44838
 Alpha  occ. eigenvalues --   -0.38173  -0.37834  -0.37008  -0.36520
 Alpha virt. eigenvalues --    0.04162   0.04914   0.10186   0.11167   0.15544
 Alpha virt. eigenvalues --    0.16383   0.20598   0.21491   0.26606   0.27057
 Alpha virt. eigenvalues --    0.27778   0.28193   0.30195   0.30915   0.32049

 Mulliken charges:
               1
     1  C   -0.171250
     2  C   -0.218550
     3  C   -0.169947
     4  C    0.157006
     5  C   -0.179973
     6  C   -0.226239
     7  H    0.227350
     8  H    0.226199
     9  H    0.277845
    10  H    0.282498
    11  H    0.225688
    12  N    0.488143
    13  O   -0.464036
    14  O   -0.455282
    15  C   -0.177720
    16  C   -0.221353
    17  C   -0.170569
    18  C    0.158408
    19  C   -0.171012
    20  C   -0.232601
    21  H    0.226239
    22  H    0.221361
    23  H    0.276029
    24  H    0.284099
    25  H    0.237394
    26  N    0.487919
    27  O   -0.456587
    28  O   -0.461060
 Sum of Mulliken charges =  -0.00000

 Dipole moment (field-independent basis, Debye):
    X=             -4.8161    Y=             -7.4546    Z=              1.0995  Tot=              8.9428
 Quadrupole moment (field-independent basis, Debye-Ang):
   XX=           -123.8090   YY=           -105.5547   ZZ=           -105.1842
   XY=              5.6377   XZ=              6.1492   YZ=              1.2099

 Normal termination of Gaussian 16 at Thu May  6 08:17:26 2021.
