 Gaussian 16, Revision A.03,
 Gaussian 16:  EM64L-G16RevA.03 25-Dec-2016

 -------------
 #p 6-31g* mp2
 -------------

 ------------------------------------------------------
 Input file generated by CHIRIPA (05-May-2021 14:55:23)
 ------------------------------------------------------
 Symbolic Z-matrix:
 Charge =  0 Multiplicity = 1

                         Standard orientation:
 ---------------------------------------------------------------------
 Center     Atomic      Atomic             Coordinates (Angstroms)
 Number     Number       Type             X           Y           Z
 ---------------------------------------------------------------------
      1          6           0        2.872699   -2.449713    0.059872
      2          6           0        2.721258   -1.754722   -1.144526
      3          6           0        2.809721   -0.359812   -1.175313
      4          6           0        3.051649    0.311240    0.022373
      5          6           0        3.207045   -0.352784    1.238191
      6          6           0        3.114682   -1.747763    1.245297
      7          1           0        2.802464   -3.533339    0.074590
      8          1           0        2.533253   -2.297247   -2.066679
      9          1           0        2.696461    0.203297   -2.093735
     10          1           0        3.393644    0.215629    2.141244
     11          1           0        3.232711   -2.284874    2.182114
     12          7           0        3.147365    1.788005    0.002315
     13          8           0        3.361190    2.355903    1.071150
     14          8           0        3.006751    2.349633   -1.081861
     15          6           0       -3.256124   -0.133436   -0.462542
     16          6           0       -2.007739   -0.519959    0.331260
     17          6           0       -0.755925   -0.609097   -0.542131
     18          1           0       -3.416861   -0.869410   -1.262198
     19          1           0       -3.083281    0.832544   -0.956914
     20          1           0       -2.183393   -1.484259    0.825107
     21          1           0       -1.850064    0.216916    1.129239
     22          1           0       -0.552988    0.352863   -1.023850
     23          1           0       -0.888211   -1.357978   -1.329709
     24          1           0        0.124672   -0.886701    0.045527
     25          6           0       -4.515714   -0.040262    0.396806
     26          6           0       -5.764099    0.346259   -0.396996
     27          6           0       -7.015912    0.435398    0.476395
     28          1           0       -4.688556   -1.006243    0.891177
     29          1           0       -4.354977    0.695712    1.196462
     30          1           0       -5.921774   -0.390615   -1.194976
     31          1           0       -5.588445    1.310561   -0.890845
     32          1           0       -6.883626    1.184279    1.263972
     33          1           0       -7.218849   -0.526561    0.958113
     34          1           0       -7.896511    0.713003   -0.111263
 ---------------------------------------------------------------------

 SCF Done:  E(RHF) =  -669.534676866     A.U. after   15 cycles
 E2 =    -0.2093055622D+01 EUMP2 =    -0.67162773248816D+03

 The electronic state is 1-A.
 Alpha  occ. eigenvalues --  -20.60783 -20.60778 -15.85836 -11.31193 -11.27805
 Alpha  occ. eigenvalues --  -11.27741 -11.27528 -11.26834 -11.26758 -11.21599
 Alpha  occ. eigenvalues --  -11.21583 -11.21392 -11.21333 -11.21055 -11.21018
 Alpha  occ. eigenvalues --   -1.59858  -1.39411  -1.19401  -1.08785  -1.08421
 Alpha  occ. eigenvalues --   -1.04798  -1.03522  -0.95979  -0.95612  -0.87000
 Alpha  occ. eigenvalues --   -0.86187  -0.82445  -0.79599  -0.78239  -0.77490
 Alpha  occ. eigenvalues --   -0.72056  -0.71181  -0.70497  -0.65054  -0.65039
 Alpha  occ. eigenvalues --   -0.64792  -0.62139  -0.60925  -0.59416  -0.57617
 Alpha  occ. eigenvalues --   -0.55299  -0.55266  -0.53743  -0.52880  -0.52431
 Alpha  occ. eigenvalues --   -0.51941  -0.49926  -0.48814  -0.48810  -0.47902
 Alpha  occ. eigenvalues --   -0.46631  -0.45782  -0.45704  -0.44816  -0.43735
 Alpha  occ. eigenvalues --   -0.37375  -0.36347
 Alpha virt. eigenvalues --    0.05041   0.11243   0.16499   0.21350   0.22871
 Alpha virt. eigenvalues --    0.24295   0.26628   0.27009   0.27585   0.28047
 Alpha virt. eigenvalues --    0.28370   0.30628   0.31443   0.31857   0.31951

 Mulliken charges:
               1
     1  C   -0.172005
     2  C   -0.215867
     3  C   -0.168473
     4  C    0.160059
     5  C   -0.172534
     6  C   -0.218769
     7  H    0.225871
     8  H    0.223715
     9  H    0.275679
    10  H    0.275866
    11  H    0.223870
    12  N    0.488160
    13  O   -0.460602
    14  O   -0.460540
    15  C   -0.298594
    16  C   -0.299797
    17  C   -0.481081
    18  H    0.147593
    19  H    0.151953
    20  H    0.148526
    21  H    0.153841
    22  H    0.157168
    23  H    0.147846
    24  H    0.168164
    25  C   -0.298245
    26  C   -0.299687
    27  C   -0.475714
    28  H    0.148051
    29  H    0.150823
    30  H    0.151034
    31  H    0.153136
    32  H    0.155834
    33  H    0.154395
    34  H    0.160327
 Sum of Mulliken charges =  -0.00000

 Dipole moment (field-independent basis, Debye):
    X=             -0.2475    Y=             -5.1811    Z=              0.0675  Tot=              5.1875
 Quadrupole moment (field-independent basis, Debye-Ang):
   XX=            -98.5656   YY=            -97.6920   ZZ=            -90.1385
   XY=            -16.0917   XZ=              1.6164   YZ=              0.0387

 Normal termination of Gaussian 16 at Thu May  6 10:59:23 2021.
