 Gaussian 16, Revision A.03,
 Gaussian 16:  EM64L-G16RevA.03 25-Dec-2016

 -------------
 #p 6-31g* mp2
 -------------

 ------------------------------------------------------
 Input file generated by CHIRIPA (05-May-2021 14:53:17)
 ------------------------------------------------------
 Symbolic Z-matrix:
 Charge =  0 Multiplicity = 1

                         Standard orientation:
 ---------------------------------------------------------------------
 Center     Atomic      Atomic             Coordinates (Angstroms)
 Number     Number       Type             X           Y           Z
 ---------------------------------------------------------------------
      1          6           0       -4.623193   -0.688129    0.263231
      2          6           0       -3.341199   -0.434492   -0.530586
      3          6           0       -2.158823   -1.260900   -0.023804
      4          1           0       -4.442060   -0.460357    1.322597
      5          1           0       -4.872762   -1.756979    0.211566
      6          1           0       -3.094882    0.633797   -0.478589
      7          1           0       -3.525461   -0.662711   -1.588216
      8          1           0       -2.379656   -2.331069   -0.091423
      9          1           0       -1.946631   -1.027195    1.024508
     10          1           0       -1.252805   -1.064042   -0.605387
     11          6           0       -5.814119    0.130809   -0.231505
     12          6           0       -7.096112   -0.122828    0.562313
     13          6           0       -8.278489    0.703581    0.055530
     14          1           0       -5.564550    1.199660   -0.179840
     15          1           0       -5.995252   -0.096962   -1.290871
     16          1           0       -6.911851    0.105391    1.619942
     17          1           0       -7.342429   -1.191116    0.510315
     18          1           0       -8.490680    0.469876   -0.992781
     19          1           0       -8.057655    1.773750    0.123150
     20          1           0       -9.184507    0.506723    0.637113
     21          6           0        2.029320    1.673621   -0.242451
     22          6           0        3.266221    2.249063    0.066519
     23          6           0        4.407479    1.452065    0.196419
     24          6           0        4.275044    0.076950    0.009849
     25          6           0        3.056676   -0.526085   -0.298724
     26          6           0        1.928672    0.290322   -0.423767
     27          1           0        1.147912    2.300286   -0.341473
     28          1           0        3.347360    3.323064    0.207879
     29          1           0        5.377388    1.871340    0.434963
     30          1           0        3.007132   -1.599724   -0.433867
     31          1           0        0.969372   -0.159322   -0.663785
     32          7           0        5.476227   -0.777070    0.144797
     33          8           0        5.333094   -1.985998   -0.024447
     34          8           0        6.538102   -0.221351    0.417256
 ---------------------------------------------------------------------

 SCF Done:  E(RHF) =  -669.535467102     A.U. after   15 cycles
 E2 =    -0.2090666724D+01 EUMP2 =    -0.67162613382622D+03

 The electronic state is 1-A.
 Alpha  occ. eigenvalues --  -20.60724 -20.60719 -15.85777 -11.31138 -11.27709
 Alpha  occ. eigenvalues --  -11.27696 -11.27449 -11.26728 -11.26691 -11.22459
 Alpha  occ. eigenvalues --  -11.22127 -11.22054 -11.22040 -11.21916 -11.21456
 Alpha  occ. eigenvalues --   -1.59800  -1.39354  -1.19310  -1.09068  -1.08707
 Alpha  occ. eigenvalues --   -1.04713  -1.04199  -0.96657  -0.95542  -0.87679
 Alpha  occ. eigenvalues --   -0.86111  -0.82375  -0.80266  -0.78847  -0.77424
 Alpha  occ. eigenvalues --   -0.71996  -0.71123  -0.70420  -0.65692  -0.64962
 Alpha  occ. eigenvalues --   -0.64748  -0.62100  -0.61582  -0.60050  -0.58256
 Alpha  occ. eigenvalues --   -0.55923  -0.55220  -0.53477  -0.53110  -0.53042
 Alpha  occ. eigenvalues --   -0.52666  -0.50577  -0.48759  -0.48751  -0.48572
 Alpha  occ. eigenvalues --   -0.47283  -0.46396  -0.46300  -0.44760  -0.44449
 Alpha  occ. eigenvalues --   -0.37293  -0.36314
 Alpha virt. eigenvalues --    0.05112   0.11333   0.16604   0.19837   0.22456
 Alpha virt. eigenvalues --    0.23694   0.25691   0.26049   0.26897   0.28164
 Alpha virt. eigenvalues --    0.28524   0.29847   0.30799   0.31449   0.32174

 Mulliken charges:
               1
     1  C   -0.299283
     2  C   -0.298924
     3  C   -0.481159
     4  H    0.150770
     5  H    0.151858
     6  H    0.148822
     7  H    0.154271
     8  H    0.161543
     9  H    0.158538
    10  H    0.151721
    11  C   -0.298612
    12  C   -0.300152
    13  C   -0.476004
    14  H    0.149026
    15  H    0.150601
    16  H    0.152528
    17  H    0.153080
    18  H    0.155767
    19  H    0.155159
    20  H    0.161714
    21  C   -0.173497
    22  C   -0.218533
    23  C   -0.171286
    24  C    0.158861
    25  C   -0.173621
    26  C   -0.225053
    27  H    0.225707
    28  H    0.223131
    29  H    0.275393
    30  H    0.276105
    31  H    0.234569
    32  N    0.488071
    33  O   -0.460407
    34  O   -0.460702
 Sum of Mulliken charges =  -0.00000

 Dipole moment (field-independent basis, Debye):
    X=             -4.4657    Y=              2.9714    Z=             -0.4434  Tot=              5.3822
 Quadrupole moment (field-independent basis, Debye-Ang):
   XX=           -129.9134   YY=            -90.8385   ZZ=            -95.0873
   XY=             16.0535   XZ=             -1.5501   YZ=              1.5640

 Normal termination of Gaussian 16 at Wed May  5 23:37:47 2021.
