 Gaussian 16, Revision A.03,
 Gaussian 16:  EM64L-G16RevA.03 25-Dec-2016

 -------------
 #p 6-31g* mp2
 -------------

 ------------------------------------------------------
 Input file generated by CHIRIPA (05-May-2021 14:53:15)
 ------------------------------------------------------
 Symbolic Z-matrix:
 Charge =  0 Multiplicity = 1

                         Standard orientation:
 ---------------------------------------------------------------------
 Center     Atomic      Atomic             Coordinates (Angstroms)
 Number     Number       Type             X           Y           Z
 ---------------------------------------------------------------------
      1          6           0        1.980705    1.395135    0.271637
      2          6           0        1.048803    2.130874   -0.691809
      3          6           0        0.006897    2.985576    0.030487
      4          1           0        1.381367    0.759821    0.938057
      5          1           0        2.487993    2.129439    0.912614
      6          1           0        0.544462    1.395494   -1.331709
      7          1           0        1.650445    2.764364   -1.356139
      8          1           0        0.494368    3.740750    0.655535
      9          1           0       -0.617899    2.364102    0.680103
     10          1           0       -0.648674    3.502618   -0.677154
     11          6           0        3.027832    0.536487   -0.435454
     12          6           0        3.959734   -0.199253    0.527993
     13          6           0        5.001640   -1.053955   -0.194303
     14          1           0        2.520544   -0.197818   -1.076431
     15          1           0        3.627170    1.171800   -1.101874
     16          1           0        3.358092   -0.832743    1.192322
     17          1           0        4.464075    0.536127    1.167893
     18          1           0        5.626436   -0.432481   -0.843920
     19          1           0        4.514170   -1.809129   -0.819351
     20          1           0        5.657211   -1.570996    0.513337
     21          6           0        0.196288   -2.067873    0.146210
     22          6           0       -0.513373   -1.961488   -1.054451
     23          6           0       -1.707292   -1.236346   -1.111678
     24          6           0       -2.164579   -0.627572    0.056043
     25          6           0       -1.480256   -0.715264    1.267364
     26          6           0       -0.288564   -1.445518    1.301249
     27          1           0        1.122887   -2.633167    0.181600
     28          1           0       -0.139215   -2.443772   -1.953035
     29          1           0       -2.276741   -1.137837   -2.027889
     30          1           0       -1.878360   -0.223493    2.146621
     31          1           0        0.260465   -1.526445    2.235092
     32          7           0       -3.427348    0.142810    0.007814
     33          8           0       -3.809007    0.669850    1.050505
     34          8           0       -4.011539    0.205009   -1.071766
 ---------------------------------------------------------------------

 SCF Done:  E(RHF) =  -669.534563788     A.U. after   15 cycles
 E2 =    -0.2096485909D+01 EUMP2 =    -0.67163104969741D+03

 The electronic state is 1-A.
 Alpha  occ. eigenvalues --  -20.60894 -20.60889 -15.85946 -11.31384 -11.27947
 Alpha  occ. eigenvalues --  -11.27936 -11.27682 -11.26986 -11.26953 -11.22302
 Alpha  occ. eigenvalues --  -11.21813 -11.21791 -11.21614 -11.21472 -11.20950
 Alpha  occ. eigenvalues --   -1.59963  -1.39515  -1.19568  -1.08978  -1.08737
 Alpha  occ. eigenvalues --   -1.04979  -1.03857  -0.96293  -0.95757  -0.87310
 Alpha  occ. eigenvalues --   -0.86364  -0.82591  -0.79957  -0.78554  -0.77626
 Alpha  occ. eigenvalues --   -0.72162  -0.71288  -0.70657  -0.65506  -0.65209
 Alpha  occ. eigenvalues --   -0.64934  -0.62309  -0.61300  -0.59692  -0.57890
 Alpha  occ. eigenvalues --   -0.55622  -0.55447  -0.53255  -0.53056  -0.52986
 Alpha  occ. eigenvalues --   -0.52700  -0.50257  -0.48928  -0.48914  -0.48257
 Alpha  occ. eigenvalues --   -0.47035  -0.46088  -0.46042  -0.44892  -0.44077
 Alpha  occ. eigenvalues --   -0.37464  -0.36452
 Alpha virt. eigenvalues --    0.04867   0.10879   0.16267   0.19527   0.23153
 Alpha virt. eigenvalues --    0.23605   0.25562   0.26244   0.27342   0.28191
 Alpha virt. eigenvalues --    0.28894   0.30382   0.30996   0.31475   0.32085

 Mulliken charges:
               1
     1  C   -0.301915
     2  C   -0.301146
     3  C   -0.478428
     4  H    0.153363
     5  H    0.148214
     6  H    0.152510
     7  H    0.151026
     8  H    0.154455
     9  H    0.155442
    10  H    0.164725
    11  C   -0.298672
    12  C   -0.299358
    13  C   -0.475088
    14  H    0.144949
    15  H    0.151679
    16  H    0.140676
    17  H    0.155744
    18  H    0.159225
    19  H    0.149253
    20  H    0.161124
    21  C   -0.166923
    22  C   -0.219018
    23  C   -0.171476
    24  C    0.161893
    25  C   -0.171387
    26  C   -0.222270
    27  H    0.228395
    28  H    0.224857
    29  H    0.276697
    30  H    0.276850
    31  H    0.225678
    32  N    0.488341
    33  O   -0.459793
    34  O   -0.459623
 Sum of Mulliken charges =  -0.00000

 Dipole moment (field-independent basis, Debye):
    X=              4.3022    Y=             -2.7329    Z=              0.1563  Tot=              5.0992
 Quadrupole moment (field-independent basis, Debye-Ang):
   XX=           -114.9467   YY=            -91.5635   ZZ=            -90.1802
   XY=              4.3679   XZ=              0.6727   YZ=              0.6596

 Normal termination of Gaussian 16 at Thu May  6 07:29:11 2021.
