 Gaussian 16, Revision A.03,
 Gaussian 16:  EM64L-G16RevA.03 25-Dec-2016

 -------------
 #p 6-31g* mp2
 -------------

 ------------------------------------------------------
 Input file generated by CHIRIPA (05-May-2021 14:51:07)
 ------------------------------------------------------
 Symbolic Z-matrix:
 Charge =  0 Multiplicity = 1

                         Standard orientation:
 ---------------------------------------------------------------------
 Center     Atomic      Atomic             Coordinates (Angstroms)
 Number     Number       Type             X           Y           Z
 ---------------------------------------------------------------------
      1          6           0       -2.718762   -1.047093    0.230152
      2          6           0       -1.483213   -1.291624   -0.636802
      3          6           0       -0.585194   -2.400214   -0.086908
      4          1           0       -2.398767   -0.790069    1.249213
      5          1           0       -3.293325   -1.980397    0.308997
      6          1           0       -0.911882   -0.357781   -0.715126
      7          1           0       -1.806184   -1.547908   -1.653967
      8          1           0       -1.134120   -3.345431   -0.024882
      9          1           0       -0.234736   -2.148542    0.919293
     10          1           0        0.292011   -2.558368   -0.722014
     11          6           0       -3.626337    0.058315   -0.306606
     12          6           0       -4.861886    0.302846    0.560348
     13          6           0       -5.759905    1.411437    0.010455
     14          1           0       -3.051775    0.991619   -0.385450
     15          1           0       -3.946332   -0.198709   -1.325667
     16          1           0       -4.538915    0.559131    1.577513
     17          1           0       -5.433217   -0.630996    0.638672
     18          1           0       -6.110363    1.159764   -0.995747
     19          1           0       -5.210979    2.356653   -0.051572
     20          1           0       -6.637110    1.569590    0.645560
     21          6           0        3.193662    1.185002    0.363864
     22          6           0        2.673197    2.299713   -0.544167
     23          6           0        2.721771    3.675401    0.121353
     24          1           0        2.601144    1.167557    1.288830
     25          1           0        4.226988    1.414350    0.658874
     26          1           0        1.641631    2.067639   -0.838496
     27          1           0        3.266899    2.314382   -1.467162
     28          1           0        3.748847    3.932539    0.399914
     29          1           0        2.114345    3.684394    1.032151
     30          1           0        2.345169    4.457425   -0.545332
     31          6           0        3.151438   -0.196225   -0.287410
     32          6           0        3.671903   -1.310936    0.620621
     33          6           0        3.623327   -2.686623   -0.044900
     34          1           0        2.118111   -0.425572   -0.582420
     35          1           0        3.743956   -0.178780   -1.212376
     36          1           0        3.078201   -1.325605    1.543616
     37          1           0        4.703469   -1.078861    0.914949
     38          1           0        4.230754   -2.695616   -0.955698
     39          1           0        2.596251   -2.943761   -0.323460
     40          1           0        3.999931   -3.468647    0.621786
 ---------------------------------------------------------------------

 SCF Done:  E(RHF) =  -470.733100614     A.U. after   11 cycles
 E2 =    -0.1583326912D+01 EUMP2 =    -0.47231642752648D+03

 The electronic state is 1-A.
 Alpha  occ. eigenvalues --  -11.21697 -11.21639 -11.21616 -11.21559 -11.21466
 Alpha  occ. eigenvalues --  -11.21403 -11.21388 -11.21320 -11.21162 -11.21099
 Alpha  occ. eigenvalues --  -11.21086 -11.20982  -1.08496  -1.08409  -1.03606
 Alpha  occ. eigenvalues --   -1.03500  -0.96053  -0.95951  -0.87076  -0.86965
 Alpha  occ. eigenvalues --   -0.79676  -0.79557  -0.78304  -0.78226  -0.65188
 Alpha  occ. eigenvalues --   -0.64995  -0.61059  -0.60882  -0.59473  -0.59263
 Alpha  occ. eigenvalues --   -0.57677  -0.57549  -0.55326  -0.55262  -0.52800
 Alpha  occ. eigenvalues --   -0.52647  -0.52478  -0.52339  -0.49982  -0.49893
 Alpha  occ. eigenvalues --   -0.48017  -0.47848  -0.46696  -0.46589  -0.45867
 Alpha  occ. eigenvalues --   -0.45805  -0.45752  -0.45621  -0.43811  -0.43757
 Alpha virt. eigenvalues --    0.20064   0.23143   0.23489   0.24552   0.25957
 Alpha virt. eigenvalues --    0.26578   0.26755   0.27329   0.28090   0.29199
 Alpha virt. eigenvalues --    0.30177   0.30992   0.31677   0.31970   0.32304

 Mulliken charges:
               1
     1  C   -0.298648
     2  C   -0.301547
     3  C   -0.481484
     4  H    0.149638
     5  H    0.149947
     6  H    0.152650
     7  H    0.152649
     8  H    0.156089
     9  H    0.155563
    10  H    0.165468
    11  C   -0.298314
    12  C   -0.299685
    13  C   -0.475752
    14  H    0.149498
    15  H    0.149872
    16  H    0.151968
    17  H    0.152041
    18  H    0.155268
    19  H    0.155274
    20  H    0.160393
    21  C   -0.297938
    22  C   -0.299967
    23  C   -0.475676
    24  H    0.149141
    25  H    0.149632
    26  H    0.151458
    27  H    0.152192
    28  H    0.155368
    29  H    0.154925
    30  H    0.160259
    31  C   -0.303700
    32  C   -0.298628
    33  C   -0.481797
    34  H    0.155089
    35  H    0.149370
    36  H    0.151646
    37  H    0.151680
    38  H    0.154458
    39  H    0.161491
    40  H    0.160107
 Sum of Mulliken charges =  -0.00000

 Dipole moment (field-independent basis, Debye):
    X=             -0.0432    Y=             -0.0184    Z=             -0.0085  Tot=              0.0477
 Quadrupole moment (field-independent basis, Debye-Ang):
   XX=            -84.2293   YY=            -85.9838   ZZ=            -84.5472
   XY=              1.1790   XZ=             -0.2546   YZ=              0.1924

 Normal termination of Gaussian 16 at Wed May  5 16:33:48 2021.
