 Gaussian 16, Revision A.03,
 Gaussian 16:  EM64L-G16RevA.03 25-Dec-2016

 -------------
 #p 6-31g* mp2
 -------------

 ------------------------------------------------------
 Input file generated by CHIRIPA (05-May-2021 14:51:10)
 ------------------------------------------------------
 Symbolic Z-matrix:
 Charge =  0 Multiplicity = 1

                         Standard orientation:
 ---------------------------------------------------------------------
 Center     Atomic      Atomic             Coordinates (Angstroms)
 Number     Number       Type             X           Y           Z
 ---------------------------------------------------------------------
      1          6           0       -4.352794    0.422580   -0.206990
      2          6           0       -5.712822   -0.106195    0.249854
      3          6           0       -6.875925    0.764658   -0.226171
      4          1           0       -4.221313    1.447856    0.165123
      5          1           0       -4.340848    0.484273   -1.304007
      6          1           0       -5.721711   -0.168180    1.345616
      7          1           0       -5.840999   -1.130400   -0.123228
      8          1           0       -6.895408    0.817355   -1.319535
      9          1           0       -6.775442    1.785041    0.157655
     10          1           0       -7.838607    0.368402    0.111592
     11          6           0       -3.180124   -0.437342    0.261098
     12          6           0       -1.820096    0.091432   -0.195746
     13          6           0       -0.656992   -0.779420    0.280280
     14          1           0       -3.192069   -0.499035    1.358115
     15          1           0       -3.311604   -1.462618   -0.111015
     16          1           0       -1.691918    1.115638    0.177337
     17          1           0       -1.811206    0.153418   -1.291508
     18          1           0       -0.757475   -1.799803   -0.103547
     19          1           0       -0.637510   -0.832117    1.373644
     20          1           0        0.305690   -0.383164   -0.057484
     21          6           0        4.016171   -0.713198   -0.069962
     22          6           0        2.890851   -1.747880   -0.037194
     23          6           0        3.406246   -3.184769   -0.123865
     24          1           0        4.596393   -0.841021   -0.994056
     25          1           0        4.707112   -0.906714    0.762232
     26          1           0        2.201485   -1.551625   -0.868382
     27          1           0        2.313124   -1.617454    0.886839
     28          1           0        4.077584   -3.404351    0.712609
     29          1           0        3.965312   -3.338147   -1.052585
     30          1           0        2.585163   -3.907993   -0.098766
     31          6           0        3.516746    0.727960    0.015854
     32          6           0        4.642066    1.762642   -0.016914
     33          6           0        4.126671    3.199531    0.069757
     34          1           0        2.825805    0.921476   -0.816341
     35          1           0        2.936525    0.855783    0.939948
     36          1           0        5.219794    1.632216   -0.940947
     37          1           0        5.331432    1.566387    0.814274
     38          1           0        3.567605    3.352909    0.998476
     39          1           0        3.455333    3.419113   -0.766718
     40          1           0        4.947755    3.922754    0.044657
 ---------------------------------------------------------------------

 SCF Done:  E(RHF) =  -470.732048268     A.U. after   11 cycles
 E2 =    -0.1583442332D+01 EUMP2 =    -0.47231549059957D+03

 The electronic state is 1-A.
 Alpha  occ. eigenvalues --  -11.21616 -11.21574 -11.21514 -11.21486 -11.21413
 Alpha  occ. eigenvalues --  -11.21359 -11.21334 -11.21297 -11.21082 -11.21051
 Alpha  occ. eigenvalues --  -11.21015 -11.20887  -1.08436  -1.08371  -1.03540
 Alpha  occ. eigenvalues --   -1.03441  -0.95970  -0.95918  -0.87036  -0.86898
 Alpha  occ. eigenvalues --   -0.79735  -0.79418  -0.78273  -0.78149  -0.65065
 Alpha  occ. eigenvalues --   -0.65003  -0.60939  -0.60840  -0.59539  -0.59120
 Alpha  occ. eigenvalues --   -0.57589  -0.57522  -0.55260  -0.55202  -0.52869
 Alpha  occ. eigenvalues --   -0.52534  -0.52357  -0.52302  -0.49936  -0.49842
 Alpha  occ. eigenvalues --   -0.47914  -0.47824  -0.46663  -0.46518  -0.45800
 Alpha  occ. eigenvalues --   -0.45743  -0.45696  -0.45633  -0.43797  -0.43537
 Alpha virt. eigenvalues --    0.22099   0.23102   0.23896   0.24357   0.26224
 Alpha virt. eigenvalues --    0.26324   0.26718   0.27341   0.27858   0.29271
 Alpha virt. eigenvalues --    0.30861   0.31218   0.31553   0.31870   0.32262

 Mulliken charges:
               1
     1  C   -0.298130
     2  C   -0.299545
     3  C   -0.475656
     4  H    0.149523
     5  H    0.149313
     6  H    0.151825
     7  H    0.151834
     8  H    0.155106
     9  H    0.155130
    10  H    0.160138
    11  C   -0.298414
    12  C   -0.300239
    13  C   -0.480235
    14  H    0.149218
    15  H    0.149329
    16  H    0.151552
    17  H    0.150972
    18  H    0.153874
    19  H    0.152936
    20  H    0.170461
    21  C   -0.297827
    22  C   -0.303556
    23  C   -0.475261
    24  H    0.149195
    25  H    0.149237
    26  H    0.153985
    27  H    0.156731
    28  H    0.154712
    29  H    0.154538
    30  H    0.160203
    31  C   -0.300440
    32  C   -0.299516
    33  C   -0.475742
    34  H    0.149318
    35  H    0.150540
    36  H    0.152053
    37  H    0.152143
    38  H    0.155176
    39  H    0.155200
    40  H    0.160322
 Sum of Mulliken charges =  -0.00000

 Dipole moment (field-independent basis, Debye):
    X=              0.0476    Y=             -0.0025    Z=              0.0061  Tot=              0.0480
 Quadrupole moment (field-independent basis, Debye-Ang):
   XX=            -85.9332   YY=            -85.9913   ZZ=            -83.0677
   XY=              0.8011   XZ=             -0.0799   YZ=              0.5319

 Normal termination of Gaussian 16 at Wed May  5 16:42:40 2021.
