 Gaussian 16, Revision A.03,
 Gaussian 16:  EM64L-G16RevA.03 25-Dec-2016

 -------------
 #p 6-31g* mp2
 -------------

 ------------------------------------------------------
 Input file generated by CHIRIPA (05-May-2021 14:55:25)
 ------------------------------------------------------
 Symbolic Z-matrix:
 Charge =  0 Multiplicity = 1

                         Standard orientation:
 ---------------------------------------------------------------------
 Center     Atomic      Atomic             Coordinates (Angstroms)
 Number     Number       Type             X           Y           Z
 ---------------------------------------------------------------------
      1          6           0       -3.396739   -1.737747    0.587908
      2          6           0       -3.953831   -0.861371   -0.349180
      3          6           0       -3.380837    0.393524   -0.576034
      4          6           0       -2.246000    0.741123    0.155136
      5          6           0       -1.667610   -0.109951    1.095577
      6          6           0       -2.257415   -1.359906    1.306029
      7          1           0       -3.848384   -2.710661    0.757764
      8          1           0       -4.838618   -1.152139   -0.908333
      9          1           0       -3.791521    1.091469   -1.295500
     10          1           0       -0.785319    0.208021    1.637679
     11          1           0       -1.822610   -2.038469    2.034413
     12          7           0       -1.630499    2.067010   -0.076343
     13          8           0       -0.630953    2.349505    0.580728
     14          8           0       -2.159269    2.798639   -0.910464
     15          6           0        2.553161   -1.268924   -0.107664
     16          6           0        1.359927   -1.364392   -1.059011
     17          6           0        0.465880   -2.569833   -0.766805
     18          1           0        3.144960   -2.191825   -0.178180
     19          1           0        2.185291   -1.211730    0.926163
     20          1           0        1.729901   -1.419994   -2.090827
     21          1           0        0.771007   -0.441076   -0.986363
     22          1           0        0.069002   -2.517107    0.252169
     23          1           0        1.033344   -3.501586   -0.858571
     24          1           0       -0.380838   -2.618749   -1.458567
     25          6           0        3.456292   -0.068936   -0.387151
     26          6           0        4.649526    0.026532    0.564197
     27          6           0        5.543573    1.231974    0.271990
     28          1           0        3.824161   -0.126129   -1.420976
     29          1           0        2.864493    0.853967   -0.316634
     30          1           0        5.238446   -0.896783    0.491548
     31          1           0        4.279551    0.082135    1.596013
     32          1           0        4.976108    2.163727    0.363757
     33          1           0        5.940451    1.179247   -0.746983
     34          1           0        6.390290    1.280890    0.963754
 ---------------------------------------------------------------------

 SCF Done:  E(RHF) =  -669.534410663     A.U. after   15 cycles
 E2 =    -0.2094183879D+01 EUMP2 =    -0.67162859454204D+03

 The electronic state is 1-A.
 Alpha  occ. eigenvalues --  -20.60890 -20.60884 -15.85931 -11.31270 -11.27820
 Alpha  occ. eigenvalues --  -11.27810 -11.27542 -11.26839 -11.26824 -11.21548
 Alpha  occ. eigenvalues --  -11.21337 -11.21327 -11.21159 -11.21042 -11.20718
 Alpha  occ. eigenvalues --   -1.59956  -1.39511  -1.19440  -1.08836  -1.08266
 Alpha  occ. eigenvalues --   -1.04853  -1.03381  -0.95844  -0.95672  -0.86874
 Alpha  occ. eigenvalues --   -0.86232  -0.82516  -0.79460  -0.78059  -0.77569
 Alpha  occ. eigenvalues --   -0.72149  -0.71279  -0.70537  -0.65094  -0.64915
 Alpha  occ. eigenvalues --   -0.64851  -0.62211  -0.60808  -0.59221  -0.57446
 Alpha  occ. eigenvalues --   -0.55340  -0.55262  -0.53090  -0.52946  -0.52485
 Alpha  occ. eigenvalues --   -0.52249  -0.49769  -0.48910  -0.48904  -0.47777
 Alpha  occ. eigenvalues --   -0.46516  -0.45621  -0.45525  -0.44880  -0.43633
 Alpha  occ. eigenvalues --   -0.37376  -0.36335
 Alpha virt. eigenvalues --    0.04952   0.11128   0.16364   0.20501   0.22986
 Alpha virt. eigenvalues --    0.24405   0.26020   0.26952   0.27568   0.28414
 Alpha virt. eigenvalues --    0.28837   0.30705   0.31614   0.31897   0.32411

 Mulliken charges:
               1
     1  C   -0.170672
     2  C   -0.218704
     3  C   -0.171443
     4  C    0.159139
     5  C   -0.169111
     6  C   -0.215884
     7  H    0.226178
     8  H    0.223796
     9  H    0.275749
    10  H    0.275757
    11  H    0.223812
    12  N    0.488146
    13  O   -0.461404
    14  O   -0.459281
    15  C   -0.296341
    16  C   -0.303031
    17  C   -0.472628
    18  H    0.148389
    19  H    0.142471
    20  H    0.153546
    21  H    0.154938
    22  H    0.147423
    23  H    0.152721
    24  H    0.159554
    25  C   -0.301976
    26  C   -0.299106
    27  C   -0.476428
    28  H    0.149100
    29  H    0.161683
    30  H    0.149409
    31  H    0.150849
    32  H    0.159978
    33  H    0.154583
    34  H    0.158787
 Sum of Mulliken charges =  -0.00000

 Dipole moment (field-independent basis, Debye):
    X=             -2.2595    Y=             -4.5440    Z=              0.7828  Tot=              5.1348
 Quadrupole moment (field-independent basis, Debye-Ang):
   XX=            -83.1004   YY=           -102.7337   ZZ=            -92.2418
   XY=              7.7247   XZ=              0.1812   YZ=             -0.5776

 Normal termination of Gaussian 16 at Thu May  6 06:26:00 2021.
