 Gaussian 16, Revision A.03,
 Gaussian 16:  EM64L-G16RevA.03 25-Dec-2016

 -------------
 #p 6-31g* mp2
 -------------

 ------------------------------------------------------
 Input file generated by CHIRIPA (05-May-2021 14:53:16)
 ------------------------------------------------------
 Symbolic Z-matrix:
 Charge =  0 Multiplicity = 1

                         Standard orientation:
 ---------------------------------------------------------------------
 Center     Atomic      Atomic             Coordinates (Angstroms)
 Number     Number       Type             X           Y           Z
 ---------------------------------------------------------------------
      1          6           0        2.644693   -0.579942   -0.220228
      2          6           0        3.229259   -1.935672   -0.618052
      3          6           0        2.227754   -3.080287   -0.461089
      4          1           0        2.300691   -0.627718    0.822041
      5          1           0        1.755894   -0.377432   -0.833760
      6          1           0        4.117496   -2.134936   -0.004907
      7          1           0        3.572085   -1.884605   -1.659435
      8          1           0        1.345088   -2.908207   -1.085501
      9          1           0        1.893598   -3.159960    0.578427
     10          1           0        2.666463   -4.040172   -0.750939
     11          6           0        3.633904    0.574291   -0.371683
     12          6           0        3.049337    1.930020    0.026141
     13          6           0        4.050843    3.074635   -0.130822
     14          1           0        4.522703    0.371781    0.241849
     15          1           0        3.977906    0.622067   -1.413952
     16          1           0        2.706512    1.878954    1.067524
     17          1           0        2.161101    2.129285   -0.587004
     18          1           0        4.384999    3.154309   -1.170338
     19          1           0        4.933508    2.902556    0.493590
     20          1           0        3.612133    4.034521    0.159028
     21          6           0       -4.401450    1.115646   -0.921204
     22          6           0       -3.508321    1.878656   -0.161825
     23          6           0       -2.424987    1.272338    0.481070
     24          6           0       -2.264167   -0.105436    0.342627
     25          6           0       -3.136844   -0.892748   -0.406950
     26          6           0       -4.213193   -0.265186   -1.041132
     27          1           0       -5.240297    1.594899   -1.417237
     28          1           0       -3.652050    2.951215   -0.066936
     29          1           0       -1.718405    1.839117    1.075143
     30          1           0       -2.967501   -1.959963   -0.483066
     31          1           0       -4.905221   -0.860258   -1.630226
     32          7           0       -1.120987   -0.758561    1.018619
     33          8           0       -1.001310   -1.974042    0.881054
     34          8           0       -0.366285   -0.042635    1.673227
 ---------------------------------------------------------------------

 SCF Done:  E(RHF) =  -669.536158712     A.U. after   15 cycles
 E2 =    -0.2092786423D+01 EUMP2 =    -0.67162894513532D+03

 The electronic state is 1-A.
 Alpha  occ. eigenvalues --  -20.60982 -20.60977 -15.85974 -11.31303 -11.27861
 Alpha  occ. eigenvalues --  -11.27856 -11.27598 -11.26867 -11.26857 -11.20763
 Alpha  occ. eigenvalues --  -11.20473 -11.20388 -11.20331 -11.19942 -11.19513
 Alpha  occ. eigenvalues --   -1.60017  -1.39575  -1.19467  -1.08874  -1.07308
 Alpha  occ. eigenvalues --   -1.04861  -1.02448  -0.95716  -0.94879  -0.86263
 Alpha  occ. eigenvalues --   -0.85890  -0.82553  -0.78535  -0.77606  -0.77065
 Alpha  occ. eigenvalues --   -0.72209  -0.71305  -0.70575  -0.65123  -0.64865
 Alpha  occ. eigenvalues --   -0.63952  -0.62208  -0.59858  -0.58305  -0.56479
 Alpha  occ. eigenvalues --   -0.55367  -0.54166  -0.53195  -0.52953  -0.51628
 Alpha  occ. eigenvalues --   -0.51291  -0.49057  -0.49013  -0.48734  -0.46817
 Alpha  occ. eigenvalues --   -0.45582  -0.45043  -0.44622  -0.44284  -0.42685
 Alpha  occ. eigenvalues --   -0.37442  -0.36462
 Alpha virt. eigenvalues --    0.04897   0.11190   0.16375   0.21304   0.23872
 Alpha virt. eigenvalues --    0.25338   0.27214   0.27612   0.27965   0.28895
 Alpha virt. eigenvalues --    0.29078   0.31028   0.32167   0.32583   0.32627

 Mulliken charges:
               1
     1  C   -0.301103
     2  C   -0.300184
     3  C   -0.473578
     4  H    0.175210
     5  H    0.138565
     6  H    0.147874
     7  H    0.144054
     8  H    0.152782
     9  H    0.171229
    10  H    0.150251
    11  C   -0.297901
    12  C   -0.298366
    13  C   -0.474879
    14  H    0.147425
    15  H    0.144099
    16  H    0.159299
    17  H    0.145698
    18  H    0.152509
    19  H    0.154713
    20  H    0.155777
    21  C   -0.170580
    22  C   -0.218620
    23  C   -0.170726
    24  C    0.158245
    25  C   -0.171039
    26  C   -0.218596
    27  H    0.226032
    28  H    0.223920
    29  H    0.276203
    30  H    0.275952
    31  H    0.223872
    32  N    0.489098
    33  O   -0.458460
    34  O   -0.458775
 Sum of Mulliken charges =  -0.00000

 Dipole moment (field-independent basis, Debye):
    X=             -4.3381    Y=              2.2278    Z=             -2.1115  Tot=              5.3142
 Quadrupole moment (field-independent basis, Debye-Ang):
   XX=            -77.9359   YY=            -92.8748   ZZ=            -95.6553
   XY=             -4.1249   XZ=              5.9183   YZ=              2.5420

 Normal termination of Gaussian 16 at Thu May  6 18:51:20 2021.
