 Gaussian 16, Revision A.03,
 Gaussian 16:  EM64L-G16RevA.03 25-Dec-2016

 -------------
 #p 6-31g* mp2
 -------------

 ------------------------------------------------------
 Input file generated by CHIRIPA (05-May-2021 14:51:09)
 ------------------------------------------------------
 Symbolic Z-matrix:
 Charge =  0 Multiplicity = 1

                         Standard orientation:
 ---------------------------------------------------------------------
 Center     Atomic      Atomic             Coordinates (Angstroms)
 Number     Number       Type             X           Y           Z
 ---------------------------------------------------------------------
      1          6           0       -2.696039    0.188803   -0.012461
      2          6           0       -4.006921   -0.088834   -0.749001
      3          6           0       -4.396990   -1.567026   -0.724785
      4          1           0       -1.894459   -0.410870   -0.465017
      5          1           0       -2.789780   -0.149625    1.028728
      6          1           0       -3.911208    0.251281   -1.788124
      7          1           0       -4.805435    0.511715   -0.294762
      8          1           0       -4.519864   -1.916196    0.305546
      9          1           0       -3.620556   -2.178111   -1.196301
     10          1           0       -5.337022   -1.742947   -1.256998
     11          6           0       -2.292765    1.662187   -0.027931
     12          6           0       -0.981883    1.939823    0.708609
     13          6           0       -0.591814    3.418016    0.684393
     14          1           0       -2.199024    2.000614   -1.069119
     15          1           0       -3.094345    2.261860    0.424625
     16          1           0       -0.183369    1.339275    0.254370
     17          1           0       -1.077597    1.599709    1.747732
     18          1           0       -1.368248    4.029101    1.155909
     19          1           0       -0.468940    3.767186   -0.345938
     20          1           0        0.348218    3.593937    1.216606
     21          6           0        2.983518   -0.643081   -0.494043
     22          6           0        3.758978    0.574005    0.011275
     23          6           0        4.733450    1.127616   -1.028780
     24          1           0        3.694846   -1.427642   -0.786311
     25          1           0        2.432401   -0.366287   -1.403466
     26          1           0        4.307370    0.295371    0.920256
     27          1           0        3.045715    1.355689    0.302554
     28          1           0        4.198479    1.432749   -1.933933
     29          1           0        5.467301    0.366407   -1.312721
     30          1           0        5.277183    1.997209   -0.646651
     31          6           0        2.005287   -1.207909    0.534434
     32          6           0        1.229826   -2.424995    0.029117
     33          6           0        0.255354   -2.978605    1.069172
     34          1           0        2.556403   -1.484704    1.443858
     35          1           0        1.293959   -0.423348    0.826703
     36          1           0        1.943089   -3.206678   -0.262162
     37          1           0        0.681434   -2.146361   -0.879863
     38          1           0       -0.478498   -2.217397    1.353113
     39          1           0        0.790324   -3.283739    1.974324
     40          1           0       -0.288379   -3.848199    0.687044
 ---------------------------------------------------------------------

 SCF Done:  E(RHF) =  -470.733258256     A.U. after   11 cycles
 E2 =    -0.1584084912D+01 EUMP2 =    -0.47231734316745D+03

 The electronic state is 1-A.
 Alpha  occ. eigenvalues --  -11.21691 -11.21654 -11.21599 -11.21577 -11.21487
 Alpha  occ. eigenvalues --  -11.21428 -11.21380 -11.21290 -11.21152 -11.21093
 Alpha  occ. eigenvalues --  -11.21069 -11.20992  -1.08521  -1.08400  -1.03599
 Alpha  occ. eigenvalues --   -1.03504  -0.96047  -0.95946  -0.87064  -0.86960
 Alpha  occ. eigenvalues --   -0.79680  -0.79566  -0.78398  -0.78155  -0.65289
 Alpha  occ. eigenvalues --   -0.64914  -0.60999  -0.60905  -0.59419  -0.59316
 Alpha  occ. eigenvalues --   -0.57683  -0.57538  -0.55355  -0.55215  -0.52737
 Alpha  occ. eigenvalues --   -0.52644  -0.52505  -0.52334  -0.50005  -0.49885
 Alpha  occ. eigenvalues --   -0.48004  -0.47891  -0.46816  -0.46594  -0.46147
 Alpha  occ. eigenvalues --   -0.45795  -0.45713  -0.45237  -0.43853  -0.43755
 Alpha virt. eigenvalues --    0.19701   0.22336   0.23661   0.24550   0.25848
 Alpha virt. eigenvalues --    0.26009   0.27001   0.27808   0.28123   0.29764
 Alpha virt. eigenvalues --    0.31066   0.31507   0.31654   0.31860   0.32195

 Mulliken charges:
               1
     1  C   -0.302250
     2  C   -0.299681
     3  C   -0.475841
     4  H    0.152611
     5  H    0.150228
     6  H    0.151970
     7  H    0.152219
     8  H    0.155575
     9  H    0.155527
    10  H    0.160373
    11  C   -0.297762
    12  C   -0.307132
    13  C   -0.475626
    14  H    0.149538
    15  H    0.150184
    16  H    0.158138
    17  H    0.152244
    18  H    0.155730
    19  H    0.155287
    20  H    0.160640
    21  C   -0.297978
    22  C   -0.300715
    23  C   -0.475589
    24  H    0.149770
    25  H    0.148450
    26  H    0.152099
    27  H    0.152481
    28  H    0.155019
    29  H    0.155208
    30  H    0.160285
    31  C   -0.306591
    32  C   -0.299605
    33  C   -0.478675
    34  H    0.149547
    35  H    0.158015
    36  H    0.151878
    37  H    0.150712
    38  H    0.159182
    39  H    0.154674
    40  H    0.159861
 Sum of Mulliken charges =  -0.00000

 Dipole moment (field-independent basis, Debye):
    X=             -0.0450    Y=              0.0314    Z=              0.0150  Tot=              0.0569
 Quadrupole moment (field-independent basis, Debye-Ang):
   XX=            -84.6449   YY=            -85.7401   ZZ=            -84.3149
   XY=             -1.3375   XZ=              0.2744   YZ=              0.1822

 Normal termination of Gaussian 16 at Thu May  6 03:44:16 2021.
