 Gaussian 16, Revision A.03,
 Gaussian 16:  EM64L-G16RevA.03 25-Dec-2016

 -------------
 #p 6-31g* mp2
 -------------

 ------------------------------------------------------
 Input file generated by CHIRIPA (05-May-2021 14:57:23)
 ------------------------------------------------------
 Symbolic Z-matrix:
 Charge =  0 Multiplicity = 1

                         Standard orientation:
 ---------------------------------------------------------------------
 Center     Atomic      Atomic             Coordinates (Angstroms)
 Number     Number       Type             X           Y           Z
 ---------------------------------------------------------------------
      1          6           0       -2.558023    1.809345    1.551564
      2          6           0       -3.596615    2.046920    0.645249
      3          6           0       -4.128991    1.001100   -0.114609
      4          6           0       -3.596516   -0.275604    0.057974
      5          6           0       -2.561870   -0.544119    0.952792
      6          6           0       -2.044870    0.516862    1.702177
      7          1           0       -2.150433    2.627651    2.137772
      8          1           0       -3.997098    3.049659    0.526198
      9          1           0       -4.933149    1.156952   -0.823453
     10          1           0       -2.183319   -1.554446    1.049517
     11          1           0       -1.238298    0.329416    2.405277
     12          7           0       -4.151980   -1.390792   -0.740910
     13          8           0       -3.665417   -2.506497   -0.570332
     14          8           0       -5.063397   -1.128055   -1.522527
     15          6           0        1.684979    1.604347   -1.064732
     16          6           0        2.977945    1.687494   -1.591842
     17          6           0        3.994184    0.854400   -1.114595
     18          6           0        3.680918   -0.054419   -0.105039
     19          6           0        2.402504   -0.161131    0.440452
     20          6           0        1.401884    0.681927   -0.052054
     21          1           0        0.901607    2.255384   -1.441395
     22          1           0        3.200688    2.402912   -2.378358
     23          1           0        5.003803    0.897705   -1.504738
     24          1           0        2.210880   -0.884248    1.223905
     25          1           0        0.398655    0.615147    0.359187
     26          7           0        4.748498   -0.941652    0.408277
     27          8           0        4.446830   -1.733920    1.298190
     28          8           0        5.866717   -0.827997   -0.089018
 ---------------------------------------------------------------------

 SCF Done:  E(RHF) =  -868.336952505     A.U. after   16 cycles
 E2 =    -0.2601052554D+01 EUMP2 =    -0.87093800505808D+03

 The electronic state is 1-A.
 Alpha  occ. eigenvalues --  -20.61485 -20.61478 -20.60974 -20.60966 -15.86549
 Alpha  occ. eigenvalues --  -15.86026 -11.32144 -11.31432 -11.28791 -11.28735
 Alpha  occ. eigenvalues --  -11.28548 -11.28023 -11.27979 -11.27840 -11.27756
 Alpha  occ. eigenvalues --  -11.27727 -11.27005 -11.26929  -1.60557  -1.60047
 Alpha  occ. eigenvalues --   -1.40103  -1.39600  -1.20373  -1.19596  -1.09712
 Alpha  occ. eigenvalues --   -1.08980  -1.05817  -1.05008  -0.96493  -0.95815
 Alpha  occ. eigenvalues --   -0.87185  -0.86398  -0.83330  -0.82650  -0.78339
 Alpha  occ. eigenvalues --   -0.77694  -0.72757  -0.72244  -0.71888  -0.71425
 Alpha  occ. eigenvalues --   -0.71370  -0.70713  -0.66004  -0.65832  -0.65247
 Alpha  occ. eigenvalues --   -0.65007  -0.63137  -0.62355  -0.56258  -0.55516
 Alpha  occ. eigenvalues --   -0.54222  -0.53877  -0.53331  -0.52968  -0.49537
 Alpha  occ. eigenvalues --   -0.49500  -0.49005  -0.48997  -0.45457  -0.44997
 Alpha  occ. eigenvalues --   -0.38358  -0.37572  -0.37408  -0.36614
 Alpha virt. eigenvalues --    0.04197   0.04839   0.10092   0.11069   0.15540
 Alpha virt. eigenvalues --    0.16324   0.19958   0.21681   0.25531   0.27435
 Alpha virt. eigenvalues --    0.27996   0.28291   0.30171   0.31329   0.31887

 Mulliken charges:
               1
     1  C   -0.172636
     2  C   -0.219842
     3  C   -0.169452
     4  C    0.159437
     5  C   -0.170817
     6  C   -0.233188
     7  H    0.229607
     8  H    0.226679
     9  H    0.278981
    10  H    0.279844
    11  H    0.226425
    12  N    0.487997
    13  O   -0.457048
    14  O   -0.458031
    15  C   -0.174430
    16  C   -0.217940
    17  C   -0.171043
    18  C    0.159652
    19  C   -0.174653
    20  C   -0.226307
    21  H    0.225722
    22  H    0.224009
    23  H    0.276399
    24  H    0.271980
    25  H    0.230727
    26  N    0.488154
    27  O   -0.460846
    28  O   -0.459380
 Sum of Mulliken charges =  -0.00000

 Dipole moment (field-independent basis, Debye):
    X=             -2.0905    Y=              7.0557    Z=              0.9385  Tot=              7.4185
 Quadrupole moment (field-independent basis, Debye-Ang):
   XX=           -142.0566   YY=           -105.2081   ZZ=           -102.0908
   XY=             -3.8115   XZ=            -17.2592   YZ=             -3.8889

 Normal termination of Gaussian 16 at Fri May  7 04:56:13 2021.
