 Gaussian 16, Revision A.03,
 Gaussian 16:  EM64L-G16RevA.03 25-Dec-2016

 -------------
 #p 6-31g* mp2
 -------------

 ------------------------------------------------------
 Input file generated by CHIRIPA (05-May-2021 14:55:21)
 ------------------------------------------------------
 Symbolic Z-matrix:
 Charge =  0 Multiplicity = 1

                         Standard orientation:
 ---------------------------------------------------------------------
 Center     Atomic      Atomic             Coordinates (Angstroms)
 Number     Number       Type             X           Y           Z
 ---------------------------------------------------------------------
      1          6           0       -1.570108    0.698627    1.012403
      2          6           0       -2.406284    1.718549    0.546477
      3          6           0       -3.675802    1.421072    0.042115
      4          6           0       -4.078856    0.086803    0.018348
      5          6           0       -3.268789   -0.951614    0.475263
      6          6           0       -2.003265   -0.630856    0.975375
      7          1           0       -0.585467    0.938757    1.402552
      8          1           0       -2.072525    2.751938    0.574019
      9          1           0       -4.343468    2.191035   -0.325030
     10          1           0       -3.629283   -1.972321    0.435015
     11          1           0       -1.356010   -1.424999    1.336544
     12          7           0       -5.420723   -0.240446   -0.513347
     13          8           0       -5.752355   -1.423896   -0.523485
     14          8           0       -6.115438    0.692703   -0.909883
     15          6           0        5.665424   -0.370658   -0.002306
     16          6           0        6.664747    0.689014   -0.467529
     17          6           0        8.116107    0.293438   -0.193905
     18          1           0        5.802241   -0.547386    1.073330
     19          1           0        5.888550   -1.321328   -0.506128
     20          1           0        6.438942    1.637754    0.035977
     21          1           0        6.525404    0.863379   -1.542144
     22          1           0        8.364714   -0.639935   -0.709280
     23          1           0        8.277760    0.138840    0.877808
     24          1           0        8.813559    1.065131   -0.534358
     25          6           0        4.210287    0.010369   -0.268998
     26          6           0        3.210964   -1.049303    0.196226
     27          6           0        1.759605   -0.653727   -0.077400
     28          1           0        3.987161    0.961038    0.234824
     29          1           0        4.073469    0.187097   -1.344635
     30          1           0        3.350307   -1.223668    1.270840
     31          1           0        3.436770   -1.998043   -0.307282
     32          1           0        1.597952   -0.499130   -1.149113
     33          1           0        1.510997    0.279646    0.437975
     34          1           0        1.062152   -1.425420    0.263053
 ---------------------------------------------------------------------

 SCF Done:  E(RHF) =  -669.534822656     A.U. after   15 cycles
 E2 =    -0.2091617089D+01 EUMP2 =    -0.67162643974486D+03

 The electronic state is 1-A.
 Alpha  occ. eigenvalues --  -20.60707 -20.60702 -15.85761 -11.31108 -11.27686
 Alpha  occ. eigenvalues --  -11.27679 -11.27382 -11.26683 -11.26671 -11.22455
 Alpha  occ. eigenvalues --  -11.22209 -11.22107 -11.22089 -11.21945 -11.21479
 Alpha  occ. eigenvalues --   -1.59784  -1.39338  -1.19282  -1.09110  -1.08675
 Alpha  occ. eigenvalues --   -1.04688  -1.04240  -0.96716  -0.95511  -0.87738
 Alpha  occ. eigenvalues --   -0.86079  -0.82353  -0.80313  -0.78888  -0.77402
 Alpha  occ. eigenvalues --   -0.71980  -0.71107  -0.70406  -0.65738  -0.64934
 Alpha  occ. eigenvalues --   -0.64710  -0.62058  -0.61639  -0.60085  -0.58309
 Alpha  occ. eigenvalues --   -0.56101  -0.55127  -0.53501  -0.53138  -0.52922
 Alpha  occ. eigenvalues --   -0.52732  -0.50626  -0.48752  -0.48735  -0.48597
 Alpha  occ. eigenvalues --   -0.47324  -0.46436  -0.46341  -0.44748  -0.44484
 Alpha  occ. eigenvalues --   -0.37225  -0.36288
 Alpha virt. eigenvalues --    0.05124   0.11298   0.16573   0.20065   0.22468
 Alpha virt. eigenvalues --    0.23942   0.25248   0.26074   0.26400   0.27285
 Alpha virt. eigenvalues --    0.29144   0.29464   0.31184   0.31635   0.32277

 Mulliken charges:
               1
     1  C   -0.168266
     2  C   -0.220114
     3  C   -0.170833
     4  C    0.158298
     5  C   -0.171578
     6  C   -0.219462
     7  H    0.228301
     8  H    0.222951
     9  H    0.275261
    10  H    0.275245
    11  H    0.223744
    12  N    0.488093
    13  O   -0.460714
    14  O   -0.460714
    15  C   -0.298730
    16  C   -0.300061
    17  C   -0.476051
    18  H    0.149949
    19  H    0.151120
    20  H    0.151703
    21  H    0.152935
    22  H    0.156107
    23  H    0.155491
    24  H    0.161582
    25  C   -0.298830
    26  C   -0.300560
    27  C   -0.477089
    28  H    0.147905
    29  H    0.151759
    30  H    0.151513
    31  H    0.155649
    32  H    0.162970
    33  H    0.146225
    34  H    0.156205
 Sum of Mulliken charges =  -0.00000

 Dipole moment (field-independent basis, Debye):
    X=              4.9377    Y=              1.1336    Z=              1.8053  Tot=              5.3782
 Quadrupole moment (field-independent basis, Debye-Ang):
   XX=           -134.5436   YY=            -89.7089   ZZ=            -94.5210
   XY=             -5.1974   XZ=             -7.7829   YZ=             -0.3333

 Normal termination of Gaussian 16 at Thu May  6 14:10:21 2021.
