 Gaussian 16, Revision A.03,
 Gaussian 16:  EM64L-G16RevA.03 25-Dec-2016

 -------------
 #p 6-31g* mp2
 -------------

 ------------------------------------------------------
 Input file generated by CHIRIPA (05-May-2021 14:57:21)
 ------------------------------------------------------
 Symbolic Z-matrix:
 Charge =  0 Multiplicity = 1

                         Standard orientation:
 ---------------------------------------------------------------------
 Center     Atomic      Atomic             Coordinates (Angstroms)
 Number     Number       Type             X           Y           Z
 ---------------------------------------------------------------------
      1          6           0        4.350986    1.937711    0.186208
      2          6           0        4.878615    0.923218   -0.619355
      3          6           0        4.230011   -0.310949   -0.722762
      4          6           0        3.050432   -0.497206   -0.003603
      5          6           0        2.499743    0.493956    0.807340
      6          6           0        3.165324    1.720226    0.895734
      7          1           0        4.861431    2.893374    0.260706
      8          1           0        5.799256    1.089306   -1.171514
      9          1           0        4.616426   -1.113632   -1.339043
     10          1           0        1.580321    0.298737    1.345830
     11          1           0        2.753248    2.506281    1.522117
     12          7           0        2.354797   -1.799583   -0.105129
     13          8           0        1.317005   -1.938638    0.538523
     14          8           0        2.860523   -2.656669   -0.826434
     15          6           0       -3.926178   -2.109433    0.241879
     16          6           0       -2.650716   -1.730876    0.673637
     17          6           0       -2.218458   -0.408334    0.537319
     18          6           0       -3.091500    0.513807   -0.037783
     19          6           0       -4.368156    0.167464   -0.477652
     20          6           0       -4.779323   -1.160727   -0.331376
     21          1           0       -4.253774   -3.139010    0.351642
     22          1           0       -1.986023   -2.465519    1.119200
     23          1           0       -1.236230   -0.088070    0.863012
     24          1           0       -5.008309    0.922283   -0.917959
     25          1           0       -5.770407   -1.451870   -0.667581
     26          7           0       -2.645052    1.916914   -0.187367
     27          8           0       -3.433155    2.710333   -0.697286
     28          8           0       -1.515476    2.196682    0.208139
 ---------------------------------------------------------------------

 SCF Done:  E(RHF) =  -868.340893751     A.U. after   16 cycles
 E2 =    -0.2598951585D+01 EUMP2 =    -0.87093984533654D+03

 The electronic state is 1-A.
 Alpha  occ. eigenvalues --  -20.61192 -20.61136 -20.60604 -20.60573 -15.86193
 Alpha  occ. eigenvalues --  -15.85630 -11.31170 -11.30665 -11.27698 -11.27690
 Alpha  occ. eigenvalues --  -11.27343 -11.27226 -11.27112 -11.26850 -11.26648
 Alpha  occ. eigenvalues --  -11.26555 -11.26205 -11.25971  -1.60218  -1.59664
 Alpha  occ. eigenvalues --   -1.39792  -1.39230  -1.19298  -1.18795  -1.08764
 Alpha  occ. eigenvalues --   -1.08256  -1.04636  -1.04120  -0.95670  -0.95148
 Alpha  occ. eigenvalues --   -0.86064  -0.85550  -0.82528  -0.81973  -0.77626
 Alpha  occ. eigenvalues --   -0.77050  -0.72445  -0.71867  -0.71511  -0.70973
 Alpha  occ. eigenvalues --   -0.70419  -0.69912  -0.64959  -0.64644  -0.64437
 Alpha  occ. eigenvalues --   -0.64100  -0.62014  -0.61447  -0.55164  -0.54664
 Alpha  occ. eigenvalues --   -0.52983  -0.52737  -0.52500  -0.52186  -0.49202
 Alpha  occ. eigenvalues --   -0.49131  -0.48633  -0.48578  -0.45276  -0.44706
 Alpha  occ. eigenvalues --   -0.37253  -0.36779  -0.36205  -0.35704
 Alpha virt. eigenvalues --    0.04862   0.05443   0.11415   0.11935   0.16461
 Alpha virt. eigenvalues --    0.17017   0.20421   0.22395   0.25301   0.27853
 Alpha virt. eigenvalues --    0.28492   0.29687   0.30971   0.31581   0.31996

 Mulliken charges:
               1
     1  C   -0.169766
     2  C   -0.218527
     3  C   -0.170782
     4  C    0.156906
     5  C   -0.167112
     6  C   -0.216659
     7  H    0.227230
     8  H    0.223438
     9  H    0.274395
    10  H    0.274408
    11  H    0.230280
    12  N    0.491472
    13  O   -0.475573
    14  O   -0.457224
    15  C   -0.171251
    16  C   -0.219978
    17  C   -0.171932
    18  C    0.157271
    19  C   -0.172010
    20  C   -0.218964
    21  H    0.225555
    22  H    0.238573
    23  H    0.277618
    24  H    0.272744
    25  H    0.221251
    26  N    0.488624
    27  O   -0.461014
    28  O   -0.468974
 Sum of Mulliken charges =  -0.00000

 Dipole moment (field-independent basis, Debye):
    X=              1.1280    Y=             -0.3968    Z=              0.9098  Tot=              1.5025
 Quadrupole moment (field-independent basis, Debye-Ang):
   XX=            -74.2918   YY=           -114.5044   ZZ=           -103.2695
   XY=             25.9701   XZ=             -1.0748   YZ=              0.9678

 Normal termination of Gaussian 16 at Thu May  6 04:52:06 2021.
