 Gaussian 16, Revision A.03,
 Gaussian 16:  EM64L-G16RevA.03 25-Dec-2016

 -------------
 #p 6-31g* mp2
 -------------

 ------------------------------------------------------
 Input file generated by CHIRIPA (05-May-2021 14:51:14)
 ------------------------------------------------------
 Symbolic Z-matrix:
 Charge =  0 Multiplicity = 1

                         Standard orientation:
 ---------------------------------------------------------------------
 Center     Atomic      Atomic             Coordinates (Angstroms)
 Number     Number       Type             X           Y           Z
 ---------------------------------------------------------------------
      1          6           0        1.704804   -0.265981    0.666469
      2          6           0        1.583495   -0.854138    2.072648
      3          6           0        0.132836   -1.105678    2.485095
      4          1           0        1.140314    0.675352    0.619685
      5          1           0        1.231822   -0.950097   -0.051631
      6          1           0        2.057785   -0.169776    2.787711
      7          1           0        2.148497   -1.794082    2.116145
      8          1           0       -0.348118   -1.805952    1.794516
      9          1           0       -0.439346   -0.172417    2.469897
     10          1           0        0.069333   -1.526174    3.493565
     11          6           0        3.148975   -0.008933    0.239824
     12          6           0        3.270285    0.579224   -1.166355
     13          6           0        4.720943    0.830764   -1.578803
     14          1           0        3.621957    0.675183    0.957924
     15          1           0        3.713465   -0.950266    0.286608
     16          1           0        2.705282    1.519168   -1.209852
     17          1           0        2.795995   -0.105138   -1.881418
     18          1           0        5.293126   -0.102498   -1.563604
     19          1           0        5.201897    1.531038   -0.888223
     20          1           0        4.784446    1.251260   -2.587272
     21          6           0       -2.657592    0.850960   -0.598478
     22          6           0       -2.291594    1.843342    0.505700
     23          6           0       -2.759833    3.266498    0.200459
     24          1           0       -2.216747    1.188112   -1.546597
     25          1           0       -3.747137    0.856886   -0.740793
     26          1           0       -1.203193    1.834532    0.646844
     27          1           0       -2.733203    1.503687    1.451338
     28          1           0       -3.847601    3.296709    0.080258
     29          1           0       -2.308898    3.629434   -0.728809
     30          1           0       -2.487792    3.959407    1.002788
     31          6           0       -2.196187   -0.576046   -0.307815
     32          6           0       -2.562186   -1.568427   -1.411992
     33          6           0       -2.093947   -2.991584   -1.106751
     34          1           0       -1.106643   -0.581972   -0.165499
     35          1           0       -2.637032   -0.913198    0.640304
     36          1           0       -2.120576   -1.228772   -2.357631
     37          1           0       -3.650587   -1.559617   -1.553136
     38          1           0       -2.544881   -3.354520   -0.177485
     39          1           0       -1.006179   -3.021795   -0.986551
     40          1           0       -2.365988   -3.684493   -1.909080
 ---------------------------------------------------------------------

 SCF Done:  E(RHF) =  -470.730757887     A.U. after   11 cycles
 E2 =    -0.1586321382D+01 EUMP2 =    -0.47231707926914D+03

 The electronic state is 1-A.
 Alpha  occ. eigenvalues --  -11.21667 -11.21602 -11.21599 -11.21534 -11.21478
 Alpha  occ. eigenvalues --  -11.21415 -11.21311 -11.21121 -11.21117 -11.21102
 Alpha  occ. eigenvalues --  -11.21075 -11.20896  -1.08531  -1.08332  -1.03561
 Alpha  occ. eigenvalues --   -1.03504  -0.96013  -0.95934  -0.87029  -0.86962
 Alpha  occ. eigenvalues --   -0.79729  -0.79559  -0.78622  -0.77841  -0.65134
 Alpha  occ. eigenvalues --   -0.65009  -0.61044  -0.60836  -0.59404  -0.59302
 Alpha  occ. eigenvalues --   -0.57716  -0.57477  -0.55283  -0.55240  -0.52705
 Alpha  occ. eigenvalues --   -0.52668  -0.52506  -0.52313  -0.49973  -0.49880
 Alpha  occ. eigenvalues --   -0.48188  -0.47910  -0.46777  -0.46521  -0.46510
 Alpha  occ. eigenvalues --   -0.45654  -0.45618  -0.44680  -0.43810  -0.43722
 Alpha virt. eigenvalues --    0.20737   0.22161   0.23384   0.24013   0.25471
 Alpha virt. eigenvalues --    0.26159   0.26741   0.27715   0.28370   0.30356
 Alpha virt. eigenvalues --    0.30519   0.30769   0.31575   0.31905   0.32327

 Mulliken charges:
               1
     1  C   -0.308369
     2  C   -0.298451
     3  C   -0.482991
     4  H    0.154039
     5  H    0.150774
     6  H    0.151602
     7  H    0.151681
     8  H    0.160523
     9  H    0.159977
    10  H    0.158788
    11  C   -0.296678
    12  C   -0.299759
    13  C   -0.475747
    14  H    0.149900
    15  H    0.150038
    16  H    0.151585
    17  H    0.151597
    18  H    0.155396
    19  H    0.155394
    20  H    0.160412
    21  C   -0.296804
    22  C   -0.306063
    23  C   -0.475367
    24  H    0.148893
    25  H    0.148826
    26  H    0.155737
    27  H    0.152388
    28  H    0.155481
    29  H    0.155110
    30  H    0.159832
    31  C   -0.309712
    32  C   -0.298739
    33  C   -0.477760
    34  H    0.165517
    35  H    0.150033
    36  H    0.151115
    37  H    0.151350
    38  H    0.155649
    39  H    0.154158
    40  H    0.160645
 Sum of Mulliken charges =  -0.00000

 Dipole moment (field-independent basis, Debye):
    X=              0.0246    Y=              0.0006    Z=              0.0099  Tot=              0.0265
 Quadrupole moment (field-independent basis, Debye-Ang):
   XX=            -85.1190   YY=            -85.1576   ZZ=            -84.7338
   XY=              0.2097   XZ=             -0.1083   YZ=              0.4728

 Normal termination of Gaussian 16 at Thu May  6 00:51:15 2021.
