 Gaussian 16, Revision A.03,
 Gaussian 16:  EM64L-G16RevA.03 25-Dec-2016

 -------------
 #p 6-31g* mp2
 -------------

 ------------------------------------------------------
 Input file generated by CHIRIPA (05-May-2021 14:55:20)
 ------------------------------------------------------
 Symbolic Z-matrix:
 Charge =  0 Multiplicity = 1

                         Standard orientation:
 ---------------------------------------------------------------------
 Center     Atomic      Atomic             Coordinates (Angstroms)
 Number     Number       Type             X           Y           Z
 ---------------------------------------------------------------------
      1          6           0        1.434227    0.056147    0.202190
      2          6           0        2.111594    0.919538   -0.665134
      3          6           0        3.497848    0.826178   -0.820480
      4          6           0        4.178308   -0.146575   -0.089717
      5          6           0        3.531851   -1.021300    0.782200
      6          6           0        2.145264   -0.909813    0.921820
      7          1           0        0.357222    0.135712    0.316759
      8          1           0        1.561979    1.670672   -1.225283
      9          1           0        4.047320    1.481785   -1.485069
     10          1           0        4.106986   -1.759989    1.327156
     11          1           0        1.621840   -1.581675    1.596115
     12          7           0        5.646050   -0.255006   -0.245851
     13          8           0        6.222528   -1.120513    0.409289
     14          8           0        6.192195    0.527565   -1.020412
     15          6           0       -5.802078    0.155547    0.060702
     16          6           0       -6.373608   -1.054388   -0.679158
     17          6           0       -7.902210   -1.058650   -0.713086
     18          1           0       -6.193080    0.167852    1.087304
     19          1           0       -6.161615    1.074988   -0.421747
     20          1           0       -6.011986   -1.971283   -0.196301
     21          1           0       -5.981050   -1.063920   -1.704059
     22          1           0       -8.278938   -0.160734   -1.213511
     23          1           0       -8.310051   -1.073252    0.302815
     24          1           0       -8.289496   -1.932201   -1.246731
     25          6           0       -4.275123    0.173935    0.103098
     26          6           0       -3.703593    1.383871    0.842959
     27          6           0       -2.174991    1.388132    0.876886
     28          1           0       -3.915586   -0.745505    0.585547
     29          1           0       -3.884121    0.161632   -0.923504
     30          1           0       -4.096151    1.393403    1.867860
     31          1           0       -4.065215    2.300765    0.360101
     32          1           0       -1.767151    1.402735   -0.139015
     33          1           0       -1.798263    0.490217    1.377311
     34          1           0       -1.787705    2.261684    1.410532
 ---------------------------------------------------------------------

 SCF Done:  E(RHF) =  -669.535305361     A.U. after   15 cycles
 E2 =    -0.2091174332D+01 EUMP2 =    -0.67162647969360D+03

 The electronic state is 1-A.
 Alpha  occ. eigenvalues --  -20.60670 -20.60665 -15.85724 -11.31056 -11.27636
 Alpha  occ. eigenvalues --  -11.27633 -11.27255 -11.26622 -11.26611 -11.22660
 Alpha  occ. eigenvalues --  -11.22542 -11.22282 -11.22192 -11.22069 -11.21555
 Alpha  occ. eigenvalues --   -1.59747  -1.39302  -1.19225  -1.09270  -1.08615
 Alpha  occ. eigenvalues --   -1.04631  -1.04411  -0.96901  -0.95455  -0.87930
 Alpha  occ. eigenvalues --   -0.86025  -0.82304  -0.80502  -0.79036  -0.77359
 Alpha  occ. eigenvalues --   -0.71942  -0.71071  -0.70321  -0.65894  -0.64873
 Alpha  occ. eigenvalues --   -0.64642  -0.61990  -0.61803  -0.60268  -0.58506
 Alpha  occ. eigenvalues --   -0.56198  -0.55232  -0.53550  -0.53197  -0.52953
 Alpha  occ. eigenvalues --   -0.52721  -0.50849  -0.48801  -0.48699  -0.48670
 Alpha  occ. eigenvalues --   -0.47506  -0.46584  -0.46477  -0.44715  -0.44631
 Alpha  occ. eigenvalues --   -0.37184  -0.36246
 Alpha virt. eigenvalues --    0.05182   0.11409   0.16671   0.20449   0.22206
 Alpha virt. eigenvalues --    0.23727   0.25444   0.25932   0.26896   0.27094
 Alpha virt. eigenvalues --    0.29463   0.29936   0.30768   0.31200   0.32150

 Mulliken charges:
               1
     1  C   -0.178230
     2  C   -0.222703
     3  C   -0.170765
     4  C    0.157799
     5  C   -0.170629
     6  C   -0.221907
     7  H    0.242148
     8  H    0.222540
     9  H    0.274995
    10  H    0.274979
    11  H    0.222584
    12  N    0.488059
    13  O   -0.460886
    14  O   -0.460898
    15  C   -0.298956
    16  C   -0.300193
    17  C   -0.476166
    18  H    0.151153
    19  H    0.151093
    20  H    0.152219
    21  H    0.152509
    22  H    0.156053
    23  H    0.155982
    24  H    0.161933
    25  C   -0.299228
    26  C   -0.299166
    27  C   -0.483197
    28  H    0.148692
    29  H    0.149583
    30  H    0.156116
    31  H    0.155883
    32  H    0.150399
    33  H    0.150883
    34  H    0.167322
 Sum of Mulliken charges =  -0.00000

 Dipole moment (field-independent basis, Debye):
    X=             -5.5213    Y=              0.4384    Z=              0.5818  Tot=              5.5691
 Quadrupole moment (field-independent basis, Debye-Ang):
   XX=           -138.9728   YY=            -91.9982   ZZ=            -92.4130
   XY=              2.0170   XZ=              2.6142   YZ=             -3.4076

 Normal termination of Gaussian 16 at Thu May  6 20:39:44 2021.
