 Gaussian 16, Revision A.03,
 Gaussian 16:  EM64L-G16RevA.03 25-Dec-2016

 -------------
 #p 6-31g* mp2
 -------------

 ------------------------------------------------------
 Input file generated by CHIRIPA (05-May-2021 14:57:23)
 ------------------------------------------------------
 Symbolic Z-matrix:
 Charge =  0 Multiplicity = 1

                         Standard orientation:
 ---------------------------------------------------------------------
 Center     Atomic      Atomic             Coordinates (Angstroms)
 Number     Number       Type             X           Y           Z
 ---------------------------------------------------------------------
      1          6           0       -1.248417   -1.356395    0.735603
      2          6           0       -1.813264   -0.335345    1.506916
      3          6           0       -3.026343    0.249653    1.131732
      4          6           0       -3.650250   -0.212886   -0.025890
      5          6           0       -3.112736   -1.228376   -0.815287
      6          6           0       -1.898809   -1.798872   -0.420998
      7          1           0       -0.305738   -1.805203    1.034475
      8          1           0       -1.310389    0.010295    2.405635
      9          1           0       -3.485915    1.041711    1.710399
     10          1           0       -3.637508   -1.551790   -1.706037
     11          1           0       -1.462477   -2.591666   -1.021945
     12          7           0       -4.934932    0.398749   -0.433193
     13          8           0       -5.464770   -0.026595   -1.457396
     14          8           0       -5.387702    1.291909    0.279478
     15          6           0        4.582804   -1.933054   -0.134363
     16          6           0        3.402044   -1.778746    0.599472
     17          6           0        2.759457   -0.538506    0.658086
     18          6           0        3.327894    0.530898   -0.032236
     19          6           0        4.503150    0.408843   -0.771942
     20          6           0        5.128628   -0.840692   -0.816524
     21          1           0        5.075335   -2.900113   -0.174445
     22          1           0        2.975874   -2.625337    1.130235
     23          1           0        1.844324   -0.391088    1.218636
     24          1           0        4.903984    1.271226   -1.290637
     25          1           0        6.045514   -0.957599   -1.387223
     26          7           0        2.656674    1.848805    0.022389
     27          8           0        3.177723    2.775365   -0.594562
     28          8           0        1.622230    1.930265    0.681121
 ---------------------------------------------------------------------

 SCF Done:  E(RHF) =  -868.336676042     A.U. after   16 cycles
 E2 =    -0.2600442668D+01 EUMP2 =    -0.87093711871074D+03

 The electronic state is 1-A.
 Alpha  occ. eigenvalues --  -20.61403 -20.61389 -20.60548 -20.60537 -15.86458
 Alpha  occ. eigenvalues --  -15.85598 -11.31947 -11.31011 -11.28624 -11.28469
 Alpha  occ. eigenvalues --  -11.28257 -11.27634 -11.27589 -11.27520 -11.27492
 Alpha  occ. eigenvalues --  -11.27470 -11.26697 -11.26612  -1.60467  -1.59617
 Alpha  occ. eigenvalues --   -1.40020  -1.39169  -1.20126  -1.19188  -1.09484
 Alpha  occ. eigenvalues --   -1.08614  -1.05565  -1.04587  -0.96308  -0.95441
 Alpha  occ. eigenvalues --   -0.86945  -0.86008  -0.83152  -0.82258  -0.78191
 Alpha  occ. eigenvalues --   -0.77264  -0.72677  -0.71822  -0.71789  -0.71270
 Alpha  occ. eigenvalues --   -0.70934  -0.70386  -0.65781  -0.65570  -0.64864
 Alpha  occ. eigenvalues --   -0.64615  -0.62923  -0.61931  -0.56041  -0.55230
 Alpha  occ. eigenvalues --   -0.53853  -0.53653  -0.52899  -0.52700  -0.49441
 Alpha  occ. eigenvalues --   -0.49419  -0.48584  -0.48568  -0.45398  -0.44564
 Alpha  occ. eigenvalues --   -0.38082  -0.37292  -0.37082  -0.36148
 Alpha virt. eigenvalues --    0.04346   0.05248   0.10487   0.11442   0.15786
 Alpha virt. eigenvalues --    0.16668   0.18808   0.22066   0.25234   0.26642
 Alpha virt. eigenvalues --    0.27635   0.29505   0.30319   0.31469   0.32142

 Mulliken charges:
               1
     1  C   -0.170118
     2  C   -0.210288
     3  C   -0.168768
     4  C    0.159572
     5  C   -0.171034
     6  C   -0.217846
     7  H    0.211461
     8  H    0.225872
     9  H    0.277833
    10  H    0.275063
    11  H    0.220635
    12  N    0.488077
    13  O   -0.461192
    14  O   -0.458885
    15  C   -0.170321
    16  C   -0.220321
    17  C   -0.172735
    18  C    0.159760
    19  C   -0.169623
    20  C   -0.218085
    21  H    0.227693
    22  H    0.219649
    23  H    0.268860
    24  H    0.278439
    25  H    0.226462
    26  N    0.488389
    27  O   -0.456608
    28  O   -0.461941
 Sum of Mulliken charges =  -0.00000

 Dipole moment (field-independent basis, Debye):
    X=              6.9920    Y=             -6.5767    Z=              1.1583  Tot=              9.6686
 Quadrupole moment (field-independent basis, Debye-Ang):
   XX=           -119.2969   YY=           -107.4087   ZZ=           -100.8409
   XY=             -5.8700   XZ=             -8.9082   YZ=              1.4301

 Normal termination of Gaussian 16 at Fri May  7 03:21:12 2021.
