 Gaussian 16, Revision A.03,
 Gaussian 16:  EM64L-G16RevA.03 25-Dec-2016

 -------------
 #p 6-31g* mp2
 -------------

 ------------------------------------------------------
 Input file generated by CHIRIPA (05-May-2021 14:51:11)
 ------------------------------------------------------
 Symbolic Z-matrix:
 Charge =  0 Multiplicity = 1

                         Standard orientation:
 ---------------------------------------------------------------------
 Center     Atomic      Atomic             Coordinates (Angstroms)
 Number     Number       Type             X           Y           Z
 ---------------------------------------------------------------------
      1          6           0        4.713755   -0.441704    0.316811
      2          6           0        5.723299   -0.117356   -0.784825
      3          6           0        7.139739   -0.581322   -0.443902
      4          1           0        5.039710    0.029251    1.254308
      5          1           0        4.712384   -1.525869    0.495638
      6          1           0        5.721764    0.965719   -0.962483
      7          1           0        5.394802   -0.588979   -1.719853
      8          1           0        7.162969   -1.664562   -0.286891
      9          1           0        7.491789   -0.101030    0.474782
     10          1           0        7.845152   -0.339426   -1.244989
     11          6           0        3.293228    0.015940   -0.009370
     12          6           0        2.283684   -0.308408    1.092267
     13          6           0        0.867244    0.155558    0.751344
     14          1           0        3.294599    1.100105   -0.188196
     15          1           0        2.967273   -0.455015   -0.946866
     16          1           0        2.612181    0.163215    2.027295
     17          1           0        2.285219   -1.391483    1.269924
     18          1           0        0.515193   -0.324734   -0.167341
     19          1           0        0.844013    1.238798    0.594333
     20          1           0        0.161831   -0.086339    1.552430
     21          6           0       -4.051081   -0.530025   -0.324763
     22          6           0       -5.375278   -1.166241    0.099165
     23          6           0       -5.455408   -2.652717   -0.249780
     24          1           0       -3.918345   -0.661662   -1.407352
     25          1           0       -3.223101   -1.066362    0.159165
     26          1           0       -6.200586   -0.627990   -0.384332
     27          1           0       -5.504968   -1.032907    1.180839
     28          1           0       -4.651964   -3.208326    0.244565
     29          1           0       -5.351534   -2.801109   -1.329499
     30          1           0       -6.410201   -3.087409    0.062108
     31          6           0       -3.955901    0.955790    0.017323
     32          6           0       -2.631705    1.592005   -0.406607
     33          6           0       -2.551575    3.078481   -0.057662
     34          1           0       -4.783883    1.492125   -0.466606
     35          1           0       -4.088639    1.087426    1.099911
     36          1           0       -2.502014    1.458671   -1.488280
     37          1           0       -1.806397    1.053754    0.076890
     38          1           0       -2.655449    3.226873    1.022057
     39          1           0       -3.355018    3.634090   -0.552006
     40          1           0       -1.596782    3.513173   -0.369549
 ---------------------------------------------------------------------

 SCF Done:  E(RHF) =  -470.733188401     A.U. after   11 cycles
 E2 =    -0.1582672657D+01 EUMP2 =    -0.47231586105823D+03

 The electronic state is 1-A.
 Alpha  occ. eigenvalues --  -11.21633 -11.21615 -11.21560 -11.21428 -11.21412
 Alpha  occ. eigenvalues --  -11.21368 -11.21332 -11.21264 -11.21133 -11.21082
 Alpha  occ. eigenvalues --  -11.21043 -11.20987  -1.08457  -1.08349  -1.03570
 Alpha  occ. eigenvalues --   -1.03442  -0.96024  -0.95905  -0.87054  -0.86916
 Alpha  occ. eigenvalues --   -0.79706  -0.79448  -0.78283  -0.78135  -0.65084
 Alpha  occ. eigenvalues --   -0.64985  -0.60960  -0.60856  -0.59392  -0.59272
 Alpha  occ. eigenvalues --   -0.57649  -0.57495  -0.55308  -0.55193  -0.52760
 Alpha  occ. eigenvalues --   -0.52599  -0.52440  -0.52327  -0.49952  -0.49849
 Alpha  occ. eigenvalues --   -0.48029  -0.47758  -0.46654  -0.46538  -0.45877
 Alpha  occ. eigenvalues --   -0.45732  -0.45682  -0.45541  -0.43786  -0.43696
 Alpha virt. eigenvalues --    0.22027   0.22968   0.23777   0.24685   0.25917
 Alpha virt. eigenvalues --    0.26551   0.27027   0.27411   0.27830   0.29093
 Alpha virt. eigenvalues --    0.30920   0.31036   0.31447   0.31776   0.32352

 Mulliken charges:
               1
     1  C   -0.298355
     2  C   -0.299642
     3  C   -0.475722
     4  H    0.149689
     5  H    0.149572
     6  H    0.151966
     7  H    0.151997
     8  H    0.155204
     9  H    0.155197
    10  H    0.160317
    11  C   -0.298488
    12  C   -0.300741
    13  C   -0.477593
    14  H    0.149599
    15  H    0.149845
    16  H    0.152030
    17  H    0.151983
    18  H    0.156785
    19  H    0.156671
    20  H    0.159124
    21  C   -0.298441
    22  C   -0.299534
    23  C   -0.475649
    24  H    0.149343
    25  H    0.149474
    26  H    0.151884
    27  H    0.151773
    28  H    0.155024
    29  H    0.155051
    30  H    0.160096
    31  C   -0.297498
    32  C   -0.311057
    33  C   -0.475247
    34  H    0.148903
    35  H    0.148933
    36  H    0.150592
    37  H    0.168277
    38  H    0.154578
    39  H    0.154663
    40  H    0.159399
 Sum of Mulliken charges =  -0.00000

 Dipole moment (field-independent basis, Debye):
    X=              0.0538    Y=             -0.0136    Z=              0.0055  Tot=              0.0557
 Quadrupole moment (field-independent basis, Debye-Ang):
   XX=            -86.0117   YY=            -85.2589   ZZ=            -83.8245
   XY=              0.2101   XZ=              0.2786   YZ=              0.0411

 Normal termination of Gaussian 16 at Wed May  5 19:51:53 2021.
