 Gaussian 16, Revision A.03,
 Gaussian 16:  EM64L-G16RevA.03 25-Dec-2016

 -------------
 #p 6-31g* mp2
 -------------

 ------------------------------------------------------
 Input file generated by CHIRIPA (05-May-2021 14:55:25)
 ------------------------------------------------------
 Symbolic Z-matrix:
 Charge =  0 Multiplicity = 1

                         Standard orientation:
 ---------------------------------------------------------------------
 Center     Atomic      Atomic             Coordinates (Angstroms)
 Number     Number       Type             X           Y           Z
 ---------------------------------------------------------------------
      1          6           0        0.512129    0.490909    2.202880
      2          6           0        0.831996   -0.844832    1.938305
      3          6           0        1.717062   -1.172069    0.906741
      4          6           0        2.266331   -0.133676    0.156186
      5          6           0        1.967346    1.206739    0.395322
      6          6           0        1.079824    1.510634    1.431903
      7          1           0       -0.176365    0.736049    3.006172
      8          1           0        0.392628   -1.638837    2.535429
      9          1           0        1.982079   -2.197700    0.680327
     10          1           0        2.421253    1.976396   -0.217061
     11          1           0        0.833234    2.548875    1.635113
     12          7           0        3.204611   -0.467751   -0.938541
     13          8           0        3.675075    0.465517   -1.585310
     14          8           0        3.451804   -1.656542   -1.129089
     15          6           0       -2.599405    0.783450   -0.104574
     16          6           0       -2.313608    1.899052   -1.110425
     17          6           0       -2.108711    3.259058   -0.442448
     18          1           0       -3.492401    1.044948    0.479481
     19          1           0       -1.766397    0.720613    0.609251
     20          1           0       -3.146263    1.958848   -1.822975
     21          1           0       -1.421299    1.634778   -1.692285
     22          1           0       -1.265395    3.222670    0.254756
     23          1           0       -3.000159    3.548581    0.123323
     24          1           0       -1.905757    4.041986   -1.179805
     25          6           0       -2.806526   -0.582192   -0.757147
     26          6           0       -3.092322   -1.697794    0.248705
     27          6           0       -3.297220   -3.057800   -0.419273
     28          1           0       -3.639534   -0.519355   -1.470972
     29          1           0       -1.913530   -0.843690   -1.341203
     30          1           0       -3.984631   -1.433520    0.830564
     31          1           0       -2.259668   -1.757590    0.961253
     32          1           0       -2.405771   -3.347322   -0.985045
     33          1           0       -4.140536   -3.021411   -1.116477
     34          1           0       -3.500173   -3.840728    0.318084
 ---------------------------------------------------------------------

 SCF Done:  E(RHF) =  -669.534684695     A.U. after   15 cycles
 E2 =    -0.2094861970D+01 EUMP2 =    -0.67162954666444D+03

 The electronic state is 1-A.
 Alpha  occ. eigenvalues --  -20.60889 -20.60883 -15.85945 -11.31359 -11.27951
 Alpha  occ. eigenvalues --  -11.27943 -11.27672 -11.26954 -11.26935 -11.21993
 Alpha  occ. eigenvalues --  -11.21911 -11.21645 -11.21602 -11.21567 -11.21381
 Alpha  occ. eigenvalues --   -1.59964  -1.39516  -1.19554  -1.08964  -1.08717
 Alpha  occ. eigenvalues --   -1.04958  -1.03894  -0.96346  -0.95758  -0.87366
 Alpha  occ. eigenvalues --   -0.86350  -0.82582  -0.79962  -0.78573  -0.77618
 Alpha  occ. eigenvalues --   -0.72161  -0.71290  -0.70645  -0.65433  -0.65197
 Alpha  occ. eigenvalues --   -0.64923  -0.62327  -0.61284  -0.59710  -0.57964
 Alpha  occ. eigenvalues --   -0.55699  -0.55406  -0.53336  -0.53069  -0.53038
 Alpha  occ. eigenvalues --   -0.52739  -0.50290  -0.48922  -0.48913  -0.48287
 Alpha  occ. eigenvalues --   -0.46996  -0.46103  -0.46029  -0.44911  -0.44116
 Alpha  occ. eigenvalues --   -0.37386  -0.36533
 Alpha virt. eigenvalues --    0.04886   0.10891   0.16245   0.20272   0.22900
 Alpha virt. eigenvalues --    0.23462   0.26024   0.26505   0.27012   0.27930
 Alpha virt. eigenvalues --    0.28707   0.30279   0.31295   0.31388   0.31627

 Mulliken charges:
               1
     1  C   -0.175368
     2  C   -0.216400
     3  C   -0.171226
     4  C    0.158370
     5  C   -0.171189
     6  C   -0.215907
     7  H    0.228538
     8  H    0.225165
     9  H    0.276609
    10  H    0.276839
    11  H    0.225998
    12  N    0.488050
    13  O   -0.459809
    14  O   -0.459968
    15  C   -0.307344
    16  C   -0.298739
    17  C   -0.477003
    18  H    0.145851
    19  H    0.156629
    20  H    0.153639
    21  H    0.155006
    22  H    0.145486
    23  H    0.155205
    24  H    0.162781
    25  C   -0.297354
    26  C   -0.300312
    27  C   -0.476311
    28  H    0.150501
    29  H    0.152791
    30  H    0.150810
    31  H    0.145197
    32  H    0.157372
    33  H    0.157310
    34  H    0.158782
 Sum of Mulliken charges =  -0.00000

 Dipole moment (field-independent basis, Debye):
    X=             -3.1859    Y=              1.1393    Z=              3.8240  Tot=              5.1060
 Quadrupole moment (field-independent basis, Debye-Ang):
   XX=           -109.6920   YY=            -91.6167   ZZ=            -93.9027
   XY=              3.4075   XZ=              8.4155   YZ=             -1.8358

 Normal termination of Gaussian 16 at Thu May  6 19:23:41 2021.
