 Gaussian 16, Revision A.03,
 Gaussian 16:  EM64L-G16RevA.03 25-Dec-2016

 -------------
 #p 6-31g* mp2
 -------------

 ------------------------------------------------------
 Input file generated by CHIRIPA (05-May-2021 14:55:24)
 ------------------------------------------------------
 Symbolic Z-matrix:
 Charge =  0 Multiplicity = 1

                         Standard orientation:
 ---------------------------------------------------------------------
 Center     Atomic      Atomic             Coordinates (Angstroms)
 Number     Number       Type             X           Y           Z
 ---------------------------------------------------------------------
      1          6           0        2.748477    2.280208    0.781849
      2          6           0        1.599243    2.018194    0.028769
      3          6           0        1.355630    0.735870   -0.472076
      4          6           0        2.286553   -0.265331   -0.199552
      5          6           0        3.440842   -0.035620    0.547535
      6          6           0        3.663995    1.254273    1.038376
      7          1           0        2.929775    3.279288    1.167032
      8          1           0        0.886503    2.813009   -0.172020
      9          1           0        0.474118    0.505373   -1.057932
     10          1           0        4.133044   -0.848362    0.731183
     11          1           0        4.557364    1.454858    1.622930
     12          7           0        2.039481   -1.626877   -0.724479
     13          8           0        2.875069   -2.491687   -0.470446
     14          8           0        1.014916   -1.803465   -1.380010
     15          6           0       -2.601520    0.699784   -0.003277
     16          6           0       -3.521354    1.876901   -0.329291
     17          6           0       -2.751621    3.164936   -0.623009
     18          1           0       -1.975938    0.960081    0.861500
     19          1           0       -1.916352    0.534452   -0.846251
     20          1           0       -4.205504    2.039083    0.513473
     21          1           0       -4.144953    1.613698   -1.193273
     22          1           0       -2.081148    3.026733   -1.477390
     23          1           0       -2.142044    3.454534    0.239054
     24          1           0       -3.428558    3.993475   -0.853527
     25          6           0       -3.356300   -0.594998    0.292653
     26          6           0       -2.436466   -1.772116    0.618668
     27          6           0       -3.206199   -3.060152    0.912385
     28          1           0       -4.041468   -0.429668    1.135626
     29          1           0       -3.981881   -0.855297   -0.572124
     30          1           0       -1.812867   -1.508914    1.482650
     31          1           0       -1.752316   -1.934297   -0.224097
     32          1           0       -3.815776   -3.349749    0.050323
     33          1           0       -3.876672   -2.921948    1.766766
     34          1           0       -2.529261   -3.888691    1.142904
 ---------------------------------------------------------------------

 SCF Done:  E(RHF) =  -669.536029460     A.U. after   15 cycles
 E2 =    -0.2092945365D+01 EUMP2 =    -0.67162897482598D+03

 The electronic state is 1-A.
 Alpha  occ. eigenvalues --  -20.60841 -20.60836 -15.85869 -11.31149 -11.27731
 Alpha  occ. eigenvalues --  -11.27677 -11.27461 -11.26732 -11.26687 -11.21980
 Alpha  occ. eigenvalues --  -11.21761 -11.21683 -11.21265 -11.21028 -11.20556
 Alpha  occ. eigenvalues --   -1.59897  -1.39455  -1.19324  -1.08737  -1.08496
 Alpha  occ. eigenvalues --   -1.04713  -1.03526  -0.96043  -0.95584  -0.87063
 Alpha  occ. eigenvalues --   -0.86117  -0.82421  -0.79665  -0.78277  -0.77427
 Alpha  occ. eigenvalues --   -0.72096  -0.71205  -0.70444  -0.65154  -0.64977
 Alpha  occ. eigenvalues --   -0.64696  -0.62071  -0.60909  -0.59456  -0.57613
 Alpha  occ. eigenvalues --   -0.55381  -0.55208  -0.53060  -0.52899  -0.52682
 Alpha  occ. eigenvalues --   -0.52389  -0.50004  -0.48867  -0.48847  -0.47950
 Alpha  occ. eigenvalues --   -0.46702  -0.45812  -0.45649  -0.44743  -0.43788
 Alpha  occ. eigenvalues --   -0.37310  -0.36298
 Alpha virt. eigenvalues --    0.05011   0.11313   0.16452   0.19850   0.23124
 Alpha virt. eigenvalues --    0.23897   0.24871   0.26313   0.27223   0.28533
 Alpha virt. eigenvalues --    0.30509   0.30945   0.31323   0.31687   0.32411

 Mulliken charges:
               1
     1  C   -0.170803
     2  C   -0.224430
     3  C   -0.172936
     4  C    0.157490
     5  C   -0.170601
     6  C   -0.218928
     7  H    0.225567
     8  H    0.227528
     9  H    0.282728
    10  H    0.275284
    11  H    0.223168
    12  N    0.488517
    13  O   -0.459464
    14  O   -0.461752
    15  C   -0.304583
    16  C   -0.298459
    17  C   -0.478664
    18  H    0.148461
    19  H    0.147822
    20  H    0.154306
    21  H    0.155492
    22  H    0.150657
    23  H    0.150594
    24  H    0.164217
    25  C   -0.297283
    26  C   -0.309890
    27  C   -0.475597
    28  H    0.148197
    29  H    0.151071
    30  H    0.147343
    31  H    0.174412
    32  H    0.155150
    33  H    0.150999
    34  H    0.164390
 Sum of Mulliken charges =  -0.00000

 Dipole moment (field-independent basis, Debye):
    X=              0.8361    Y=              4.6716    Z=              1.8025  Tot=              5.0766
 Quadrupole moment (field-independent basis, Debye-Ang):
   XX=            -87.3335   YY=            -98.2336   ZZ=            -94.5366
   XY=              8.8793   XZ=              6.4933   YZ=             -1.5492

 Normal termination of Gaussian 16 at Thu May  6 17:40:25 2021.
