 Gaussian 16, Revision A.03,
 Gaussian 16:  EM64L-G16RevA.03 25-Dec-2016

 -------------
 #p 6-31g* mp2
 -------------

 ------------------------------------------------------
 Input file generated by CHIRIPA (05-May-2021 14:57:25)
 ------------------------------------------------------
 Symbolic Z-matrix:
 Charge =  0 Multiplicity = 1

                         Standard orientation:
 ---------------------------------------------------------------------
 Center     Atomic      Atomic             Coordinates (Angstroms)
 Number     Number       Type             X           Y           Z
 ---------------------------------------------------------------------
      1          6           0       -1.668799    2.812272    0.451460
      2          6           0       -1.722845    1.957717    1.557505
      3          6           0       -1.919660    0.584411    1.384754
      4          6           0       -2.059223    0.097438    0.086036
      5          6           0       -2.009994    0.923240   -1.035979
      6          6           0       -1.812293    2.293221   -0.839476
      7          1           0       -1.515564    3.877798    0.594883
      8          1           0       -1.611720    2.358029    2.561222
      9          1           0       -1.965576   -0.099756    2.223339
     10          1           0       -2.124086    0.494786   -2.024326
     11          1           0       -1.770747    2.954511   -1.700299
     12          7           0       -2.268051   -1.354660   -0.109420
     13          8           0       -2.388206   -1.758860   -1.263899
     14          8           0       -2.307621   -2.061118    0.895561
     15          6           0        2.797900    2.053997   -0.347432
     16          6           0        3.144021    1.312049    0.786691
     17          6           0        2.721215   -0.013413    0.924285
     18          6           0        1.950066   -0.567891   -0.096093
     19          6           0        1.588891    0.145462   -1.238008
     20          6           0        2.022806    1.469366   -1.354388
     21          1           0        3.130660    3.083042   -0.446079
     22          1           0        3.745867    1.763492    1.570289
     23          1           0        2.974765   -0.610630    1.791732
     24          1           0        0.987873   -0.331851   -2.002449
     25          1           0        1.752495    2.043180   -2.236268
     26          7           0        1.496580   -1.970274    0.038343
     27          8           0        0.818097   -2.435727   -0.874703
     28          8           0        1.828208   -2.577454    1.054212
 ---------------------------------------------------------------------

 SCF Done:  E(RHF) =  -868.334457790     A.U. after   16 cycles
 E2 =    -0.2606167620D+01 EUMP2 =    -0.87094062540937D+03

 The electronic state is 1-A.
 Alpha  occ. eigenvalues --  -20.60429 -20.60383 -20.60160 -20.60151 -15.85454
 Alpha  occ. eigenvalues --  -15.85225 -11.31128 -11.31091 -11.27750 -11.27746
 Alpha  occ. eigenvalues --  -11.27738 -11.27688 -11.27571 -11.27563 -11.26890
 Alpha  occ. eigenvalues --  -11.26854 -11.26824 -11.26820  -1.59484  -1.59198
 Alpha  occ. eigenvalues --   -1.39027  -1.38754  -1.19384  -1.19276  -1.08702
 Alpha  occ. eigenvalues --   -1.08606  -1.04857  -1.04738  -0.95477  -0.95358
 Alpha  occ. eigenvalues --   -0.86233  -0.86133  -0.82310  -0.82193  -0.77310
 Alpha  occ. eigenvalues --   -0.77145  -0.71715  -0.71444  -0.71170  -0.70501
 Alpha  occ. eigenvalues --   -0.70395  -0.70139  -0.65003  -0.64951  -0.64871
 Alpha  occ. eigenvalues --   -0.64757  -0.62222  -0.62071  -0.55330  -0.55268
 Alpha  occ. eigenvalues --   -0.53717  -0.52955  -0.52854  -0.52472  -0.48456
 Alpha  occ. eigenvalues --   -0.48414  -0.48218  -0.48166  -0.44450  -0.43917
 Alpha  occ. eigenvalues --   -0.37821  -0.37051  -0.36809  -0.35769
 Alpha virt. eigenvalues --    0.04967   0.05633   0.10518   0.11900   0.16456
 Alpha virt. eigenvalues --    0.17008   0.20721   0.21724   0.26342   0.27642
 Alpha virt. eigenvalues --    0.27844   0.28775   0.29809   0.31368   0.31891

 Mulliken charges:
               1
     1  C   -0.170962
     2  C   -0.216744
     3  C   -0.172349
     4  C    0.158743
     5  C   -0.176012
     6  C   -0.217332
     7  H    0.222069
     8  H    0.222277
     9  H    0.278643
    10  H    0.273873
    11  H    0.218175
    12  N    0.490801
    13  O   -0.454692
    14  O   -0.455491
    15  C   -0.172622
    16  C   -0.219122
    17  C   -0.171710
    18  C    0.157277
    19  C   -0.170200
    20  C   -0.215121
    21  H    0.222061
    22  H    0.221540
    23  H    0.275817
    24  H    0.277341
    25  H    0.217799
    26  N    0.485235
    27  O   -0.450953
    28  O   -0.458343
 Sum of Mulliken charges =  -0.00000

 Dipole moment (field-independent basis, Debye):
    X=              2.2308    Y=              9.6441    Z=              0.2555  Tot=              9.9021
 Quadrupole moment (field-independent basis, Debye-Ang):
   XX=           -102.3088   YY=           -110.6148   ZZ=            -96.0039
   XY=             -1.7453   XZ=              0.0702   YZ=             -0.5713

 Normal termination of Gaussian 16 at Fri May  7 03:30:57 2021.
