 Gaussian 16, Revision A.03,
 Gaussian 16:  EM64L-G16RevA.03 25-Dec-2016

 -------------
 #p 6-31g* mp2
 -------------

 ------------------------------------------------------
 Input file generated by CHIRIPA (05-May-2021 14:57:22)
 ------------------------------------------------------
 Symbolic Z-matrix:
 Charge =  0 Multiplicity = 1

                         Standard orientation:
 ---------------------------------------------------------------------
 Center     Atomic      Atomic             Coordinates (Angstroms)
 Number     Number       Type             X           Y           Z
 ---------------------------------------------------------------------
      1          6           0       -3.799336    2.640541   -0.363000
      2          6           0       -4.897495    1.808131   -0.122874
      3          6           0       -4.722016    0.430872    0.041175
      4          6           0       -3.428640   -0.082593   -0.041420
      5          6           0       -2.314516    0.720730   -0.279517
      6          6           0       -2.513618    2.095145   -0.440418
      7          1           0       -3.944828    3.709324   -0.489215
      8          1           0       -5.897146    2.228925   -0.062245
      9          1           0       -5.554526   -0.236518    0.228084
     10          1           0       -1.330083    0.272097   -0.334633
     11          1           0       -1.658923    2.739199   -0.626797
     12          7           0       -3.230363   -1.539131    0.130585
     13          8           0       -2.080708   -1.966871    0.053326
     14          8           0       -4.228364   -2.225444    0.339405
     15          6           0        1.728685   -1.991239    0.035601
     16          6           0        2.796285   -2.020000   -0.867684
     17          6           0        3.762127   -1.009258   -0.857798
     18          6           0        3.628823    0.019821    0.073072
     19          6           0        2.576695    0.076439    0.985821
     20          6           0        1.622484   -0.944956    0.957845
     21          1           0        0.982914   -2.780546    0.020894
     22          1           0        2.881305   -2.831321   -1.585022
     23          1           0        4.598817   -1.006849   -1.545809
     24          1           0        2.518737    0.898225    1.689191
     25          1           0        0.794440   -0.920033    1.660530
     26          7           0        4.645159    1.095488    0.093114
     27          8           0        4.505095    1.991115    0.923096
     28          8           0        5.562582    1.022599   -0.721538
 ---------------------------------------------------------------------

 SCF Done:  E(RHF) =  -868.340662233     A.U. after   16 cycles
 E2 =    -0.2599071505D+01 EUMP2 =    -0.87093973373762D+03

 The electronic state is 1-A.
 Alpha  occ. eigenvalues --  -20.61705 -20.61629 -20.60677 -20.60667 -15.86711
 Alpha  occ. eigenvalues --  -15.85726 -11.31787 -11.30950 -11.28309 -11.28305
 Alpha  occ. eigenvalues --  -11.27987 -11.27552 -11.27522 -11.27262 -11.27244
 Alpha  occ. eigenvalues --  -11.27013 -11.26400 -11.26388  -1.60732  -1.59756
 Alpha  occ. eigenvalues --   -1.40299  -1.39314  -1.19928  -1.19104  -1.09372
 Alpha  occ. eigenvalues --   -1.08465  -1.05284  -1.04494  -0.96258  -0.95327
 Alpha  occ. eigenvalues --   -0.86695  -0.85854  -0.83106  -0.82179  -0.78187
 Alpha  occ. eigenvalues --   -0.77291  -0.72959  -0.72039  -0.71939  -0.71085
 Alpha  occ. eigenvalues --   -0.71024  -0.70045  -0.65583  -0.65277  -0.64718
 Alpha  occ. eigenvalues --   -0.64434  -0.62634  -0.61835  -0.55783  -0.54786
 Alpha  occ. eigenvalues --   -0.53635  -0.53380  -0.52810  -0.52538  -0.49703
 Alpha  occ. eigenvalues --   -0.49651  -0.48709  -0.48683  -0.45766  -0.44752
 Alpha  occ. eigenvalues --   -0.37888  -0.36994  -0.36880  -0.36140
 Alpha virt. eigenvalues --    0.04313   0.05254   0.10755   0.11435   0.15880
 Alpha virt. eigenvalues --    0.16793   0.20832   0.22012   0.26629   0.27354
 Alpha virt. eigenvalues --    0.28173   0.28965   0.30629   0.31420   0.31968

 Mulliken charges:
               1
     1  C   -0.169757
     2  C   -0.218585
     3  C   -0.170425
     4  C    0.157285
     5  C   -0.175752
     6  C   -0.219624
     7  H    0.228652
     8  H    0.225526
     9  H    0.276262
    10  H    0.275685
    11  H    0.227839
    12  N    0.491731
    13  O   -0.474927
    14  O   -0.455457
    15  C   -0.171341
    16  C   -0.220866
    17  C   -0.171242
    18  C    0.156798
    19  C   -0.175631
    20  C   -0.227331
    21  H    0.246653
    22  H    0.224556
    23  H    0.274446
    24  H    0.272398
    25  H    0.229117
    26  N    0.488189
    27  O   -0.463173
    28  O   -0.461026
 Sum of Mulliken charges =  -0.00000

 Dipole moment (field-independent basis, Debye):
    X=             -4.6012    Y=              1.2506    Z=             -0.7144  Tot=              4.8214
 Quadrupole moment (field-independent basis, Debye-Ang):
   XX=           -120.4317   YY=           -105.1574   ZZ=           -103.1138
   XY=            -32.8900   XZ=             -1.2811   YZ=              1.2638

 Normal termination of Gaussian 16 at Thu May  6 01:46:26 2021.
