 Gaussian 16, Revision A.03,
 Gaussian 16:  EM64L-G16RevA.03 25-Dec-2016

 -------------
 #p 6-31g* mp2
 -------------

 ------------------------------------------------------
 Input file generated by CHIRIPA (05-May-2021 14:51:10)
 ------------------------------------------------------
 Symbolic Z-matrix:
 Charge =  0 Multiplicity = 1

                         Standard orientation:
 ---------------------------------------------------------------------
 Center     Atomic      Atomic             Coordinates (Angstroms)
 Number     Number       Type             X           Y           Z
 ---------------------------------------------------------------------
      1          6           0        2.698376   -0.174780   -0.653597
      2          6           0        2.719209    1.306569   -1.031959
      3          6           0        3.218722    1.545720   -2.457121
      4          1           0        3.709959   -0.588997   -0.763455
      5          1           0        2.059285   -0.718336   -1.363177
      6          1           0        3.356966    1.847395   -0.321051
      7          1           0        1.707497    1.717354   -0.921004
      8          1           0        2.578290    1.031685   -3.181148
      9          1           0        4.237130    1.162464   -2.577787
     10          1           0        3.225470    2.611342   -2.706649
     11          6           0        2.201342   -0.429952    0.768222
     12          6           0        2.180509   -1.911301    1.146584
     13          6           0        1.680996   -2.150452    2.571746
     14          1           0        2.840433    0.113604    1.477802
     15          1           0        1.189759   -0.015735    0.878080
     16          1           0        3.192220   -2.322086    1.035629
     17          1           0        1.542752   -2.452127    0.435676
     18          1           0        0.662587   -1.767196    2.692412
     19          1           0        2.321428   -1.636417    3.295773
     20          1           0        1.674248   -3.216074    2.821274
     21          6           0       -2.673805    0.876503    0.393959
     22          6           0       -1.511868    1.705754    0.941892
     23          6           0       -1.975879    2.850570    1.842939
     24          1           0       -3.352893    1.533764   -0.166215
     25          1           0       -3.253977    0.470855    1.234344
     26          1           0       -0.933252    2.108577    0.100730
     27          1           0       -0.835368    1.046409    1.500664
     28          1           0       -2.535054    2.463252    2.700790
     29          1           0       -2.633494    3.531455    1.292902
     30          1           0       -1.129210    3.430313    2.223606
     31          6           0       -2.225912   -0.271771   -0.508584
     32          6           0       -3.387849   -1.101022   -1.056517
     33          6           0       -2.923838   -2.245838   -1.957563
     34          1           0       -1.645741    0.133877   -1.348969
     35          1           0       -1.546826   -0.929031    0.051589
     36          1           0       -4.064350   -0.441676   -1.615290
     37          1           0       -3.966467   -1.503845   -0.215355
     38          1           0       -2.266225   -2.926723   -1.407527
     39          1           0       -2.364665   -1.858519   -2.815416
     40          1           0       -3.770509   -2.825581   -2.338231
 ---------------------------------------------------------------------

 SCF Done:  E(RHF) =  -470.733184616     A.U. after   11 cycles
 E2 =    -0.1584166597D+01 EUMP2 =    -0.47231735121240D+03

 The electronic state is 1-A.
 Alpha  occ. eigenvalues --  -11.21681 -11.21677 -11.21579 -11.21556 -11.21503
 Alpha  occ. eigenvalues --  -11.21439 -11.21330 -11.21254 -11.21135 -11.21121
 Alpha  occ. eigenvalues --  -11.21098 -11.21050  -1.08530  -1.08374  -1.03606
 Alpha  occ. eigenvalues --   -1.03506  -0.96050  -0.95953  -0.87068  -0.86971
 Alpha  occ. eigenvalues --   -0.79691  -0.79564  -0.78438  -0.78095  -0.65204
 Alpha  occ. eigenvalues --   -0.64972  -0.61039  -0.60874  -0.59424  -0.59321
 Alpha  occ. eigenvalues --   -0.57665  -0.57561  -0.55341  -0.55243  -0.52748
 Alpha  occ. eigenvalues --   -0.52655  -0.52480  -0.52379  -0.50011  -0.49895
 Alpha  occ. eigenvalues --   -0.48061  -0.47910  -0.46862  -0.46489  -0.46281
 Alpha  occ. eigenvalues --   -0.45764  -0.45690  -0.45130  -0.43858  -0.43744
 Alpha virt. eigenvalues --    0.19805   0.22560   0.23624   0.23668   0.25385
 Alpha virt. eigenvalues --    0.26575   0.27288   0.27866   0.27966   0.29703
 Alpha virt. eigenvalues --    0.30589   0.31505   0.31612   0.31921   0.32149

 Mulliken charges:
               1
     1  C   -0.297488
     2  C   -0.303021
     3  C   -0.475597
     4  H    0.149212
     5  H    0.149793
     6  H    0.151705
     7  H    0.154919
     8  H    0.154847
     9  H    0.155226
    10  H    0.159905
    11  C   -0.308485
    12  C   -0.299506
    13  C   -0.476221
    14  H    0.148606
    15  H    0.161223
    16  H    0.151957
    17  H    0.151766
    18  H    0.153826
    19  H    0.155503
    20  H    0.160362
    21  C   -0.298001
    22  C   -0.308192
    23  C   -0.475119
    24  H    0.150082
    25  H    0.149798
    26  H    0.154309
    27  H    0.157327
    28  H    0.155364
    29  H    0.155285
    30  H    0.161006
    31  C   -0.300573
    32  C   -0.299672
    33  C   -0.475802
    34  H    0.149368
    35  H    0.150628
    36  H    0.152387
    37  H    0.152320
    38  H    0.155133
    39  H    0.155122
    40  H    0.160696
 Sum of Mulliken charges =  -0.00000

 Dipole moment (field-independent basis, Debye):
    X=             -0.0518    Y=              0.0211    Z=              0.0074  Tot=              0.0564
 Quadrupole moment (field-independent basis, Debye-Ang):
   XX=            -83.9987   YY=            -85.2617   ZZ=            -85.4825
   XY=              0.0708   XZ=              0.8697   YZ=             -0.6647

 Normal termination of Gaussian 16 at Thu May  6 00:37:08 2021.
