 Gaussian 16, Revision A.03,
 Gaussian 16:  EM64L-G16RevA.03 25-Dec-2016

 -------------
 #p 6-31g* mp2
 -------------

 ------------------------------------------------------
 Input file generated by CHIRIPA (05-May-2021 14:57:26)
 ------------------------------------------------------
 Symbolic Z-matrix:
 Charge =  0 Multiplicity = 1

                         Standard orientation:
 ---------------------------------------------------------------------
 Center     Atomic      Atomic             Coordinates (Angstroms)
 Number     Number       Type             X           Y           Z
 ---------------------------------------------------------------------
      1          6           0       -2.580574   -2.333410    0.817075
      2          6           0       -3.652348   -1.869676    0.047158
      3          6           0       -3.741826   -0.519689   -0.305085
      4          6           0       -2.737431    0.342745    0.131595
      5          6           0       -1.657187   -0.088893    0.899744
      6          6           0       -1.588164   -1.443107    1.240165
      7          1           0       -2.519010   -3.383754    1.086113
      8          1           0       -4.424513   -2.558822   -0.282820
      9          1           0       -4.560609   -0.133865   -0.900193
     10          1           0       -0.902690    0.622053    1.213922
     11          1           0       -0.754662   -1.800438    1.838190
     12          7           0       -2.821331    1.774154   -0.235050
     13          8           0       -1.923596    2.513721    0.162127
     14          8           0       -3.783237    2.129421   -0.912663
     15          6           0        3.560219    2.186311    0.446332
     16          6           0        2.253196    2.024099   -0.024733
     17          6           0        1.778989    0.758200   -0.381349
     18          6           0        2.642723   -0.328524   -0.253737
     19          6           0        3.950117   -0.199184    0.212397
     20          6           0        4.403022    1.076109    0.563188
     21          1           0        3.920320    3.173340    0.721097
     22          1           0        1.596442    2.884503   -0.116519
     23          1           0        0.771703    0.604143   -0.748854
     24          1           0        4.581385   -1.075781    0.292993
     25          1           0        5.418551    1.199100    0.928726
     26          7           0        2.151977   -1.673647   -0.628187
     27          8           0        2.932698   -2.615092   -0.506557
     28          8           0        0.995902   -1.761040   -1.036219
 ---------------------------------------------------------------------

 SCF Done:  E(RHF) =  -868.339496160     A.U. after   16 cycles
 E2 =    -0.2601783548D+01 EUMP2 =    -0.87094127970842D+03

 The electronic state is 1-A.
 Alpha  occ. eigenvalues --  -20.61118 -20.61085 -20.60988 -20.60921 -15.86120
 Alpha  occ. eigenvalues --  -15.85982 -11.31308 -11.30948 -11.27849 -11.27728
 Alpha  occ. eigenvalues --  -11.27472 -11.27444 -11.27413 -11.27017 -11.26830
 Alpha  occ. eigenvalues --  -11.26644 -11.26366 -11.26343  -1.60186  -1.60024
 Alpha  occ. eigenvalues --   -1.39739  -1.39594  -1.19441  -1.19044  -1.08864
 Alpha  occ. eigenvalues --   -1.08502  -1.04788  -1.04390  -0.95738  -0.95417
 Alpha  occ. eigenvalues --   -0.86201  -0.85813  -0.82554  -0.82274  -0.77692
 Alpha  occ. eigenvalues --   -0.77343  -0.72349  -0.72216  -0.71525  -0.71336
 Alpha  occ. eigenvalues --   -0.70566  -0.70114  -0.65068  -0.64774  -0.64696
 Alpha  occ. eigenvalues --   -0.64385  -0.62198  -0.61681  -0.55282  -0.54875
 Alpha  occ. eigenvalues --   -0.53180  -0.52933  -0.52624  -0.52431  -0.49123
 Alpha  occ. eigenvalues --   -0.49094  -0.48993  -0.48914  -0.45191  -0.45079
 Alpha  occ. eigenvalues --   -0.37423  -0.36936  -0.36411  -0.35852
 Alpha virt. eigenvalues --    0.04684   0.05223   0.11095   0.11727   0.16263
 Alpha virt. eigenvalues --    0.16829   0.21428   0.21979   0.27105   0.27777
 Alpha virt. eigenvalues --    0.28311   0.28849   0.30975   0.31621   0.32402

 Mulliken charges:
               1
     1  C   -0.166612
     2  C   -0.216847
     3  C   -0.171294
     4  C    0.158341
     5  C   -0.179154
     6  C   -0.200618
     7  H    0.228293
     8  H    0.223345
     9  H    0.273690
    10  H    0.269051
    11  H    0.223545
    12  N    0.489295
    13  O   -0.473734
    14  O   -0.457098
    15  C   -0.171036
    16  C   -0.222620
    17  C   -0.182215
    18  C    0.155083
    19  C   -0.172589
    20  C   -0.218270
    21  H    0.227909
    22  H    0.240956
    23  H    0.281257
    24  H    0.274332
    25  H    0.223576
    26  N    0.485769
    27  O   -0.461840
    28  O   -0.460514
 Sum of Mulliken charges =  -0.00000

 Dipole moment (field-independent basis, Debye):
    X=              1.9781    Y=             -0.4350    Z=              2.5838  Tot=              3.2830
 Quadrupole moment (field-independent basis, Debye-Ang):
   XX=            -89.9326   YY=           -111.0036   ZZ=           -105.0817
   XY=             26.0594   XZ=              3.2838   YZ=             -2.1452

 Normal termination of Gaussian 16 at Thu May  6 16:27:04 2021.
