 Gaussian 16, Revision A.03,
 Gaussian 16:  EM64L-G16RevA.03 25-Dec-2016

 -------------
 #p 6-31g* mp2
 -------------

 ------------------------------------------------------
 Input file generated by CHIRIPA (05-May-2021 14:53:15)
 ------------------------------------------------------
 Symbolic Z-matrix:
 Charge =  0 Multiplicity = 1

                         Standard orientation:
 ---------------------------------------------------------------------
 Center     Atomic      Atomic             Coordinates (Angstroms)
 Number     Number       Type             X           Y           Z
 ---------------------------------------------------------------------
      1          6           0       -3.877126   -0.282329   -0.484858
      2          6           0       -4.689897   -1.419292    0.135386
      3          6           0       -5.260537   -2.377144   -0.910886
      4          1           0       -4.513640    0.274916   -1.185766
      5          1           0       -3.056986   -0.708878   -1.078846
      6          1           0       -5.507433   -0.990701    0.729154
      7          1           0       -4.051429   -1.973778    0.835043
      8          1           0       -4.455210   -2.831916   -1.496745
      9          1           0       -5.919486   -1.843253   -1.603236
     10          1           0       -5.837916   -3.182173   -0.445673
     11          6           0       -3.300091    0.683599    0.548458
     12          6           0       -2.487319    1.820563   -0.071786
     13          6           0       -1.916679    2.778414    0.974486
     14          1           0       -4.120230    1.110148    1.142446
     15          1           0       -2.663576    0.126354    1.249366
     16          1           0       -3.125787    2.375048   -0.771443
     17          1           0       -1.669783    1.391971   -0.665554
     18          1           0       -1.257730    2.244524    1.666836
     19          1           0       -2.722007    3.233186    1.560345
     20          1           0       -1.339301    3.583443    0.509273
     21          6           0        3.507337   -2.520452    0.507672
     22          6           0        4.341297   -1.696967   -0.255809
     23          6           0        3.961565   -0.385611   -0.556969
     24          6           0        2.735565    0.071768   -0.076326
     25          6           0        1.882760   -0.724337    0.686714
     26          6           0        2.282889   -2.032370    0.975671
     27          1           0        3.810243   -3.537855    0.736881
     28          1           0        5.292779   -2.073344   -0.620592
     29          1           0        4.587857    0.273393   -1.145944
     30          1           0        0.940173   -0.320971    1.036349
     31          1           0        1.633197   -2.669647    1.568819
     32          7           0        2.322764    1.458283   -0.388691
     33          8           0        1.237677    1.837447    0.046575
     34          8           0        3.092114    2.139615   -1.062875
 ---------------------------------------------------------------------

 SCF Done:  E(RHF) =  -669.535800790     A.U. after   15 cycles
 E2 =    -0.2091765929D+01 EUMP2 =    -0.67162756671900D+03

 The electronic state is 1-A.
 Alpha  occ. eigenvalues --  -20.60939 -20.60933 -15.85967 -11.31303 -11.27872
 Alpha  occ. eigenvalues --  -11.27862 -11.27603 -11.26876 -11.26866 -11.21462
 Alpha  occ. eigenvalues --  -11.21076 -11.20991 -11.20889 -11.20598 -11.19783
 Alpha  occ. eigenvalues --   -1.60001  -1.39557  -1.19472  -1.08874  -1.07969
 Alpha  occ. eigenvalues --   -1.04870  -1.02932  -0.95727  -0.95369  -0.86411
 Alpha  occ. eigenvalues --   -0.86268  -0.82546  -0.79056  -0.77726  -0.77602
 Alpha  occ. eigenvalues --   -0.72204  -0.71314  -0.70581  -0.65137  -0.64876
 Alpha  occ. eigenvalues --   -0.64603  -0.62220  -0.60313  -0.58818  -0.56958
 Alpha  occ. eigenvalues --   -0.55372  -0.54673  -0.53201  -0.52963  -0.52032
 Alpha  occ. eigenvalues --   -0.51821  -0.49388  -0.48952  -0.48915  -0.47341
 Alpha  occ. eigenvalues --   -0.46140  -0.45295  -0.45277  -0.44798  -0.43200
 Alpha  occ. eigenvalues --   -0.37450  -0.36472
 Alpha virt. eigenvalues --    0.04906   0.11179   0.16389   0.20479   0.22856
 Alpha virt. eigenvalues --    0.24226   0.26500   0.27486   0.27917   0.28369
 Alpha virt. eigenvalues --    0.29041   0.30682   0.31567   0.32216   0.32696

 Mulliken charges:
               1
     1  C   -0.297487
     2  C   -0.298403
     3  C   -0.475254
     4  H    0.150664
     5  H    0.147162
     6  H    0.152311
     7  H    0.147382
     8  H    0.153621
     9  H    0.156119
    10  H    0.158741
    11  C   -0.296780
    12  C   -0.302450
    13  C   -0.468360
    14  H    0.148331
    15  H    0.140517
    16  H    0.148318
    17  H    0.161057
    18  H    0.154029
    19  H    0.144431
    20  H    0.172165
    21  C   -0.170558
    22  C   -0.218569
    23  C   -0.170648
    24  C    0.157722
    25  C   -0.171619
    26  C   -0.218699
    27  H    0.226080
    28  H    0.223881
    29  H    0.275894
    30  H    0.276189
    31  H    0.223972
    32  N    0.493747
    33  O   -0.464388
    34  O   -0.459117
 Sum of Mulliken charges =  -0.00000

 Dipole moment (field-independent basis, Debye):
    X=              1.7134    Y=             -4.7672    Z=              1.0196  Tot=              5.1674
 Quadrupole moment (field-independent basis, Debye-Ang):
   XX=            -83.4840   YY=            -96.0876   ZZ=            -94.8814
   XY=            -13.7513   XZ=              0.3847   YZ=             -0.7029

 Normal termination of Gaussian 16 at Thu May  6 07:29:37 2021.
