 Gaussian 16, Revision A.03,
 Gaussian 16:  EM64L-G16RevA.03 25-Dec-2016

 -------------
 #p 6-31g* mp2
 -------------

 ------------------------------------------------------
 Input file generated by CHIRIPA (05-May-2021 14:51:11)
 ------------------------------------------------------
 Symbolic Z-matrix:
 Charge =  0 Multiplicity = 1

                         Standard orientation:
 ---------------------------------------------------------------------
 Center     Atomic      Atomic             Coordinates (Angstroms)
 Number     Number       Type             X           Y           Z
 ---------------------------------------------------------------------
      1          6           0       -2.556256   -0.420366    0.273932
      2          6           0       -2.347008   -1.923754    0.458392
      3          6           0       -0.891897   -2.285785    0.757356
      4          1           0       -1.913183   -0.064574   -0.542656
      5          1           0       -2.226432    0.102838    1.182154
      6          1           0       -2.678416   -2.444080   -0.449377
      7          1           0       -2.990795   -2.276043    1.274509
      8          1           0       -0.552874   -1.792937    1.674289
      9          1           0       -0.238720   -1.961928   -0.059392
     10          1           0       -0.764972   -3.365280    0.885580
     11          6           0       -4.005883   -0.042726   -0.025561
     12          6           0       -4.215131    1.460662   -0.210021
     13          6           0       -5.670242    1.822693   -0.508985
     14          1           0       -4.335707   -0.565930   -0.933783
     15          1           0       -4.648955   -0.398518    0.791027
     16          1           0       -3.571344    1.812952   -1.026138
     17          1           0       -3.883723    1.980988    0.697748
     18          1           0       -6.323419    1.498836    0.307763
     19          1           0       -6.009265    1.329845   -1.425918
     20          1           0       -5.797166    2.902188   -0.637209
     21          6           0        2.797615   -0.354246   -0.205128
     22          6           0        3.500236   -1.694428   -0.424725
     23          6           0        2.519767   -2.856673   -0.584914
     24          1           0        2.160034   -0.423561    0.686854
     25          1           0        2.127906   -0.155946   -1.053397
     26          1           0        4.169461   -1.889486    0.423040
     27          1           0        4.136366   -1.621855   -1.316177
     28          1           0        1.859739   -2.688531   -1.442056
     29          1           0        1.893022   -2.957682    0.307044
     30          1           0        3.043367   -3.805040   -0.740812
     31          6           0        3.764523    0.817338   -0.043243
     32          6           0        3.061903    2.157520    0.176354
     33          6           0        4.042372    3.319764    0.336543
     34          1           0        4.434233    0.619038    0.805026
     35          1           0        4.402105    0.886652   -0.935225
     36          1           0        2.425772    2.084947    1.067806
     37          1           0        2.392678    2.352578   -0.671411
     38          1           0        4.669117    3.420775   -0.555415
     39          1           0        4.702400    3.151623    1.193685
     40          1           0        3.518772    4.268132    0.492441
 ---------------------------------------------------------------------

 SCF Done:  E(RHF) =  -470.731986382     A.U. after   11 cycles
 E2 =    -0.1583552166D+01 EUMP2 =    -0.47231553854810D+03

 The electronic state is 1-A.
 Alpha  occ. eigenvalues --  -11.21583 -11.21581 -11.21544 -11.21534 -11.21373
 Alpha  occ. eigenvalues --  -11.21373 -11.21313 -11.21312 -11.21058 -11.21057
 Alpha  occ. eigenvalues --  -11.20940 -11.20926  -1.08414  -1.08378  -1.03544
 Alpha  occ. eigenvalues --   -1.03439  -0.96024  -0.95864  -0.87084  -0.86850
 Alpha  occ. eigenvalues --   -0.79729  -0.79411  -0.78281  -0.78124  -0.65031
 Alpha  occ. eigenvalues --   -0.65025  -0.60915  -0.60884  -0.59330  -0.59312
 Alpha  occ. eigenvalues --   -0.57642  -0.57489  -0.55271  -0.55195  -0.52801
 Alpha  occ. eigenvalues --   -0.52640  -0.52425  -0.52170  -0.49927  -0.49837
 Alpha  occ. eigenvalues --   -0.48110  -0.47644  -0.46590  -0.46569  -0.45914
 Alpha  occ. eigenvalues --   -0.45731  -0.45630  -0.45413  -0.43744  -0.43726
 Alpha virt. eigenvalues --    0.22052   0.23076   0.23593   0.24830   0.25542
 Alpha virt. eigenvalues --    0.26622   0.27109   0.27427   0.28083   0.29466
 Alpha virt. eigenvalues --    0.29589   0.31384   0.31651   0.31839   0.32362

 Mulliken charges:
               1
     1  C   -0.298153
     2  C   -0.300686
     3  C   -0.480903
     4  H    0.149634
     5  H    0.149225
     6  H    0.151624
     7  H    0.151191
     8  H    0.153236
     9  H    0.164806
    10  H    0.159413
    11  C   -0.298243
    12  C   -0.299548
    13  C   -0.475681
    14  H    0.149391
    15  H    0.149590
    16  H    0.151837
    17  H    0.151891
    18  H    0.155148
    19  H    0.155124
    20  H    0.160171
    21  C   -0.300352
    22  C   -0.298967
    23  C   -0.481448
    24  H    0.152436
    25  H    0.148172
    26  H    0.151565
    27  H    0.151257
    28  H    0.153222
    29  H    0.165942
    30  H    0.159341
    31  C   -0.298241
    32  C   -0.299482
    33  C   -0.475698
    34  H    0.149481
    35  H    0.149503
    36  H    0.152004
    37  H    0.151772
    38  H    0.155110
    39  H    0.155123
    40  H    0.160190
 Sum of Mulliken charges =  -0.00000

 Dipole moment (field-independent basis, Debye):
    X=              0.0115    Y=             -0.0156    Z=              0.0098  Tot=              0.0217
 Quadrupole moment (field-independent basis, Debye-Ang):
   XX=            -86.3506   YY=            -85.8471   ZZ=            -82.8407
   XY=             -0.1669   XZ=             -0.3682   YZ=             -0.1133

 Normal termination of Gaussian 16 at Wed May  5 16:45:00 2021.
