 Gaussian 16, Revision A.03,
 Gaussian 16:  EM64L-G16RevA.03 25-Dec-2016

 -------------
 #p 6-31g* mp2
 -------------

 ------------------------------------------------------
 Input file generated by CHIRIPA (05-May-2021 14:57:24)
 ------------------------------------------------------
 Symbolic Z-matrix:
 Charge =  0 Multiplicity = 1

                         Standard orientation:
 ---------------------------------------------------------------------
 Center     Atomic      Atomic             Coordinates (Angstroms)
 Number     Number       Type             X           Y           Z
 ---------------------------------------------------------------------
      1          6           0        4.893418    2.022336    0.508308
      2          6           0        4.976682    0.839106    1.249627
      3          6           0        4.209799   -0.275299    0.896726
      4          6           0        3.366349   -0.171033   -0.208268
      5          6           0        3.261324    0.993851   -0.966757
      6          6           0        4.037513    2.095803   -0.595572
      7          1           0        5.492766    2.883196    0.789552
      8          1           0        5.640527    0.779177    2.107393
      9          1           0        4.254787   -1.203669    1.453075
     10          1           0        2.590497    1.023311   -1.816782
     11          1           0        3.970808    3.013421   -1.173130
     12          7           0        2.549558   -1.344212   -0.591548
     13          8           0        1.814138   -1.226789   -1.569304
     14          8           0        2.660243   -2.358958    0.093051
     15          6           0       -5.689724    1.185022   -0.197814
     16          6           0       -5.270722    0.848565    1.093603
     17          6           0       -4.059830    0.179579    1.295460
     18          6           0       -3.289366   -0.139042    0.178250
     19          6           0       -3.679609    0.182595   -1.120806
     20          6           0       -4.894232    0.851551   -1.298956
     21          1           0       -6.631823    1.704694   -0.345413
     22          1           0       -5.886467    1.106283    1.950623
     23          1           0       -3.711437   -0.092879    2.284300
     24          1           0       -3.044263   -0.087588   -1.955524
     25          1           0       -5.217117    1.111591   -2.303032
     26          7           0       -2.005473   -0.847251    0.379399
     27          8           0       -1.344880   -1.116749   -0.621413
     28          8           0       -1.684063   -1.119439    1.534062
 ---------------------------------------------------------------------

 SCF Done:  E(RHF) =  -868.335270395     A.U. after   16 cycles
 E2 =    -0.2600562102D+01 EUMP2 =    -0.87093583249657D+03

 The electronic state is 1-A.
 Alpha  occ. eigenvalues --  -20.60007 -20.59920 -20.59431 -20.59355 -15.85018
 Alpha  occ. eigenvalues --  -15.84460 -11.30691 -11.30254 -11.27310 -11.27278
 Alpha  occ. eigenvalues --  -11.27105 -11.26888 -11.26865 -11.26722 -11.26390
 Alpha  occ. eigenvalues --  -11.26372 -11.26016 -11.25990  -1.59050  -1.58437
 Alpha  occ. eigenvalues --   -1.38590  -1.37991  -1.18897  -1.18469  -1.08238
 Alpha  occ. eigenvalues --   -1.07786  -1.04342  -1.03944  -0.95016  -0.94549
 Alpha  occ. eigenvalues --   -0.85726  -0.85322  -0.81841  -0.81390  -0.76842
 Alpha  occ. eigenvalues --   -0.76358  -0.71248  -0.70663  -0.70407  -0.70002
 Alpha  occ. eigenvalues --   -0.69730  -0.69590  -0.64537  -0.64348  -0.64120
 Alpha  occ. eigenvalues --   -0.63963  -0.61683  -0.61291  -0.54839  -0.54446
 Alpha  occ. eigenvalues --   -0.52662  -0.52437  -0.52242  -0.52051  -0.48040
 Alpha  occ. eigenvalues --   -0.47984  -0.47430  -0.47392  -0.43969  -0.43228
 Alpha  occ. eigenvalues --   -0.36901  -0.36473  -0.35963  -0.35566
 Alpha virt. eigenvalues --    0.05681   0.06219   0.11686   0.12084   0.17118
 Alpha virt. eigenvalues --    0.17624   0.21794   0.22124   0.27684   0.27998
 Alpha virt. eigenvalues --    0.28721   0.29061   0.31325   0.31632   0.32989

 Mulliken charges:
               1
     1  C   -0.172411
     2  C   -0.218602
     3  C   -0.170413
     4  C    0.161695
     5  C   -0.171172
     6  C   -0.218811
     7  H    0.221783
     8  H    0.220617
     9  H    0.275766
    10  H    0.274190
    11  H    0.219327
    12  N    0.490483
    13  O   -0.451781
    14  O   -0.460434
    15  C   -0.171892
    16  C   -0.218668
    17  C   -0.171783
    18  C    0.158451
    19  C   -0.172107
    20  C   -0.218798
    21  H    0.223555
    22  H    0.221500
    23  H    0.274706
    24  H    0.278070
    25  H    0.221962
    26  N    0.485731
    27  O   -0.446753
    28  O   -0.464213
 Sum of Mulliken charges =  -0.00000

 Dipole moment (field-independent basis, Debye):
    X=             -1.7010    Y=              6.3767    Z=              0.5033  Tot=              6.6188
 Quadrupole moment (field-independent basis, Debye-Ang):
   XX=            -58.2389   YY=           -107.1438   ZZ=            -98.2878
   XY=              4.3865   XZ=              6.5495   YZ=             -2.7229

 Normal termination of Gaussian 16 at Thu May  6 00:17:13 2021.
