 Gaussian 16, Revision A.03,
 Gaussian 16:  EM64L-G16RevA.03 25-Dec-2016

 -------------
 #p 6-31g* mp2
 -------------

 ------------------------------------------------------
 Input file generated by CHIRIPA (05-May-2021 14:53:18)
 ------------------------------------------------------
 Symbolic Z-matrix:
 Charge =  0 Multiplicity = 1

                         Standard orientation:
 ---------------------------------------------------------------------
 Center     Atomic      Atomic             Coordinates (Angstroms)
 Number     Number       Type             X           Y           Z
 ---------------------------------------------------------------------
      1          6           0        3.170283    0.247087    0.165871
      2          6           0        4.482426   -0.332905   -0.363159
      3          6           0        5.295333    0.681702   -1.167864
      4          1           0        2.570745    0.611706   -0.679441
      5          1           0        3.390695    1.121934    0.793132
      6          1           0        4.259690   -1.207226   -0.988113
      7          1           0        5.078827   -0.696360    0.483495
      8          1           0        5.546426    1.550478   -0.550790
      9          1           0        4.722636    1.036709   -2.030760
     10          1           0        6.229255    0.246077   -1.536484
     11          6           0        2.346461   -0.755206    0.972378
     12          6           0        1.034318   -0.175214    1.501408
     13          6           0        0.221411   -1.189821    2.306113
     14          1           0        2.126049   -1.630053    0.345117
     15          1           0        2.945999   -1.119825    1.817690
     16          1           0        0.437917    0.188240    0.654754
     17          1           0        1.257054    0.699107    2.126362
     18          1           0        0.794108   -1.544828    3.169009
     19          1           0       -0.029683   -2.058597    1.689040
     20          1           0       -0.712511   -0.754196    2.674733
     21          6           0       -2.270700   -2.215552   -1.169171
     22          6           0       -2.926630   -1.801883   -0.005060
     23          6           0       -2.869329   -0.466839    0.405941
     24          6           0       -2.143791    0.431864   -0.374583
     25          6           0       -1.479620    0.050392   -1.539334
     26          6           0       -1.550557   -1.289727   -1.931249
     27          1           0       -2.320508   -3.254617   -1.481033
     28          1           0       -3.486646   -2.518697    0.588744
     29          1           0       -3.367731   -0.119521    1.302816
     30          1           0       -0.929206    0.788066   -2.110563
     31          1           0       -1.040168   -1.608150   -2.835768
     32          7           0       -2.075910    1.847902    0.050423
     33          8           0       -1.430092    2.620144   -0.654701
     34          8           0       -2.669809    2.158738    1.080618
 ---------------------------------------------------------------------

 SCF Done:  E(RHF) =  -669.533934075     A.U. after   15 cycles
 E2 =    -0.2095491569D+01 EUMP2 =    -0.67162942564316D+03

 The electronic state is 1-A.
 Alpha  occ. eigenvalues --  -20.60841 -20.60836 -15.85879 -11.31230 -11.27820
 Alpha  occ. eigenvalues --  -11.27815 -11.27586 -11.26869 -11.26844 -11.21592
 Alpha  occ. eigenvalues --  -11.21395 -11.21332 -11.21270 -11.21035 -11.20998
 Alpha  occ. eigenvalues --   -1.59907  -1.39462  -1.19455  -1.08844  -1.08356
 Alpha  occ. eigenvalues --   -1.04854  -1.03463  -0.95929  -0.95664  -0.86944
 Alpha  occ. eigenvalues --   -0.86249  -0.82500  -0.79536  -0.78175  -0.77543
 Alpha  occ. eigenvalues --   -0.72104  -0.71249  -0.70555  -0.65102  -0.65008
 Alpha  occ. eigenvalues --   -0.64851  -0.62199  -0.60922  -0.59310  -0.57551
 Alpha  occ. eigenvalues --   -0.55350  -0.55315  -0.53088  -0.52943  -0.52524
 Alpha  occ. eigenvalues --   -0.52345  -0.49886  -0.48866  -0.48862  -0.47843
 Alpha  occ. eigenvalues --   -0.46608  -0.45724  -0.45655  -0.44831  -0.43725
 Alpha  occ. eigenvalues --   -0.37334  -0.36376
 Alpha virt. eigenvalues --    0.04964   0.11065   0.16468   0.21183   0.22921
 Alpha virt. eigenvalues --    0.24227   0.26404   0.26947   0.27220   0.28234
 Alpha virt. eigenvalues --    0.28376   0.30581   0.31344   0.31518   0.31963

 Mulliken charges:
               1
     1  C   -0.297809
     2  C   -0.299443
     3  C   -0.475421
     4  H    0.148333
     5  H    0.153478
     6  H    0.148455
     7  H    0.152093
     8  H    0.157278
     9  H    0.154577
    10  H    0.159335
    11  C   -0.297288
    12  C   -0.304394
    13  C   -0.475568
    14  H    0.144901
    15  H    0.149387
    16  H    0.154068
    17  H    0.157562
    18  H    0.153884
    19  H    0.151930
    20  H    0.158477
    21  C   -0.172389
    22  C   -0.215863
    23  C   -0.169141
    24  C    0.158836
    25  C   -0.175879
    26  C   -0.215773
    27  H    0.226052
    28  H    0.224190
    29  H    0.275564
    30  H    0.275429
    31  H    0.223791
    32  N    0.492028
    33  O   -0.460254
    34  O   -0.460429
 Sum of Mulliken charges =  -0.00000

 Dipole moment (field-independent basis, Debye):
    X=             -0.3242    Y=             -4.9200    Z=             -1.4929  Tot=              5.1517
 Quadrupole moment (field-independent basis, Debye-Ang):
   XX=            -92.8702   YY=            -99.8183   ZZ=            -90.4820
   XY=             11.4405   XZ=              1.6065   YZ=              1.0811

 Normal termination of Gaussian 16 at Thu May  6 09:10:46 2021.
