 Gaussian 16, Revision A.03,
 Gaussian 16:  EM64L-G16RevA.03 25-Dec-2016

 -------------
 #p 6-31g* mp2
 -------------

 ------------------------------------------------------
 Input file generated by CHIRIPA (05-May-2021 14:51:09)
 ------------------------------------------------------
 Symbolic Z-matrix:
 Charge =  0 Multiplicity = 1

                         Standard orientation:
 ---------------------------------------------------------------------
 Center     Atomic      Atomic             Coordinates (Angstroms)
 Number     Number       Type             X           Y           Z
 ---------------------------------------------------------------------
      1          6           0       -4.767061    0.223940    0.239071
      2          6           0       -5.310542    1.572733   -0.233549
      3          6           0       -6.573851    1.996582    0.516248
      4          1           0       -5.544451   -0.542010    0.112857
      5          1           0       -4.554454    0.279068    1.315712
      6          1           0       -5.520759    1.515502   -1.309258
      7          1           0       -4.531702    2.335525   -0.106374
      8          1           0       -6.374648    2.081548    1.589421
      9          1           0       -7.369324    1.256867    0.379703
     10          1           0       -6.945290    2.963427    0.162548
     11          6           0       -3.504281   -0.213373   -0.501112
     12          6           0       -2.960800   -1.562166   -0.028492
     13          6           0       -1.697490   -1.986015   -0.778289
     14          1           0       -3.716887   -0.268502   -1.577752
     15          1           0       -2.726890    0.552577   -0.374898
     16          1           0       -3.739639   -2.324958   -0.155667
     17          1           0       -2.750583   -1.504936    1.047217
     18          1           0       -0.902017   -1.246300   -0.641743
     19          1           0       -1.896693   -2.070982   -1.851462
     20          1           0       -1.326052   -2.952860   -0.424589
     21          6           0        3.715534   -0.457304    0.581125
     22          6           0        2.593904   -1.181535   -0.164141
     23          6           0        1.762215   -2.082013    0.749765
     24          1           0        4.368590   -1.200094    1.059377
     25          1           0        3.279649    0.143451    1.391369
     26          1           0        3.031653   -1.779660   -0.973610
     27          1           0        1.943552   -0.436941   -0.640834
     28          1           0        1.298673   -1.495926    1.549910
     29          1           0        2.392958   -2.846273    1.215243
     30          1           0        0.966163   -2.589987    0.196478
     31          6           0        4.555808    0.446737   -0.319084
     32          6           0        5.677437    1.170969    0.426182
     33          6           0        6.509127    2.071447   -0.487724
     34          1           0        4.991691   -0.154017   -1.129327
     35          1           0        3.902752    1.189527   -0.797336
     36          1           0        6.327790    0.426374    0.902875
     37          1           0        5.239688    1.769093    1.235650
     38          1           0        5.878384    2.835707   -0.953203
     39          1           0        6.972668    1.485359   -1.287869
     40          1           0        7.305178    2.579420    0.065562
 ---------------------------------------------------------------------

 SCF Done:  E(RHF) =  -470.732281582     A.U. after   11 cycles
 E2 =    -0.1582931062D+01 EUMP2 =    -0.47231521264385D+03

 The electronic state is 1-A.
 Alpha  occ. eigenvalues --  -11.21612 -11.21603 -11.21586 -11.21556 -11.21416
 Alpha  occ. eigenvalues --  -11.21377 -11.21357 -11.21317 -11.21079 -11.21059
 Alpha  occ. eigenvalues --  -11.21050 -11.20891  -1.08443  -1.08394  -1.03567
 Alpha  occ. eigenvalues --   -1.03461  -0.96066  -0.95865  -0.87116  -0.86854
 Alpha  occ. eigenvalues --   -0.79643  -0.79518  -0.78253  -0.78211  -0.65096
 Alpha  occ. eigenvalues --   -0.65012  -0.61060  -0.60812  -0.59585  -0.59132
 Alpha  occ. eigenvalues --   -0.57613  -0.57555  -0.55396  -0.55091  -0.53020
 Alpha  occ. eigenvalues --   -0.52461  -0.52402  -0.52175  -0.49964  -0.49786
 Alpha  occ. eigenvalues --   -0.47928  -0.47852  -0.46615  -0.46589  -0.45799
 Alpha  occ. eigenvalues --   -0.45748  -0.45720  -0.45673  -0.43954  -0.43538
 Alpha virt. eigenvalues --    0.21858   0.23067   0.23554   0.25046   0.26276
 Alpha virt. eigenvalues --    0.26834   0.27115   0.27225   0.27741   0.28855
 Alpha virt. eigenvalues --    0.29451   0.31001   0.31492   0.31852   0.32236

 Mulliken charges:
               1
     1  C   -0.298321
     2  C   -0.299639
     3  C   -0.475708
     4  H    0.149747
     5  H    0.149552
     6  H    0.151953
     7  H    0.151833
     8  H    0.155189
     9  H    0.155226
    10  H    0.160264
    11  C   -0.298674
    12  C   -0.299582
    13  C   -0.480454
    14  H    0.149586
    15  H    0.149463
    16  H    0.151897
    17  H    0.152372
    18  H    0.161094
    19  H    0.154831
    20  H    0.160992
    21  C   -0.298136
    22  C   -0.300842
    23  C   -0.481820
    24  H    0.149758
    25  H    0.149121
    26  H    0.152028
    27  H    0.151655
    28  H    0.153228
    29  H    0.153914
    30  H    0.169793
    31  C   -0.298204
    32  C   -0.299602
    33  C   -0.475676
    34  H    0.149543
    35  H    0.149418
    36  H    0.151935
    37  H    0.151787
    38  H    0.155111
    39  H    0.155190
    40  H    0.160178
 Sum of Mulliken charges =  -0.00000

 Dipole moment (field-independent basis, Debye):
    X=             -0.0370    Y=             -0.0175    Z=             -0.0173  Tot=              0.0444
 Quadrupole moment (field-independent basis, Debye-Ang):
   XX=            -85.5017   YY=            -84.5982   ZZ=            -84.8004
   XY=             -0.2736   XZ=              1.0066   YZ=              0.7020

 Normal termination of Gaussian 16 at Thu May  6 00:33:23 2021.
