 Gaussian 16, Revision A.03,
 Gaussian 16:  EM64L-G16RevA.03 25-Dec-2016

 -------------
 #p 6-31g* mp2
 -------------

 ------------------------------------------------------
 Input file generated by CHIRIPA (05-May-2021 14:57:23)
 ------------------------------------------------------
 Symbolic Z-matrix:
 Charge =  0 Multiplicity = 1

                         Standard orientation:
 ---------------------------------------------------------------------
 Center     Atomic      Atomic             Coordinates (Angstroms)
 Number     Number       Type             X           Y           Z
 ---------------------------------------------------------------------
      1          6           0       -1.148129   -0.465730   -0.736899
      2          6           0       -1.696408    0.816301   -0.625954
      3          6           0       -3.047165    0.985744   -0.307692
      4          6           0       -3.824149   -0.153956   -0.106023
      5          6           0       -3.307127   -1.444416   -0.209418
      6          6           0       -1.953819   -1.590015   -0.528644
      7          1           0       -0.097838   -0.588096   -0.984507
      8          1           0       -1.073080    1.691243   -0.787148
      9          1           0       -3.497425    1.966654   -0.215500
     10          1           0       -3.953581   -2.297552   -0.043059
     11          1           0       -1.530723   -2.586872   -0.614145
     12          7           0       -5.255486    0.012804    0.231417
     13          8           0       -5.918828   -1.007356    0.404298
     14          8           0       -5.686924    1.160514    0.316631
     15          6           0        2.160746    2.257490    0.296474
     16          6           0        3.459981    2.333413   -0.216113
     17          6           0        4.259888    1.189564   -0.295533
     18          6           0        3.726253   -0.019265    0.148602
     19          6           0        2.435607   -0.127155    0.664241
     20          6           0        1.653600    1.029612    0.734243
     21          1           0        1.546311    3.151077    0.354512
     22          1           0        3.856459    3.285654   -0.556828
     23          1           0        5.269077    1.219888   -0.688006
     24          1           0        2.068010   -1.090562    0.996111
     25          1           0        0.644950    0.967667    1.132783
     26          7           0        4.563604   -1.237045    0.069509
     27          8           0        4.070143   -2.290065    0.467353
     28          8           0        5.697526   -1.115461   -0.388831
 ---------------------------------------------------------------------

 SCF Done:  E(RHF) =  -868.336213278     A.U. after   16 cycles
 E2 =    -0.2602668060D+01 EUMP2 =    -0.87093888133794D+03

 The electronic state is 1-A.
 Alpha  occ. eigenvalues --  -20.61615 -20.61599 -20.61238 -20.61229 -15.86665
 Alpha  occ. eigenvalues --  -15.86295 -11.32195 -11.31774 -11.28762 -11.28691
 Alpha  occ. eigenvalues --  -11.28496 -11.28416 -11.28332 -11.28039 -11.27756
 Alpha  occ. eigenvalues --  -11.27724 -11.27448 -11.27315  -1.60682  -1.60310
 Alpha  occ. eigenvalues --   -1.40231  -1.39860  -1.20368  -1.19972  -1.09738
 Alpha  occ. eigenvalues --   -1.09339  -1.05785  -1.05390  -0.96539  -0.96152
 Alpha  occ. eigenvalues --   -0.87214  -0.86734  -0.83382  -0.82959  -0.78402
 Alpha  occ. eigenvalues --   -0.78003  -0.72876  -0.72509  -0.72012  -0.71637
 Alpha  occ. eigenvalues --   -0.71475  -0.71043  -0.66017  -0.65941  -0.65566
 Alpha  occ. eigenvalues --   -0.65267  -0.63106  -0.62685  -0.56266  -0.55918
 Alpha  occ. eigenvalues --   -0.54124  -0.53983  -0.53501  -0.53427  -0.49647
 Alpha  occ. eigenvalues --   -0.49626  -0.49277  -0.49257  -0.45600  -0.45240
 Alpha  occ. eigenvalues --   -0.38405  -0.38048  -0.37248  -0.36971
 Alpha virt. eigenvalues --    0.04028   0.04567   0.09937   0.10721   0.15383
 Alpha virt. eigenvalues --    0.16063   0.19834   0.21660   0.25359   0.26646
 Alpha virt. eigenvalues --    0.28064   0.28158   0.30271   0.31012   0.31735

 Mulliken charges:
               1
     1  C   -0.179562
     2  C   -0.227923
     3  C   -0.170696
     4  C    0.158525
     5  C   -0.169316
     6  C   -0.220369
     7  H    0.234681
     8  H    0.219737
     9  H    0.275855
    10  H    0.278486
    11  H    0.228724
    12  N    0.488097
    13  O   -0.458057
    14  O   -0.460037
    15  C   -0.176462
    16  C   -0.216856
    17  C   -0.170593
    18  C    0.160590
    19  C   -0.180742
    20  C   -0.228228
    21  H    0.226287
    22  H    0.227329
    23  H    0.278867
    24  H    0.276192
    25  H    0.234326
    26  N    0.487917
    27  O   -0.460052
    28  O   -0.456721
 Sum of Mulliken charges =  -0.00000

 Dipole moment (field-independent basis, Debye):
    X=              2.2039    Y=              3.6285    Z=             -0.9211  Tot=              4.3442
 Quadrupole moment (field-independent basis, Debye-Ang):
   XX=           -161.9514   YY=            -98.5048   ZZ=           -105.2142
   XY=             21.0263   XZ=              2.9343   YZ=             -0.5036

 Normal termination of Gaussian 16 at Thu May  6 19:34:33 2021.
