 Gaussian 16, Revision A.03,
 Gaussian 16:  EM64L-G16RevA.03 25-Dec-2016

 -------------
 #p 6-31g* mp2
 -------------

 ------------------------------------------------------
 Input file generated by CHIRIPA (05-May-2021 14:53:13)
 ------------------------------------------------------
 Symbolic Z-matrix:
 Charge =  0 Multiplicity = 1

                         Standard orientation:
 ---------------------------------------------------------------------
 Center     Atomic      Atomic             Coordinates (Angstroms)
 Number     Number       Type             X           Y           Z
 ---------------------------------------------------------------------
      1          6           0        2.953738   -0.790397   -0.015892
      2          6           0        2.197040   -1.766382    0.885688
      3          6           0        2.334258   -3.219530    0.430357
      4          1           0        2.583641   -0.890032   -1.045477
      5          1           0        4.016123   -1.070182   -0.037181
      6          1           0        1.136637   -1.484009    0.906368
      7          1           0        2.568848   -1.664276    1.913282
      8          1           0        3.385707   -3.524562    0.427095
      9          1           0        1.945359   -3.343271   -0.585540
     10          1           0        1.785613   -3.900101    1.088894
     11          6           0        2.826117    0.666245    0.426414
     12          6           0        3.582815    1.642230   -0.475167
     13          6           0        3.445597    3.095377   -0.019835
     14          1           0        1.763732    0.946029    0.447702
     15          1           0        3.196214    0.765880    1.455999
     16          1           0        3.211007    1.540124   -1.502760
     17          1           0        4.643218    1.359857   -0.495847
     18          1           0        3.834496    3.219118    0.996062
     19          1           0        2.394148    3.400409   -0.016573
     20          1           0        3.994242    3.775949   -0.678372
     21          6           0       -2.957056    2.409401    0.390126
     22          6           0       -3.713793    1.328776    0.855011
     23          6           0       -3.335742    0.016416    0.556115
     24          6           0       -2.190150   -0.179747   -0.213579
     25          6           0       -1.415400    0.876089   -0.691348
     26          6           0       -1.812293    2.180013   -0.380211
     27          1           0       -3.258053    3.425597    0.627070
     28          1           0       -4.603297    1.503926    1.453467
     29          1           0       -3.903235   -0.838538    0.903138
     30          1           0       -0.533607    0.669932   -1.285787
     31          1           0       -1.222677    3.017316   -0.742598
     32          7           0       -1.779951   -1.564617   -0.536486
     33          8           0       -0.766539   -1.710793   -1.216387
     34          8           0       -2.479616   -2.477681   -0.103565
 ---------------------------------------------------------------------

 SCF Done:  E(RHF) =  -669.536260725     A.U. after   15 cycles
 E2 =    -0.2093136181D+01 EUMP2 =    -0.67162939690580D+03

 The electronic state is 1-A.
 Alpha  occ. eigenvalues --  -20.61021 -20.61009 -15.86031 -11.31340 -11.27902
 Alpha  occ. eigenvalues --  -11.27893 -11.27623 -11.26905 -11.26893 -11.21641
 Alpha  occ. eigenvalues --  -11.21317 -11.21222 -11.20797 -11.20698 -11.19881
 Alpha  occ. eigenvalues --   -1.60067  -1.39626  -1.19505  -1.08910  -1.08062
 Alpha  occ. eigenvalues --   -1.04898  -1.03072  -0.95755  -0.95538  -0.86557
 Alpha  occ. eigenvalues --   -0.86297  -0.82591  -0.79231  -0.77794  -0.77638
 Alpha  occ. eigenvalues --   -0.72265  -0.71392  -0.70609  -0.65166  -0.64922
 Alpha  occ. eigenvalues --   -0.64672  -0.62237  -0.60445  -0.59002  -0.57124
 Alpha  occ. eigenvalues --   -0.55397  -0.54838  -0.53219  -0.52981  -0.52238
 Alpha  occ. eigenvalues --   -0.51958  -0.49535  -0.49009  -0.48973  -0.47526
 Alpha  occ. eigenvalues --   -0.46306  -0.45519  -0.45236  -0.44730  -0.43338
 Alpha  occ. eigenvalues --   -0.37474  -0.36482
 Alpha virt. eigenvalues --    0.04829   0.11088   0.16287   0.20036   0.23009
 Alpha virt. eigenvalues --    0.24496   0.26110   0.27031   0.27947   0.28263
 Alpha virt. eigenvalues --    0.29067   0.30830   0.31904   0.32435   0.32753

 Mulliken charges:
               1
     1  C   -0.299957
     2  C   -0.294841
     3  C   -0.477169
     4  H    0.156219
     5  H    0.147364
     6  H    0.152237
     7  H    0.144765
     8  H    0.147190
     9  H    0.171029
    10  H    0.159960
    11  C   -0.299775
    12  C   -0.299764
    13  C   -0.473567
    14  H    0.142715
    15  H    0.149570
    16  H    0.149294
    17  H    0.154403
    18  H    0.156857
    19  H    0.146185
    20  H    0.160186
    21  C   -0.170256
    22  C   -0.218288
    23  C   -0.170571
    24  C    0.157245
    25  C   -0.171155
    26  C   -0.219461
    27  H    0.226445
    28  H    0.224134
    29  H    0.276035
    30  H    0.277032
    31  H    0.224687
    32  N    0.488435
    33  O   -0.459450
    34  O   -0.457733
 Sum of Mulliken charges =  -0.00000

 Dipole moment (field-independent basis, Debye):
    X=             -1.6497    Y=              4.7340    Z=              1.0482  Tot=              5.1216
 Quadrupole moment (field-independent basis, Debye-Ang):
   XX=            -84.9917   YY=            -97.5734   ZZ=            -94.4017
   XY=             -9.1520   XZ=             -4.3681   YZ=             -2.2576

 Normal termination of Gaussian 16 at Wed May  5 18:33:27 2021.
