 Gaussian 16, Revision A.03,
 Gaussian 16:  EM64L-G16RevA.03 25-Dec-2016

 -------------
 #p 6-31g* mp2
 -------------

 ------------------------------------------------------
 Input file generated by CHIRIPA (05-May-2021 14:53:17)
 ------------------------------------------------------
 Symbolic Z-matrix:
 Charge =  0 Multiplicity = 1

                         Standard orientation:
 ---------------------------------------------------------------------
 Center     Atomic      Atomic             Coordinates (Angstroms)
 Number     Number       Type             X           Y           Z
 ---------------------------------------------------------------------
      1          6           0        3.541883    0.710077    0.576103
      2          6           0        2.884683    1.823920   -0.239635
      3          6           0        2.399653    2.985186    0.628696
      4          1           0        2.825256    0.338273    1.321189
      5          1           0        4.388790    1.127557    1.138112
      6          1           0        2.040118    1.404178   -0.801011
      7          1           0        3.602893    2.192984   -0.982993
      8          1           0        3.235364    3.430812    1.177881
      9          1           0        1.663709    2.637524    1.360898
     10          1           0        1.933182    3.770143    0.025282
     11          6           0        4.031956   -0.457887   -0.277955
     12          6           0        4.689156   -1.571729    0.537783
     13          6           0        5.174186   -2.732996   -0.330548
     14          1           0        3.185049   -0.875367   -0.839964
     15          1           0        4.748582   -0.086083   -1.023041
     16          1           0        3.970945   -1.940794    1.281141
     17          1           0        5.533721   -1.151988    1.099159
     18          1           0        5.910129   -2.385334   -1.062750
     19          1           0        4.338474   -3.178622   -0.879733
     20          1           0        5.640657   -3.517953    0.272866
     21          6           0       -1.743284    2.054623   -0.619565
     22          6           0       -2.996164    2.086618    0.001553
     23          6           0       -3.678588    0.899834    0.285086
     24          6           0       -3.076016   -0.306669   -0.067826
     25          6           0       -1.828993   -0.371355   -0.687535
     26          6           0       -1.164717    0.827901   -0.961524
     27          1           0       -1.220210    2.981389   -0.836113
     28          1           0       -3.447904    3.037852    0.268252
     29          1           0       -4.649632    0.895654    0.765165
     30          1           0       -1.404144   -1.334903   -0.941495
     31          1           0       -0.191830    0.800019   -1.443974
     32          7           0       -3.788862   -1.569666    0.227286
     33          8           0       -3.236494   -2.619670   -0.093677
     34          8           0       -4.886460   -1.485682    0.773968
 ---------------------------------------------------------------------

 SCF Done:  E(RHF) =  -669.535521513     A.U. after   15 cycles
 E2 =    -0.2091466854D+01 EUMP2 =    -0.67162698836698D+03

 The electronic state is 1-A.
 Alpha  occ. eigenvalues --  -20.60774 -20.60769 -15.85827 -11.31194 -11.27766
 Alpha  occ. eigenvalues --  -11.27763 -11.27498 -11.26772 -11.26757 -11.22550
 Alpha  occ. eigenvalues --  -11.22057 -11.22008 -11.21978 -11.21939 -11.21374
 Alpha  occ. eigenvalues --   -1.59849  -1.39403  -1.19367  -1.09080  -1.08758
 Alpha  occ. eigenvalues --   -1.04773  -1.04168  -0.96601  -0.95592  -0.87619
 Alpha  occ. eigenvalues --   -0.86171  -0.82428  -0.80258  -0.78866  -0.77477
 Alpha  occ. eigenvalues --   -0.72045  -0.71173  -0.70467  -0.65760  -0.65017
 Alpha  occ. eigenvalues --   -0.64763  -0.62171  -0.61508  -0.60001  -0.58208
 Alpha  occ. eigenvalues --   -0.55873  -0.55266  -0.53315  -0.53094  -0.53033
 Alpha  occ. eigenvalues --   -0.52868  -0.50532  -0.48818  -0.48800  -0.48543
 Alpha  occ. eigenvalues --   -0.47277  -0.46403  -0.46309  -0.44808  -0.44420
 Alpha  occ. eigenvalues --   -0.37338  -0.36373
 Alpha virt. eigenvalues --    0.05057   0.11197   0.16528   0.19336   0.22760
 Alpha virt. eigenvalues --    0.23857   0.24707   0.26461   0.26610   0.28571
 Alpha virt. eigenvalues --    0.28946   0.29798   0.31114   0.31582   0.32335

 Mulliken charges:
               1
     1  C   -0.299154
     2  C   -0.302171
     3  C   -0.477576
     4  H    0.152636
     5  H    0.152528
     6  H    0.142629
     7  H    0.154954
     8  H    0.160235
     9  H    0.158702
    10  H    0.154204
    11  C   -0.297733
    12  C   -0.300503
    13  C   -0.476132
    14  H    0.145285
    15  H    0.150660
    16  H    0.154161
    17  H    0.153059
    18  H    0.155253
    19  H    0.155838
    20  H    0.162581
    21  C   -0.172147
    22  C   -0.218820
    23  C   -0.170947
    24  C    0.158683
    25  C   -0.172205
    26  C   -0.222366
    27  H    0.227057
    28  H    0.223594
    29  H    0.275644
    30  H    0.275496
    31  H    0.229440
    32  N    0.488038
    33  O   -0.460535
    34  O   -0.460388
 Sum of Mulliken charges =  -0.00000

 Dipole moment (field-independent basis, Debye):
    X=              2.6627    Y=              4.4309    Z=             -0.9448  Tot=              5.2551
 Quadrupole moment (field-independent basis, Debye-Ang):
   XX=           -106.2728   YY=            -97.1318   ZZ=            -94.7794
   XY=            -16.1687   XZ=              1.6475   YZ=              0.8063

 Normal termination of Gaussian 16 at Thu May  6 02:46:26 2021.
