 Gaussian 16, Revision A.03,
 Gaussian 16:  EM64L-G16RevA.03 25-Dec-2016

 -------------
 #p 6-31g* mp2
 -------------

 ------------------------------------------------------
 Input file generated by CHIRIPA (05-May-2021 14:53:12)
 ------------------------------------------------------
 Symbolic Z-matrix:
 Charge =  0 Multiplicity = 1

                         Standard orientation:
 ---------------------------------------------------------------------
 Center     Atomic      Atomic             Coordinates (Angstroms)
 Number     Number       Type             X           Y           Z
 ---------------------------------------------------------------------
      1          6           0        4.637683   -0.049460    0.118849
      2          6           0        5.834231    0.445929   -0.694077
      3          6           0        7.004923    0.886126    0.185413
      4          1           0        4.308113    0.748768    0.797936
      5          1           0        4.956316   -0.887990    0.753463
      6          1           0        5.513110    1.282379   -1.327992
      7          1           0        6.160870   -0.353505   -1.371444
      8          1           0        7.353031    0.055293    0.807618
      9          1           0        6.701590    1.700473    0.851317
     10          1           0        7.849440    1.236507   -0.416155
     11          6           0        3.459377   -0.493051   -0.746340
     12          6           0        2.262829   -0.988441    0.066586
     13          6           0        1.092137   -1.428637   -0.812904
     14          1           0        3.140744    0.345478   -1.380954
     15          1           0        3.788947   -1.291280   -1.425427
     16          1           0        1.936190   -0.189006    0.743953
     17          1           0        2.583950   -1.824891    0.700501
     18          1           0        1.395470   -2.242984   -1.478808
     19          1           0        0.744030   -0.597805   -1.435109
     20          1           0        0.247620   -1.779019   -0.211336
     21          6           0       -1.036978    0.246141    1.603476
     22          6           0       -1.459092    1.399944    0.934837
     23          6           0       -2.635380    1.392510    0.179298
     24          6           0       -3.368442    0.208611    0.113792
     25          6           0       -2.974111   -0.957142    0.768632
     26          6           0       -1.794498   -0.926653    1.518389
     27          1           0       -0.121918    0.260870    2.188151
     28          1           0       -0.872796    2.312177    0.999134
     29          1           0       -2.985311    2.271462   -0.348347
     30          1           0       -3.579683   -1.851475    0.685759
     31          1           0       -1.469105   -1.824209    2.036613
     32          7           0       -4.615484    0.188536   -0.683003
     33          8           0       -5.243479   -0.867166   -0.724860
     34          8           0       -4.941308    1.228884   -1.250585
 ---------------------------------------------------------------------

 SCF Done:  E(RHF) =  -669.533987097     A.U. after   15 cycles
 E2 =    -0.2093514247D+01 EUMP2 =    -0.67162750134444D+03

 The electronic state is 1-A.
 Alpha  occ. eigenvalues --  -20.60782 -20.60776 -15.85837 -11.31218 -11.27810
 Alpha  occ. eigenvalues --  -11.27799 -11.27519 -11.26812 -11.26786 -11.22326
 Alpha  occ. eigenvalues --  -11.22064 -11.21974 -11.21913 -11.21489 -11.21410
 Alpha  occ. eigenvalues --   -1.59857  -1.39410  -1.19408  -1.09007  -1.08787
 Alpha  occ. eigenvalues --   -1.04820  -1.04053  -0.96474  -0.95618  -0.87483
 Alpha  occ. eigenvalues --   -0.86212  -0.82463  -0.80137  -0.78820  -0.77502
 Alpha  occ. eigenvalues --   -0.72056  -0.71180  -0.70525  -0.65630  -0.65060
 Alpha  occ. eigenvalues --   -0.64828  -0.62166  -0.61465  -0.59895  -0.58137
 Alpha  occ. eigenvalues --   -0.55784  -0.55304  -0.53582  -0.52978  -0.52908
 Alpha  occ. eigenvalues --   -0.52537  -0.50388  -0.48820  -0.48808  -0.48437
 Alpha  occ. eigenvalues --   -0.47178  -0.46351  -0.46278  -0.44813  -0.44316
 Alpha  occ. eigenvalues --   -0.37296  -0.36379
 Alpha virt. eigenvalues --    0.05012   0.11141   0.16401   0.20425   0.22548
 Alpha virt. eigenvalues --    0.24151   0.25538   0.26538   0.26778   0.27841
 Alpha virt. eigenvalues --    0.28671   0.30266   0.31134   0.31772   0.32096

 Mulliken charges:
               1
     1  C   -0.298036
     2  C   -0.300019
     3  C   -0.475891
     4  H    0.146181
     5  H    0.149790
     6  H    0.152516
     7  H    0.153545
     8  H    0.155567
     9  H    0.154467
    10  H    0.161908
    11  C   -0.297888
    12  C   -0.301221
    13  C   -0.477508
    14  H    0.150523
    15  H    0.152689
    16  H    0.140439
    17  H    0.150527
    18  H    0.155877
    19  H    0.157707
    20  H    0.162587
    21  C   -0.163527
    22  C   -0.219831
    23  C   -0.170396
    24  C    0.158786
    25  C   -0.170250
    26  C   -0.222937
    27  H    0.227727
    28  H    0.223279
    29  H    0.275794
    30  H    0.275945
    31  H    0.224276
    32  N    0.488109
    33  O   -0.460269
    34  O   -0.460466
 Sum of Mulliken charges =  -0.00000

 Dipole moment (field-independent basis, Debye):
    X=              4.3984    Y=              0.0695    Z=              2.7598  Tot=              5.1930
 Quadrupole moment (field-independent basis, Debye-Ang):
   XX=           -125.4729   YY=            -89.3964   ZZ=            -94.7977
   XY=              0.7724   XZ=             -9.8898   YZ=             -0.9021

 Normal termination of Gaussian 16 at Thu May  6 08:52:32 2021.
