 Gaussian 16, Revision A.03,
 Gaussian 16:  EM64L-G16RevA.03 25-Dec-2016

 -------------
 #p 6-31g* mp2
 -------------

 ------------------------------------------------------
 Input file generated by CHIRIPA (05-May-2021 14:55:22)
 ------------------------------------------------------
 Symbolic Z-matrix:
 Charge =  0 Multiplicity = 1

                         Standard orientation:
 ---------------------------------------------------------------------
 Center     Atomic      Atomic             Coordinates (Angstroms)
 Number     Number       Type             X           Y           Z
 ---------------------------------------------------------------------
      1          6           0       -0.569641   -0.958283    0.617159
      2          6           0       -1.476714   -0.643781    1.634424
      3          6           0       -2.804455   -0.329532    1.329629
      4          6           0       -3.192805   -0.339402   -0.009168
      5          6           0       -2.312709   -0.648536   -1.045100
      6          6           0       -0.989793   -0.959654   -0.717005
      7          1           0        0.459906   -1.201183    0.862981
      8          1           0       -1.153217   -0.641929    2.671435
      9          1           0       -3.527541   -0.082338    2.097391
     10          1           0       -2.664674   -0.642094   -2.069550
     11          1           0       -0.287535   -1.203511   -1.509098
     12          7           0       -4.595871   -0.008379   -0.344174
     13          8           0       -4.913114   -0.024071   -1.531502
     14          8           0       -5.351785    0.260502    0.586919
     15          6           0        4.439454    0.221662   -0.346712
     16          6           0        4.826299   -1.133455    0.246578
     17          6           0        6.126167   -1.685829   -0.339101
     18          1           0        4.339433    0.122661   -1.436271
     19          1           0        5.254837    0.937074   -0.171405
     20          1           0        4.009845   -1.845732    0.071418
     21          1           0        4.925224   -1.031261    1.334873
     22          1           0        6.956376   -0.997179   -0.151712
     23          1           0        6.035795   -1.816278   -1.422345
     24          1           0        6.383901   -2.655106    0.099003
     25          6           0        3.142147    0.786873    0.228836
     26          6           0        2.755303    2.141990   -0.364455
     27          6           0        1.455435    2.694365    0.221225
     28          1           0        2.326765    0.071462    0.053529
     29          1           0        3.242169    0.885875    1.318395
     30          1           0        2.656377    2.039796   -1.452749
     31          1           0        3.571756    2.854268   -0.189296
     32          1           0        1.545806    2.824814    1.304469
     33          1           0        0.625226    2.005715    0.033836
     34          1           0        1.197701    3.663642   -0.216879
 ---------------------------------------------------------------------

 SCF Done:  E(RHF) =  -669.535363361     A.U. after   15 cycles
 E2 =    -0.2092391070D+01 EUMP2 =    -0.67162775443021D+03

 The electronic state is 1-A.
 Alpha  occ. eigenvalues --  -20.60778 -20.60772 -15.85833 -11.31213 -11.27797
 Alpha  occ. eigenvalues --  -11.27782 -11.27514 -11.26825 -11.26788 -11.22454
 Alpha  occ. eigenvalues --  -11.22364 -11.22262 -11.22187 -11.21751 -11.21527
 Alpha  occ. eigenvalues --   -1.59853  -1.39406  -1.19397  -1.09256  -1.08786
 Alpha  occ. eigenvalues --   -1.04800  -1.04241  -0.96680  -0.95618  -0.87692
 Alpha  occ. eigenvalues --   -0.86196  -0.82451  -0.80312  -0.79110  -0.77490
 Alpha  occ. eigenvalues --   -0.72051  -0.71176  -0.70516  -0.65897  -0.65045
 Alpha  occ. eigenvalues --   -0.64796  -0.62146  -0.61637  -0.60054  -0.58307
 Alpha  occ. eigenvalues --   -0.56005  -0.55294  -0.53333  -0.53221  -0.53006
 Alpha  occ. eigenvalues --   -0.52890  -0.50614  -0.48812  -0.48804  -0.48612
 Alpha  occ. eigenvalues --   -0.47351  -0.46603  -0.46559  -0.44808  -0.44529
 Alpha  occ. eigenvalues --   -0.37326  -0.36403
 Alpha virt. eigenvalues --    0.05022   0.11198   0.16438   0.19845   0.22651
 Alpha virt. eigenvalues --    0.23695   0.25065   0.26157   0.27203   0.27419
 Alpha virt. eigenvalues --    0.29838   0.30619   0.30921   0.31301   0.31703

 Mulliken charges:
               1
     1  C   -0.170811
     2  C   -0.219042
     3  C   -0.170598
     4  C    0.158510
     5  C   -0.170679
     6  C   -0.220890
     7  H    0.230466
     8  H    0.224199
     9  H    0.275856
    10  H    0.275821
    11  H    0.223328
    12  N    0.488105
    13  O   -0.460399
    14  O   -0.460241
    15  C   -0.298206
    16  C   -0.299529
    17  C   -0.475939
    18  H    0.150395
    19  H    0.153440
    20  H    0.145484
    21  H    0.152658
    22  H    0.157625
    23  H    0.156213
    24  H    0.161827
    25  C   -0.301093
    26  C   -0.299444
    27  C   -0.481211
    28  H    0.139803
    29  H    0.149974
    30  H    0.152214
    31  H    0.154725
    32  H    0.153589
    33  H    0.160336
    34  H    0.163515
 Sum of Mulliken charges =  -0.00000

 Dipole moment (field-independent basis, Debye):
    X=              5.0313    Y=             -1.1143    Z=              1.1845  Tot=              5.2875
 Quadrupole moment (field-independent basis, Debye-Ang):
   XX=           -126.6598   YY=            -94.6099   ZZ=            -89.6028
   XY=              2.7446   XZ=             -4.3611   YZ=              0.4794

 Normal termination of Gaussian 16 at Thu May  6 03:04:06 2021.
