 Gaussian 16, Revision A.03,
 Gaussian 16:  EM64L-G16RevA.03 25-Dec-2016

 -------------
 #p 6-31g* mp2
 -------------

 ------------------------------------------------------
 Input file generated by CHIRIPA (05-May-2021 14:53:13)
 ------------------------------------------------------
 Symbolic Z-matrix:
 Charge =  0 Multiplicity = 1

                         Standard orientation:
 ---------------------------------------------------------------------
 Center     Atomic      Atomic             Coordinates (Angstroms)
 Number     Number       Type             X           Y           Z
 ---------------------------------------------------------------------
      1          6           0        3.900013   -0.541288    0.074771
      2          6           0        4.606469   -1.421616   -0.956698
      3          6           0        4.800989   -2.858986   -0.473041
      4          1           0        4.481763   -0.540524    1.006711
      5          1           0        2.923401   -0.983203    0.316299
      6          1           0        5.580871   -0.977434   -1.197240
      7          1           0        4.023070   -1.420131   -1.886354
      8          1           0        3.835379   -3.324817   -0.251234
      9          1           0        5.402031   -2.879606    0.441795
     10          1           0        5.307849   -3.470751   -1.225834
     11          6           0        3.698291    0.898543   -0.394187
     12          6           0        2.991835    1.778871    0.637283
     13          6           0        2.797315    3.216240    0.153626
     14          1           0        4.674903    1.340457   -0.635715
     15          1           0        3.116542    0.897779   -1.326127
     16          1           0        3.575234    1.777385    1.566938
     17          1           0        2.017434    1.334689    0.877825
     18          1           0        2.196274    3.236860   -0.761210
     19          1           0        3.762925    3.682072   -0.068181
     20          1           0        2.290456    3.828006    0.906419
     21          6           0       -0.737171   -0.134758    1.303291
     22          6           0       -0.941339    0.684127    0.187826
     23          6           0       -2.173347    0.689599   -0.472988
     24          6           0       -3.183765   -0.140016    0.010837
     25          6           0       -3.011116   -0.967088    1.119635
     26          6           0       -1.770888   -0.956304    1.764822
     27          1           0        0.223076   -0.132694    1.810557
     28          1           0       -0.140344    1.323176   -0.172825
     29          1           0       -2.358558    1.313673   -1.338809
     30          1           0       -3.828593   -1.593318    1.455770
     31          1           0       -1.615174   -1.593297    2.630869
     32          7           0       -4.492387   -0.142829   -0.680465
     33          8           0       -5.366521   -0.882843   -0.234477
     34          8           0       -4.619174    0.595035   -1.655206
 ---------------------------------------------------------------------

 SCF Done:  E(RHF) =  -669.535095718     A.U. after   15 cycles
 E2 =    -0.2092222912D+01 EUMP2 =    -0.67162731862965D+03

 The electronic state is 1-A.
 Alpha  occ. eigenvalues --  -20.60748 -20.60743 -15.85801 -11.31166 -11.27732
 Alpha  occ. eigenvalues --  -11.27728 -11.27456 -11.26748 -11.26717 -11.22885
 Alpha  occ. eigenvalues --  -11.22403 -11.22328 -11.22271 -11.22173 -11.21669
 Alpha  occ. eigenvalues --   -1.59823  -1.39377  -1.19336  -1.09417  -1.08731
 Alpha  occ. eigenvalues --   -1.04744  -1.04467  -0.96887  -0.95570  -0.87904
 Alpha  occ. eigenvalues --   -0.86146  -0.82400  -0.80565  -0.79209  -0.77449
 Alpha  occ. eigenvalues --   -0.72021  -0.71146  -0.70466  -0.66142  -0.64986
 Alpha  occ. eigenvalues --   -0.64724  -0.62236  -0.61691  -0.60266  -0.58493
 Alpha  occ. eigenvalues --   -0.56175  -0.55250  -0.53574  -0.53299  -0.53067
 Alpha  occ. eigenvalues --   -0.52824  -0.50843  -0.48861  -0.48776  -0.48765
 Alpha  occ. eigenvalues --   -0.47611  -0.46731  -0.46648  -0.44783  -0.44713
 Alpha  occ. eigenvalues --   -0.37316  -0.36343
 Alpha virt. eigenvalues --    0.05078   0.11291   0.16543   0.18721   0.22705
 Alpha virt. eigenvalues --    0.22977   0.24655   0.25683   0.26983   0.28235
 Alpha virt. eigenvalues --    0.29566   0.30085   0.30887   0.31377   0.31903

 Mulliken charges:
               1
     1  C   -0.299289
     2  C   -0.300322
     3  C   -0.476394
     4  H    0.150940
     5  H    0.144934
     6  H    0.154111
     7  H    0.154117
     8  H    0.155298
     9  H    0.155549
    10  H    0.163239
    11  C   -0.298636
    12  C   -0.307577
    13  C   -0.477642
    14  H    0.154612
    15  H    0.150098
    16  H    0.157063
    17  H    0.142490
    18  H    0.153246
    19  H    0.161657
    20  H    0.163441
    21  C   -0.175803
    22  C   -0.223564
    23  C   -0.171347
    24  C    0.158541
    25  C   -0.171020
    26  C   -0.218345
    27  H    0.229482
    28  H    0.229361
    29  H    0.275602
    30  H    0.275503
    31  H    0.223522
    32  N    0.488026
    33  O   -0.460435
    34  O   -0.460460
 Sum of Mulliken charges =  -0.00000

 Dipole moment (field-independent basis, Debye):
    X=              4.8617    Y=              0.0357    Z=              2.3916  Tot=              5.4182
 Quadrupole moment (field-independent basis, Debye-Ang):
   XX=           -122.3327   YY=            -93.5739   ZZ=            -92.8714
   XY=              1.3153   XZ=             -8.8788   YZ=             -2.5618

 Normal termination of Gaussian 16 at Wed May  5 20:12:09 2021.
