 Gaussian 16, Revision A.03,
 Gaussian 16:  EM64L-G16RevA.03 25-Dec-2016

 -------------
 #p 6-31g* mp2
 -------------

 ------------------------------------------------------
 Input file generated by CHIRIPA (05-May-2021 14:55:20)
 ------------------------------------------------------
 Symbolic Z-matrix:
 Charge =  0 Multiplicity = 1

                         Standard orientation:
 ---------------------------------------------------------------------
 Center     Atomic      Atomic             Coordinates (Angstroms)
 Number     Number       Type             X           Y           Z
 ---------------------------------------------------------------------
      1          6           0        0.997699    2.117395    0.487272
      2          6           0        1.438113    1.283686    1.520464
      3          6           0        2.429276    0.325912    1.286340
      4          6           0        2.960565    0.228695    0.001206
      5          6           0        2.542698    1.044771   -1.048888
      6          6           0        1.550422    1.995491   -0.791852
      7          1           0        0.227308    2.858677    0.678045
      8          1           0        1.010655    1.376117    2.514839
      9          1           0        2.788697   -0.332372    2.067939
     10          1           0        2.987718    0.929010   -2.029691
     11          1           0        1.210326    2.641613   -1.596157
     12          7           0        4.010453   -0.781524   -0.258779
     13          8           0        4.462554   -0.847228   -1.399798
     14          8           0        4.361374   -1.488500    0.683387
     15          6           0       -4.117587   -0.015783   -0.259536
     16          6           0       -5.523588   -0.499563    0.096982
     17          6           0       -6.612173    0.491620   -0.315729
     18          1           0       -3.936168    0.953181    0.225377
     19          1           0       -4.061964    0.161398   -1.342544
     20          1           0       -5.576135   -0.677103    1.178802
     21          1           0       -5.701609   -1.467580   -0.388682
     22          1           0       -6.588590    0.661555   -1.397010
     23          1           0       -6.462402    1.456523    0.179379
     24          1           0       -7.609287    0.125855   -0.051457
     25          6           0       -3.018491   -0.995907    0.146756
     26          6           0       -1.612490   -0.512128   -0.209761
     27          6           0       -0.523905   -1.503311    0.202950
     28          1           0       -3.074113   -1.173089    1.229764
     29          1           0       -3.199909   -1.964871   -0.338157
     30          1           0       -1.434469    0.455889    0.275902
     31          1           0       -1.559944   -0.334588   -1.291581
     32          1           0       -0.673676   -2.468214   -0.292159
     33          1           0       -0.547488   -1.673245    1.284230
     34          1           0        0.473209   -1.137545   -0.061323
 ---------------------------------------------------------------------

 SCF Done:  E(RHF) =  -669.533119291     A.U. after   15 cycles
 E2 =    -0.2095360326D+01 EUMP2 =    -0.67162847961725D+03

 The electronic state is 1-A.
 Alpha  occ. eigenvalues --  -20.60806 -20.60801 -15.85863 -11.31228 -11.27869
 Alpha  occ. eigenvalues --  -11.27808 -11.27602 -11.26868 -11.26827 -11.21913
 Alpha  occ. eigenvalues --  -11.21805 -11.21748 -11.21622 -11.21385 -11.21023
 Alpha  occ. eigenvalues --   -1.59884  -1.39435  -1.19477  -1.08860  -1.08704
 Alpha  occ. eigenvalues --   -1.04865  -1.03763  -0.96210  -0.95674  -0.87228
 Alpha  occ. eigenvalues --   -0.86253  -0.82496  -0.79846  -0.78546  -0.77535
 Alpha  occ. eigenvalues --   -0.72081  -0.71222  -0.70566  -0.65366  -0.65101
 Alpha  occ. eigenvalues --   -0.64850  -0.62199  -0.61198  -0.59714  -0.57961
 Alpha  occ. eigenvalues --   -0.55546  -0.55363  -0.53747  -0.52941  -0.52708
 Alpha  occ. eigenvalues --   -0.51925  -0.50159  -0.48842  -0.48833  -0.48171
 Alpha  occ. eigenvalues --   -0.46904  -0.46095  -0.46025  -0.44835  -0.44046
 Alpha  occ. eigenvalues --   -0.37335  -0.36418
 Alpha virt. eigenvalues --    0.04979   0.11141   0.16372   0.21008   0.22693
 Alpha virt. eigenvalues --    0.24210   0.26195   0.26763   0.27266   0.27830
 Alpha virt. eigenvalues --    0.28535   0.30651   0.31235   0.31728   0.31964

 Mulliken charges:
               1
     1  C   -0.169914
     2  C   -0.212163
     3  C   -0.173614
     4  C    0.158102
     5  C   -0.173406
     6  C   -0.215672
     7  H    0.226287
     8  H    0.223738
     9  H    0.276031
    10  H    0.276293
    11  H    0.224326
    12  N    0.488211
    13  O   -0.460626
    14  O   -0.460009
    15  C   -0.297294
    16  C   -0.299628
    17  C   -0.475686
    18  H    0.144634
    19  H    0.149392
    20  H    0.151858
    21  H    0.153622
    22  H    0.155383
    23  H    0.153686
    24  H    0.161396
    25  C   -0.298412
    26  C   -0.297754
    27  C   -0.478418
    28  H    0.148029
    29  H    0.151702
    30  H    0.144779
    31  H    0.150099
    32  H    0.156310
    33  H    0.149220
    34  H    0.169496
 Sum of Mulliken charges =  -0.00000

 Dipole moment (field-independent basis, Debye):
    X=             -3.6000    Y=              3.5871    Z=              0.9070  Tot=              5.1624
 Quadrupole moment (field-independent basis, Debye-Ang):
   XX=           -118.3900   YY=            -93.4706   ZZ=            -89.4697
   XY=             10.5112   XZ=              2.4039   YZ=             -0.8096

 Normal termination of Gaussian 16 at Wed May  5 15:53:06 2021.
