 Gaussian 16, Revision A.03,
 Gaussian 16:  EM64L-G16RevA.03 25-Dec-2016

 -------------
 #p 6-31g* mp2
 -------------

 ------------------------------------------------------
 Input file generated by CHIRIPA (05-May-2021 14:57:26)
 ------------------------------------------------------
 Symbolic Z-matrix:
 Charge =  0 Multiplicity = 1

                         Standard orientation:
 ---------------------------------------------------------------------
 Center     Atomic      Atomic             Coordinates (Angstroms)
 Number     Number       Type             X           Y           Z
 ---------------------------------------------------------------------
      1          6           0       -6.394303    0.385305    0.432067
      2          6           0       -5.640764   -0.591634    1.091074
      3          6           0       -4.284414   -0.760313    0.797118
      4          6           0       -3.711205    0.069038   -0.165638
      5          6           0       -4.435425    1.051322   -0.839370
      6          6           0       -5.790294    1.202224   -0.529357
      7          1           0       -7.447373    0.509434    0.666656
      8          1           0       -6.107202   -1.227492    1.838179
      9          1           0       -3.677623   -1.508742    1.292169
     10          1           0       -3.942602    1.670135   -1.579379
     11          1           0       -6.373046    1.961754   -1.042736
     12          7           0       -2.276083   -0.100125   -0.485336
     13          8           0       -1.794601    0.643232   -1.337528
     14          8           0       -1.659889   -0.972870    0.122331
     15          6           0        6.072002    1.263393    0.167271
     16          6           0        4.970877    1.653854    0.936419
     17          6           0        3.788780    0.907735    0.914089
     18          6           0        3.742365   -0.228429    0.107696
     19          6           0        4.822459   -0.643211   -0.669890
     20          6           0        5.994415    0.118126   -0.632019
     21          1           0        6.986344    1.848908    0.190653
     22          1           0        5.028275    2.542830    1.558086
     23          1           0        2.921342    1.187289    1.499597
     24          1           0        4.735142   -1.534158   -1.279813
     25          1           0        6.847992   -0.187493   -1.230390
     26          7           0        2.496299   -1.026366    0.075831
     27          8           0        2.480819   -2.023300   -0.642864
     28          8           0        1.558707   -0.639749    0.770154
 ---------------------------------------------------------------------

 SCF Done:  E(RHF) =  -868.334508340     A.U. after   16 cycles
 E2 =    -0.2600535768D+01 EUMP2 =    -0.87093504410824D+03

 The electronic state is 1-A.
 Alpha  occ. eigenvalues --  -20.59625 -20.59507 -20.59400 -20.59317 -15.84635
 Alpha  occ. eigenvalues --  -15.84437 -11.30407 -11.30232 -11.27044 -11.27002
 Alpha  occ. eigenvalues --  -11.26861 -11.26852 -11.26850 -11.26694 -11.26146
 Alpha  occ. eigenvalues --  -11.26121 -11.25981 -11.25971  -1.58640  -1.58421
 Alpha  occ. eigenvalues --   -1.38186  -1.37971  -1.18621  -1.18448  -1.07942
 Alpha  occ. eigenvalues --   -1.07763  -1.04084  -1.03920  -0.94708  -0.94518
 Alpha  occ. eigenvalues --   -0.85463  -0.85299  -0.81540  -0.81357  -0.76516
 Alpha  occ. eigenvalues --   -0.76335  -0.70908  -0.70565  -0.69992  -0.69766
 Alpha  occ. eigenvalues --   -0.69728  -0.69564  -0.64263  -0.64105  -0.64081
 Alpha  occ. eigenvalues --   -0.63933  -0.61426  -0.61267  -0.54578  -0.54417
 Alpha  occ. eigenvalues --   -0.52394  -0.52222  -0.52182  -0.52024  -0.47837
 Alpha  occ. eigenvalues --   -0.47611  -0.47399  -0.47081  -0.43512  -0.43258
 Alpha  occ. eigenvalues --   -0.36629  -0.36455  -0.35707  -0.35542
 Alpha virt. eigenvalues --    0.06018   0.06231   0.11940   0.12106   0.17438
 Alpha virt. eigenvalues --    0.17639   0.22023   0.22160   0.27905   0.28036
 Alpha virt. eigenvalues --    0.28955   0.29093   0.31542   0.31671   0.33227

 Mulliken charges:
               1
     1  C   -0.172247
     2  C   -0.218663
     3  C   -0.171576
     4  C    0.159212
     5  C   -0.172035
     6  C   -0.218600
     7  H    0.222690
     8  H    0.221429
     9  H    0.277670
    10  H    0.273813
    11  H    0.220507
    12  N    0.486017
    13  O   -0.466659
    14  O   -0.441480
    15  C   -0.172318
    16  C   -0.218569
    17  C   -0.170679
    18  C    0.160518
    19  C   -0.171462
    20  C   -0.218538
    21  H    0.222062
    22  H    0.220216
    23  H    0.275416
    24  H    0.274594
    25  H    0.220388
    26  N    0.487860
    27  O   -0.462885
    28  O   -0.446680
 Sum of Mulliken charges =  -0.00000

 Dipole moment (field-independent basis, Debye):
    X=             -0.7081    Y=              3.2173    Z=              1.3266  Tot=              3.5514
 Quadrupole moment (field-independent basis, Debye-Ang):
   XX=            -38.1447   YY=           -102.3131   ZZ=           -102.0054
   XY=              5.3958   XZ=             -4.0352   YZ=             -0.2717

 Normal termination of Gaussian 16 at Fri May  7 12:41:36 2021.
