 Gaussian 16, Revision A.03,
 Gaussian 16:  EM64L-G16RevA.03 25-Dec-2016

 -------------
 #p 6-31g* mp2
 -------------

 ------------------------------------------------------
 Input file generated by CHIRIPA (05-May-2021 14:57:21)
 ------------------------------------------------------
 Symbolic Z-matrix:
 Charge =  0 Multiplicity = 1

                         Standard orientation:
 ---------------------------------------------------------------------
 Center     Atomic      Atomic             Coordinates (Angstroms)
 Number     Number       Type             X           Y           Z
 ---------------------------------------------------------------------
      1          6           0        4.299090    0.750112   -0.269069
      2          6           0        3.877854   -0.285287   -1.109919
      3          6           0        2.721876   -1.014013   -0.814586
      4          6           0        2.008008   -0.679007    0.334959
      5          6           0        2.402008    0.347058    1.192423
      6          6           0        3.561124    1.062430    0.877397
      7          1           0        5.198301    1.311017   -0.506140
      8          1           0        4.448990   -0.530042   -2.000954
      9          1           0        2.373102   -1.820463   -1.448158
     10          1           0        1.811828    0.567812    2.073543
     11          1           0        3.885886    1.866023    1.532235
     12          7           0        0.782565   -1.443408    0.658039
     13          8           0        0.171244   -1.128655    1.676790
     14          8           0        0.456588   -2.342825   -0.113600
     15          6           0       -1.090626    2.812331   -0.373966
     16          6           0       -2.033112    2.538245    0.622586
     17          6           0       -2.659589    1.289892    0.683325
     18          6           0       -2.318191    0.334603   -0.272793
     19          6           0       -1.383196    0.577436   -1.277834
     20          6           0       -0.769243    1.832779   -1.319329
     21          1           0       -0.608828    3.784797   -0.413675
     22          1           0       -2.284663    3.297067    1.358083
     23          1           0       -3.392783    1.051014    1.444102
     24          1           0       -1.153094   -0.199135   -1.997146
     25          1           0       -0.037668    2.042841   -2.094389
     26          7           0       -2.974786   -0.990673   -0.218678
     27          8           0       -2.656573   -1.815280   -1.072726
     28          8           0       -3.795203   -1.179721    0.676762
 ---------------------------------------------------------------------

 SCF Done:  E(RHF) =  -868.336170568     A.U. after   16 cycles
 E2 =    -0.2605144612D+01 EUMP2 =    -0.87094131517978D+03

 The electronic state is 1-A.
 Alpha  occ. eigenvalues --  -20.60870 -20.60799 -20.59552 -20.59463 -15.85842
 Alpha  occ. eigenvalues --  -15.84572 -11.31412 -11.30388 -11.28001 -11.27996
 Alpha  occ. eigenvalues --  -11.27787 -11.27069 -11.27058 -11.26998 -11.26981
 Alpha  occ. eigenvalues --  -11.26912 -11.26230 -11.26174  -1.59902  -1.58546
 Alpha  occ. eigenvalues --   -1.39446  -1.38098  -1.19608  -1.18621  -1.08969
 Alpha  occ. eigenvalues --   -1.07938  -1.05038  -1.04112  -0.95767  -0.94701
 Alpha  occ. eigenvalues --   -0.86423  -0.85483  -0.82596  -0.81547  -0.77620
 Alpha  occ. eigenvalues --   -0.76492  -0.72058  -0.71386  -0.70818  -0.70709
 Alpha  occ. eigenvalues --   -0.69760  -0.69704  -0.65253  -0.65037  -0.64279
 Alpha  occ. eigenvalues --   -0.64136  -0.62377  -0.61445  -0.55531  -0.54632
 Alpha  occ. eigenvalues --   -0.53385  -0.53126  -0.52382  -0.52215  -0.48852
 Alpha  occ. eigenvalues --   -0.48837  -0.47613  -0.47531  -0.44855  -0.43308
 Alpha  occ. eigenvalues --   -0.37680  -0.36763  -0.36470  -0.35679
 Alpha virt. eigenvalues --    0.04848   0.06128   0.10958   0.11914   0.16354
 Alpha virt. eigenvalues --    0.17478   0.21124   0.21924   0.27008   0.27725
 Alpha virt. eigenvalues --    0.28073   0.28858   0.30633   0.31410   0.32254

 Mulliken charges:
               1
     1  C   -0.172458
     2  C   -0.219834
     3  C   -0.175843
     4  C    0.160587
     5  C   -0.169333
     6  C   -0.220265
     7  H    0.225251
     8  H    0.223769
     9  H    0.277397
    10  H    0.275909
    11  H    0.222412
    12  N    0.484817
    13  O   -0.461166
    14  O   -0.449384
    15  C   -0.174635
    16  C   -0.219575
    17  C   -0.165360
    18  C    0.171484
    19  C   -0.184828
    20  C   -0.217638
    21  H    0.219588
    22  H    0.219833
    23  H    0.276146
    24  H    0.277906
    25  H    0.218384
    26  N    0.492207
    27  O   -0.452507
    28  O   -0.462865
 Sum of Mulliken charges =  -0.00000

 Dipole moment (field-independent basis, Debye):
    X=              6.5095    Y=              6.9405    Z=             -1.2289  Tot=              9.5945
 Quadrupole moment (field-independent basis, Debye-Ang):
   XX=            -98.0812   YY=           -104.7539   ZZ=            -99.5718
   XY=             -8.4928   XZ=             -4.2126   YZ=              4.6173

 Normal termination of Gaussian 16 at Thu May  6 17:49:55 2021.
