 Gaussian 16, Revision A.03,
 Gaussian 16:  EM64L-G16RevA.03 25-Dec-2016

 -------------
 #p 6-31g* mp2
 -------------

 ------------------------------------------------------
 Input file generated by CHIRIPA (05-May-2021 14:51:11)
 ------------------------------------------------------
 Symbolic Z-matrix:
 Charge =  0 Multiplicity = 1

                         Standard orientation:
 ---------------------------------------------------------------------
 Center     Atomic      Atomic             Coordinates (Angstroms)
 Number     Number       Type             X           Y           Z
 ---------------------------------------------------------------------
      1          6           0       -1.272872   -1.400245    0.160846
      2          6           0       -1.110023   -2.917465    0.258361
      3          6           0        0.332140   -3.340352    0.539656
      4          1           0       -0.615747   -1.017536   -0.632038
      5          1           0       -0.931361   -0.940781    1.098747
      6          1           0       -1.453032   -3.374034   -0.678924
      7          1           0       -1.767753   -3.296630    1.050977
      8          1           0        0.681890   -2.911965    1.484516
      9          1           0        0.998399   -2.989809   -0.255214
     10          1           0        0.425778   -4.428824    0.605395
     11          6           0       -2.709079   -0.961918   -0.120056
     12          6           0       -2.871928    0.555302   -0.217571
     13          6           0       -4.314091    0.978190   -0.498866
     14          1           0       -3.050590   -1.421382   -1.057957
     15          1           0       -3.366203   -1.344627    0.672829
     16          1           0       -2.214197    0.934467   -1.010187
     17          1           0       -2.528918    1.011872    0.719714
     18          1           0       -4.980350    0.627646    0.296004
     19          1           0       -4.663840    0.549802   -1.443726
     20          1           0       -4.407729    2.066661   -0.564605
     21          6           0        2.116587    0.440431   -0.158565
     22          6           0        3.600631    0.084118   -0.251502
     23          6           0        3.835781   -1.401110   -0.528263
     24          1           0        1.650835   -0.160078    0.634789
     25          1           0        1.619417    0.158155   -1.096934
     26          1           0        4.095125    0.368250    0.686240
     27          1           0        4.062946    0.685683   -1.044598
     28          1           0        3.368390   -1.695560   -1.473486
     29          1           0        3.400752   -2.014797    0.267187
     30          1           0        4.903416   -1.633721   -0.590773
     31          6           0        1.865363    1.921732    0.117774
     32          6           0        0.381319    2.278045    0.210712
     33          6           0        0.146171    3.763273    0.487473
     34          1           0        2.362534    2.204009    1.056144
     35          1           0        2.331115    2.522240   -0.675579
     36          1           0       -0.080996    1.676479    1.003808
     37          1           0       -0.113175    1.993913   -0.727030
     38          1           0        0.581199    4.376960   -0.307977
     39          1           0        0.613561    4.057724    1.432696
     40          1           0       -0.921464    3.995884    0.549983
 ---------------------------------------------------------------------

 SCF Done:  E(RHF) =  -470.730253141     A.U. after   11 cycles
 E2 =    -0.1587129035D+01 EUMP2 =    -0.47231738217643D+03

 The electronic state is 1-A.
 Alpha  occ. eigenvalues --  -11.21549 -11.21544 -11.21493 -11.21459 -11.21325
 Alpha  occ. eigenvalues --  -11.21315 -11.21254 -11.21250 -11.21022 -11.21020
 Alpha  occ. eigenvalues --  -11.21013 -11.21009  -1.08477  -1.08268  -1.03564
 Alpha  occ. eigenvalues --   -1.03390  -0.95992  -0.95868  -0.87030  -0.86865
 Alpha  occ. eigenvalues --   -0.79853  -0.79276  -0.78772  -0.77608  -0.65216
 Alpha  occ. eigenvalues --   -0.64819  -0.61017  -0.60759  -0.59545  -0.59090
 Alpha  occ. eigenvalues --   -0.57808  -0.57287  -0.55255  -0.55189  -0.52703
 Alpha  occ. eigenvalues --   -0.52592  -0.52563  -0.52100  -0.49928  -0.49819
 Alpha  occ. eigenvalues --   -0.48432  -0.47365  -0.46867  -0.46771  -0.46278
 Alpha  occ. eigenvalues --   -0.46090  -0.45073  -0.44600  -0.43738  -0.43661
 Alpha virt. eigenvalues --    0.21271   0.22150   0.23237   0.23819   0.24854
 Alpha virt. eigenvalues --    0.25568   0.26516   0.27609   0.29032   0.29675
 Alpha virt. eigenvalues --    0.30440   0.31428   0.31619   0.32011   0.32700

 Mulliken charges:
               1
     1  C   -0.302547
     2  C   -0.299533
     3  C   -0.480199
     4  H    0.156325
     5  H    0.148764
     6  H    0.151409
     7  H    0.151200
     8  H    0.153202
     9  H    0.161980
    10  H    0.159843
    11  C   -0.297967
    12  C   -0.302120
    13  C   -0.475286
    14  H    0.148666
    15  H    0.148754
    16  H    0.154638
    17  H    0.153979
    18  H    0.154741
    19  H    0.154654
    20  H    0.159561
    21  C   -0.302440
    22  C   -0.298982
    23  C   -0.479055
    24  H    0.156393
    25  H    0.147987
    26  H    0.151506
    27  H    0.151258
    28  H    0.153641
    29  H    0.160372
    30  H    0.159939
    31  C   -0.297925
    32  C   -0.302132
    33  C   -0.476682
    34  H    0.148556
    35  H    0.148622
    36  H    0.154772
    37  H    0.154476
    38  H    0.154757
    39  H    0.154670
    40  H    0.160204
 Sum of Mulliken charges =  -0.00000

 Dipole moment (field-independent basis, Debye):
    X=              0.0092    Y=             -0.0117    Z=             -0.0005  Tot=              0.0148
 Quadrupole moment (field-independent basis, Debye-Ang):
   XX=            -86.2141   YY=            -86.2760   ZZ=            -82.8335
   XY=              0.6635   XZ=             -0.2526   YZ=             -0.2244

 Normal termination of Gaussian 16 at Thu May  6 02:16:49 2021.
