 Gaussian 16, Revision A.03,
 Gaussian 16:  EM64L-G16RevA.03 25-Dec-2016

 -------------
 #p 6-31g* mp2
 -------------

 ------------------------------------------------------
 Input file generated by CHIRIPA (05-May-2021 14:53:13)
 ------------------------------------------------------
 Symbolic Z-matrix:
 Charge =  0 Multiplicity = 1

                         Standard orientation:
 ---------------------------------------------------------------------
 Center     Atomic      Atomic             Coordinates (Angstroms)
 Number     Number       Type             X           Y           Z
 ---------------------------------------------------------------------
      1          6           0        3.281120   -0.100666    0.714454
      2          6           0        2.092576   -1.050816    0.564243
      3          6           0        0.891755   -0.634400    1.414196
      4          1           0        3.576044   -0.056883    1.771832
      5          1           0        2.967479    0.914718    0.435133
      6          1           0        2.408736   -2.064357    0.842440
      7          1           0        1.800570   -1.092490   -0.492928
      8          1           0        0.548764    0.366352    1.132322
      9          1           0        1.160386   -0.611037    2.475277
     10          1           0        0.053518   -1.327360    1.291625
     11          6           0        4.489297   -0.503700   -0.129110
     12          6           0        5.677841    0.446450    0.021101
     13          6           0        6.878662    0.030034   -0.828852
     14          1           0        4.802939   -1.519083    0.150211
     15          1           0        4.194374   -0.547483   -1.186488
     16          1           0        5.969848    0.488124    1.078272
     17          1           0        5.361681    1.459991   -0.257096
     18          1           0        6.610032    0.006671   -1.889933
     19          1           0        7.221654   -0.970718   -0.546978
     20          1           0        7.716900    0.722995   -0.706281
     21          6           0       -4.292552   -1.951450   -0.227643
     22          6           0       -3.033559   -1.867932   -0.831365
     23          6           0       -2.327925   -0.661040   -0.837902
     24          6           0       -2.913775    0.447563   -0.228747
     25          6           0       -4.166341    0.396108    0.380942
     26          6           0       -4.853936   -0.821157    0.375520
     27          1           0       -4.833699   -2.893021   -0.227210
     28          1           0       -2.595127   -2.744110   -1.300550
     29          1           0       -1.351666   -0.568362   -1.298061
     30          1           0       -4.577536    1.286618    0.840648
     31          1           0       -5.831520   -0.883080    0.845135
     32          7           0       -2.176301    1.730736   -0.229338
     33          8           0       -2.714263    2.692987    0.314083
     34          8           0       -1.074271    1.749937   -0.773211
 ---------------------------------------------------------------------

 SCF Done:  E(RHF) =  -669.536246078     A.U. after   15 cycles
 E2 =    -0.2092038335D+01 EUMP2 =    -0.67162828441364D+03

 The electronic state is 1-A.
 Alpha  occ. eigenvalues --  -20.60924 -20.60918 -15.85941 -11.31233 -11.27809
 Alpha  occ. eigenvalues --  -11.27801 -11.27547 -11.26810 -11.26800 -11.21315
 Alpha  occ. eigenvalues --  -11.21259 -11.21042 -11.20923 -11.20796 -11.20581
 Alpha  occ. eigenvalues --   -1.59977  -1.39536  -1.19411  -1.08818  -1.08061
 Alpha  occ. eigenvalues --   -1.04807  -1.03183  -0.95690  -0.95598  -0.86647
 Alpha  occ. eigenvalues --   -0.86201  -0.82504  -0.79260  -0.77877  -0.77556
 Alpha  occ. eigenvalues --   -0.72174  -0.71288  -0.70525  -0.65072  -0.64823
 Alpha  occ. eigenvalues --   -0.64667  -0.62164  -0.60559  -0.59015  -0.57253
 Alpha  occ. eigenvalues --   -0.55318  -0.54882  -0.53176  -0.52897  -0.52303
 Alpha  occ. eigenvalues --   -0.52037  -0.49566  -0.48924  -0.48919  -0.47578
 Alpha  occ. eigenvalues --   -0.46315  -0.45439  -0.45357  -0.44802  -0.43445
 Alpha  occ. eigenvalues --   -0.37382  -0.36385
 Alpha virt. eigenvalues --    0.04941   0.11223   0.16408   0.20947   0.23147
 Alpha virt. eigenvalues --    0.24272   0.26570   0.27387   0.27845   0.28135
 Alpha virt. eigenvalues --    0.28892   0.30510   0.31624   0.31899   0.32184

 Mulliken charges:
               1
     1  C   -0.299868
     2  C   -0.297435
     3  C   -0.487621
     4  H    0.148578
     5  H    0.158953
     6  H    0.147771
     7  H    0.147275
     8  H    0.173775
     9  H    0.153414
    10  H    0.151765
    11  C   -0.298105
    12  C   -0.299874
    13  C   -0.475541
    14  H    0.146877
    15  H    0.149245
    16  H    0.151363
    17  H    0.154600
    18  H    0.154919
    19  H    0.153730
    20  H    0.159925
    21  C   -0.170221
    22  C   -0.220410
    23  C   -0.168655
    24  C    0.158406
    25  C   -0.170477
    26  C   -0.218721
    27  H    0.225868
    28  H    0.223963
    29  H    0.277671
    30  H    0.275669
    31  H    0.223621
    32  N    0.488083
    33  O   -0.458571
    34  O   -0.459971
 Sum of Mulliken charges =  -0.00000

 Dipole moment (field-independent basis, Debye):
    X=             -2.7228    Y=             -4.3504    Z=             -0.0275  Tot=              5.1323
 Quadrupole moment (field-independent basis, Debye-Ang):
   XX=            -77.9302   YY=            -98.2226   ZZ=            -94.0066
   XY=             10.6354   XZ=             -0.8160   YZ=              1.9268

 Normal termination of Gaussian 16 at Thu May  6 15:23:18 2021.
