 Gaussian 16, Revision A.03,
 Gaussian 16:  EM64L-G16RevA.03 25-Dec-2016

 -------------
 #p 6-31g* mp2
 -------------

 ------------------------------------------------------
 Input file generated by CHIRIPA (05-May-2021 14:53:15)
 ------------------------------------------------------
 Symbolic Z-matrix:
 Charge =  0 Multiplicity = 1

                         Standard orientation:
 ---------------------------------------------------------------------
 Center     Atomic      Atomic             Coordinates (Angstroms)
 Number     Number       Type             X           Y           Z
 ---------------------------------------------------------------------
      1          6           0       -3.515997   -0.207649    0.253452
      2          6           0       -4.831760    0.214917   -0.400911
      3          6           0       -5.658745    1.148551    0.483520
      4          1           0       -3.732011   -0.702517    1.210211
      5          1           0       -2.928118    0.689667    0.491393
      6          1           0       -5.416377   -0.682995   -0.638805
      7          1           0       -4.612598    0.708667   -1.356315
      8          1           0       -5.097986    2.061005    0.710629
      9          1           0       -5.906331    0.661436    1.432215
     10          1           0       -6.595047    1.438158   -0.003641
     11          6           0       -2.678131   -1.141136   -0.618506
     12          6           0       -1.362369   -1.563703    0.035856
     13          6           0       -0.535384   -2.497336   -0.848575
     14          1           0       -3.266010   -2.038453   -0.856448
     15          1           0       -2.462118   -0.646268   -1.575266
     16          1           0       -1.581530   -2.057452    0.991260
     17          1           0       -0.777752   -0.665791    0.273750
     18          1           0       -0.287797   -2.010222   -1.797270
     19          1           0       -1.096142   -3.409790   -1.075683
     20          1           0        0.400918   -2.786944   -0.361414
     21          6           0        1.357833    2.791232   -0.190972
     22          6           0        0.937820    1.969113    0.859850
     23          6           0        1.519038    0.712541    1.054173
     24          6           0        2.522227    0.307959    0.174848
     25          6           0        2.962367    1.104179   -0.881372
     26          6           0        2.366987    2.356908   -1.056703
     27          1           0        0.900828    3.765875   -0.334550
     28          1           0        0.154305    2.303813    1.533740
     29          1           0        1.212997    0.055896    1.859515
     30          1           0        3.745610    0.743104   -1.536789
     31          1           0        2.695178    2.993261   -1.873642
     32          7           0        3.145033   -1.020283    0.370516
     33          8           0        4.026989   -1.353562   -0.417974
     34          8           0        2.739440   -1.702930    1.308665
 ---------------------------------------------------------------------

 SCF Done:  E(RHF) =  -669.535421937     A.U. after   15 cycles
 E2 =    -0.2093542785D+01 EUMP2 =    -0.67162896472242D+03

 The electronic state is 1-A.
 Alpha  occ. eigenvalues --  -20.60899 -20.60893 -15.85931 -11.31270 -11.27855
 Alpha  occ. eigenvalues --  -11.27840 -11.27599 -11.26858 -11.26847 -11.21832
 Alpha  occ. eigenvalues --  -11.21611 -11.21434 -11.21371 -11.21359 -11.20654
 Alpha  occ. eigenvalues --   -1.59959  -1.39514  -1.19464  -1.08853  -1.08517
 Alpha  occ. eigenvalues --   -1.04871  -1.03546  -0.95994  -0.95691  -0.87004
 Alpha  occ. eigenvalues --   -0.86257  -0.82527  -0.79642  -0.78351  -0.77564
 Alpha  occ. eigenvalues --   -0.72152  -0.71280  -0.70569  -0.65173  -0.65106
 Alpha  occ. eigenvalues --   -0.64856  -0.62216  -0.60964  -0.59367  -0.57593
 Alpha  occ. eigenvalues --   -0.55367  -0.55303  -0.53204  -0.52946  -0.52637
 Alpha  occ. eigenvalues --   -0.52409  -0.49948  -0.48914  -0.48910  -0.47937
 Alpha  occ. eigenvalues --   -0.46695  -0.45875  -0.45806  -0.44909  -0.43780
 Alpha  occ. eigenvalues --   -0.37433  -0.36374
 Alpha virt. eigenvalues --    0.04924   0.11136   0.16343   0.21040   0.22800
 Alpha virt. eigenvalues --    0.24250   0.25935   0.26830   0.27520   0.28228
 Alpha virt. eigenvalues --    0.28652   0.30762   0.31407   0.31648   0.32044

 Mulliken charges:
               1
     1  C   -0.296974
     2  C   -0.299515
     3  C   -0.475282
     4  H    0.150175
     5  H    0.141876
     6  H    0.153886
     7  H    0.151270
     8  H    0.151629
     9  H    0.155952
    10  H    0.161035
    11  C   -0.296803
    12  C   -0.305501
    13  C   -0.484239
    14  H    0.150774
    15  H    0.148543
    16  H    0.152213
    17  H    0.150781
    18  H    0.151936
    19  H    0.155354
    20  H    0.175357
    21  C   -0.170426
    22  C   -0.219064
    23  C   -0.172196
    24  C    0.160447
    25  C   -0.170802
    26  C   -0.218767
    27  H    0.226074
    28  H    0.224795
    29  H    0.278291
    30  H    0.276019
    31  H    0.223815
    32  N    0.488423
    33  O   -0.458834
    34  O   -0.460242
 Sum of Mulliken charges =  -0.00000

 Dipole moment (field-independent basis, Debye):
    X=             -2.0486    Y=              4.6288    Z=             -0.6872  Tot=              5.1083
 Quadrupole moment (field-independent basis, Debye-Ang):
   XX=           -104.8778   YY=            -91.9468   ZZ=            -92.3125
   XY=             12.6861   XZ=             -4.6658   YZ=             -0.9016

 Normal termination of Gaussian 16 at Thu May  6 01:06:27 2021.
