 Gaussian 16, Revision A.03,
 Gaussian 16:  EM64L-G16RevA.03 25-Dec-2016

 -------------
 #p 6-31g* mp2
 -------------

 ------------------------------------------------------
 Input file generated by CHIRIPA (05-May-2021 14:51:11)
 ------------------------------------------------------
 Symbolic Z-matrix:
 Charge =  0 Multiplicity = 1

                         Standard orientation:
 ---------------------------------------------------------------------
 Center     Atomic      Atomic             Coordinates (Angstroms)
 Number     Number       Type             X           Y           Z
 ---------------------------------------------------------------------
      1          6           0        2.575775    0.724304   -0.903979
      2          6           0        1.634395    1.857661   -0.494968
      3          6           0        1.802501    3.107062   -1.360145
      4          1           0        3.613998    1.078106   -0.841832
      5          1           0        2.395069    0.469038   -1.957345
      6          1           0        1.815866    2.109775    0.557706
      7          1           0        0.598301    1.501061   -0.557912
      8          1           0        1.601362    2.877500   -2.411546
      9          1           0        2.825845    3.489672   -1.289589
     10          1           0        1.119995    3.904646   -1.050457
     11          6           0        2.419595   -0.531543   -0.048301
     12          6           0        3.360976   -1.664900   -0.457313
     13          6           0        3.192870   -2.914301    0.407864
     14          1           0        2.600302   -0.276276    1.005064
     15          1           0        1.381372   -0.885344   -0.110449
     16          1           0        4.397069   -1.308300   -0.394369
     17          1           0        3.179505   -1.917013   -1.509987
     18          1           0        2.169526   -3.296911    0.337309
     19          1           0        3.394008   -2.684738    1.459266
     20          1           0        3.875375   -3.711885    0.098176
     21          6           0       -2.286996    0.442675    0.974599
     22          6           0       -1.235113   -0.035339    1.976112
     23          6           0       -0.823795    1.054301    2.966717
     24          1           0       -1.894393    1.309745    0.425968
     25          1           0       -3.172052    0.794230    1.522760
     26          1           0       -0.352845   -0.387176    1.426178
     27          1           0       -1.630193   -0.901491    2.522290
     28          1           0       -1.689613    1.399744    3.540850
     29          1           0       -0.405008    1.916981    2.438509
     30          1           0       -0.071123    0.691064    3.673402
     31          6           0       -2.708375   -0.635436   -0.022319
     32          6           0       -3.760257   -0.157422   -1.023833
     33          6           0       -4.171576   -1.247062   -2.014436
     34          1           0       -1.823319   -0.986992   -0.570479
     35          1           0       -3.100978   -1.502506    0.526313
     36          1           0       -3.365178    0.708729   -1.570009
     37          1           0       -4.642526    0.194415   -0.473897
     38          1           0       -4.590362   -2.109742   -1.486228
     39          1           0       -3.305758   -1.592505   -2.588569
     40          1           0       -4.924248   -0.883825   -2.721121
 ---------------------------------------------------------------------

 SCF Done:  E(RHF) =  -470.732856686     A.U. after   11 cycles
 E2 =    -0.1584661856D+01 EUMP2 =    -0.47231751854219D+03

 The electronic state is 1-A.
 Alpha  occ. eigenvalues --  -11.21684 -11.21655 -11.21618 -11.21483 -11.21461
 Alpha  occ. eigenvalues --  -11.21424 -11.21408 -11.21321 -11.21144 -11.21103
 Alpha  occ. eigenvalues --  -11.21090 -11.20981  -1.08532  -1.08391  -1.03601
 Alpha  occ. eigenvalues --   -1.03488  -0.96047  -0.95951  -0.87062  -0.86967
 Alpha  occ. eigenvalues --   -0.79694  -0.79544  -0.78397  -0.78171  -0.65294
 Alpha  occ. eigenvalues --   -0.64908  -0.60998  -0.60902  -0.59420  -0.59309
 Alpha  occ. eigenvalues --   -0.57685  -0.57538  -0.55347  -0.55234  -0.52735
 Alpha  occ. eigenvalues --   -0.52643  -0.52478  -0.52375  -0.50005  -0.49897
 Alpha  occ. eigenvalues --   -0.48019  -0.47921  -0.46730  -0.46653  -0.46168
 Alpha  occ. eigenvalues --   -0.45795  -0.45672  -0.45195  -0.43853  -0.43752
 Alpha virt. eigenvalues --    0.19801   0.23152   0.23517   0.24157   0.25044
 Alpha virt. eigenvalues --    0.26343   0.26573   0.28174   0.28597   0.30042
 Alpha virt. eigenvalues --    0.30641   0.31323   0.31657   0.31747   0.32076

 Mulliken charges:
               1
     1  C   -0.297812
     2  C   -0.306729
     3  C   -0.475677
     4  H    0.150150
     5  H    0.149368
     6  H    0.154232
     7  H    0.156443
     8  H    0.155255
     9  H    0.155670
    10  H    0.160312
    11  C   -0.304294
    12  C   -0.298910
    13  C   -0.475976
    14  H    0.150579
    15  H    0.154076
    16  H    0.152198
    17  H    0.151875
    18  H    0.155475
    19  H    0.155375
    20  H    0.160501
    21  C   -0.300784
    22  C   -0.308055
    23  C   -0.477170
    24  H    0.151436
    25  H    0.149647
    26  H    0.162251
    27  H    0.151114
    28  H    0.154427
    29  H    0.157447
    30  H    0.159302
    31  C   -0.299397
    32  C   -0.299542
    33  C   -0.475662
    34  H    0.148332
    35  H    0.150067
    36  H    0.151707
    37  H    0.152295
    38  H    0.155292
    39  H    0.154823
    40  H    0.160357
 Sum of Mulliken charges =  -0.00000

 Dipole moment (field-independent basis, Debye):
    X=              0.0525    Y=              0.0001    Z=             -0.0150  Tot=              0.0546
 Quadrupole moment (field-independent basis, Debye-Ang):
   XX=            -83.8171   YY=            -85.9604   ZZ=            -84.9628
   XY=              0.2128   XZ=             -0.2811   YZ=              0.0046

 Normal termination of Gaussian 16 at Thu May  6 02:16:00 2021.
