 Gaussian 16, Revision A.03,
 Gaussian 16:  EM64L-G16RevA.03 25-Dec-2016

 -------------
 #p 6-31g* mp2
 -------------

 ------------------------------------------------------
 Input file generated by CHIRIPA (05-May-2021 14:55:23)
 ------------------------------------------------------
 Symbolic Z-matrix:
 Charge =  0 Multiplicity = 1

                         Standard orientation:
 ---------------------------------------------------------------------
 Center     Atomic      Atomic             Coordinates (Angstroms)
 Number     Number       Type             X           Y           Z
 ---------------------------------------------------------------------
      1          6           0       -0.492194   -1.231765    0.260455
      2          6           0       -0.695118    0.047304    0.788965
      3          6           0       -1.942887    0.669104    0.684151
      4          6           0       -2.970164   -0.020139    0.041550
      5          6           0       -2.799203   -1.295272   -0.495199
      6          6           0       -1.543032   -1.897797   -0.378814
      7          1           0        0.480366   -1.707308    0.346372
      8          1           0        0.119154    0.566926    1.285955
      9          1           0       -2.127529    1.658643    1.084323
     10          1           0       -3.630107   -1.788250   -0.985085
     11          1           0       -1.388326   -2.891210   -0.790203
     12          7           0       -4.295568    0.627930   -0.075538
     13          8           0       -5.184392   -0.000407   -0.646346
     14          8           0       -4.420500    1.751952    0.405715
     15          6           0        3.918340    0.803698   -0.201839
     16          6           0        3.064003    2.069284   -0.121932
     17          6           0        3.870666    3.343836   -0.372141
     18          1           0        4.734106    0.872788    0.530758
     19          1           0        4.391306    0.750900   -1.192250
     20          1           0        2.591690    2.118965    0.867547
     21          1           0        2.250064    1.997090   -0.854672
     22          1           0        4.329446    3.320525   -1.365910
     23          1           0        4.673013    3.443094    0.366093
     24          1           0        3.240406    4.236477   -0.310290
     25          6           0        3.126065   -0.478709    0.046072
     26          6           0        3.980403   -1.744295   -0.033836
     27          6           0        3.173740   -3.018847    0.216373
     28          1           0        2.653100   -0.425911    1.036481
     29          1           0        2.310300   -0.547798   -0.686526
     30          1           0        4.794341   -1.672101    0.698903
     31          1           0        4.452715   -1.793976   -1.023315
     32          1           0        2.371393   -3.118105   -0.521861
     33          1           0        2.714960   -2.995537    1.210143
     34          1           0        3.803999   -3.911488    0.154521
 ---------------------------------------------------------------------

 SCF Done:  E(RHF) =  -669.534392617     A.U. after   15 cycles
 E2 =    -0.2093767391D+01 EUMP2 =    -0.67162816000827D+03

 The electronic state is 1-A.
 Alpha  occ. eigenvalues --  -20.60658 -20.60653 -15.85711 -11.31036 -11.27612
 Alpha  occ. eigenvalues --  -11.27600 -11.27189 -11.26591 -11.26553 -11.22812
 Alpha  occ. eigenvalues --  -11.22703 -11.22544 -11.22483 -11.22386 -11.21767
 Alpha  occ. eigenvalues --   -1.59735  -1.39290  -1.19201  -1.09598  -1.08584
 Alpha  occ. eigenvalues --   -1.04626  -1.04600  -0.97087  -0.95440  -0.88101
 Alpha  occ. eigenvalues --   -0.85996  -0.82300  -0.80710  -0.79460  -0.77329
 Alpha  occ. eigenvalues --   -0.71928  -0.71059  -0.70287  -0.66202  -0.64843
 Alpha  occ. eigenvalues --   -0.64603  -0.62000  -0.61958  -0.60494  -0.58708
 Alpha  occ. eigenvalues --   -0.56381  -0.55091  -0.53728  -0.53546  -0.52928
 Alpha  occ. eigenvalues --   -0.52686  -0.51020  -0.48973  -0.48687  -0.48671
 Alpha  occ. eigenvalues --   -0.47733  -0.46879  -0.46812  -0.44874  -0.44705
 Alpha  occ. eigenvalues --   -0.37133  -0.36213
 Alpha virt. eigenvalues --    0.05171   0.11382   0.16583   0.19792   0.22010
 Alpha virt. eigenvalues --    0.22729   0.24461   0.26215   0.26297   0.28552
 Alpha virt. eigenvalues --    0.29470   0.30042   0.30743   0.31421   0.31846

 Mulliken charges:
               1
     1  C   -0.178873
     2  C   -0.225202
     3  C   -0.171439
     4  C    0.157888
     5  C   -0.170774
     6  C   -0.223361
     7  H    0.243561
     8  H    0.227325
     9  H    0.274957
    10  H    0.274857
    11  H    0.222604
    12  N    0.488022
    13  O   -0.460974
    14  O   -0.460949
    15  C   -0.297474
    16  C   -0.303013
    17  C   -0.476371
    18  H    0.152720
    19  H    0.153927
    20  H    0.146540
    21  H    0.155975
    22  H    0.157918
    23  H    0.156754
    24  H    0.163521
    25  C   -0.310551
    26  C   -0.297413
    27  C   -0.485124
    28  H    0.142982
    29  H    0.153247
    30  H    0.156839
    31  H    0.157206
    32  H    0.150407
    33  H    0.154609
    34  H    0.169658
 Sum of Mulliken charges =  -0.00000

 Dipole moment (field-independent basis, Debye):
    X=              5.0476    Y=             -2.2498    Z=              0.3314  Tot=              5.5362
 Quadrupole moment (field-independent basis, Debye-Ang):
   XX=           -121.5419   YY=            -92.2049   ZZ=            -93.2653
   XY=              7.8355   XZ=             -0.0487   YZ=              2.2849

 Normal termination of Gaussian 16 at Thu May  6 06:18:00 2021.
