 Gaussian 16, Revision A.03,
 Gaussian 16:  EM64L-G16RevA.03 25-Dec-2016

 -------------
 #p 6-31g* mp2
 -------------

 ------------------------------------------------------
 Input file generated by CHIRIPA (05-May-2021 14:53:14)
 ------------------------------------------------------
 Symbolic Z-matrix:
 Charge =  0 Multiplicity = 1

                         Standard orientation:
 ---------------------------------------------------------------------
 Center     Atomic      Atomic             Coordinates (Angstroms)
 Number     Number       Type             X           Y           Z
 ---------------------------------------------------------------------
      1          6           0       -3.750329    0.840600   -0.610312
      2          6           0       -2.986768    1.934440    0.136998
      3          6           0       -2.594311    3.103975   -0.766307
      4          1           0       -3.132319    0.472940   -1.440875
      5          1           0       -4.652939    1.275840   -1.061153
      6          1           0       -2.086587    1.496973    0.587457
      7          1           0       -3.606591    2.299405    0.965995
      8          1           0       -3.483927    3.567035   -1.205350
      9          1           0       -1.955286    2.760045   -1.586039
     10          1           0       -2.049505    3.874352   -0.211720
     11          6           0       -4.149577   -0.335353    0.279330
     12          6           0       -4.913139   -1.429193   -0.467981
     13          6           0       -5.305596   -2.598728    0.435324
     14          1           0       -3.246968   -0.770593    0.730171
     15          1           0       -4.767588    0.032307    1.109892
     16          1           0       -4.293315   -1.794158   -1.296978
     17          1           0       -5.813320   -0.991727   -0.918440
     18          1           0       -5.944620   -2.254798    1.255057
     19          1           0       -4.415980   -3.061788    0.874368
     20          1           0       -5.850401   -3.369105   -0.119262
     21          6           0        0.746335    0.069319    1.035509
     22          6           0        0.945696   -0.466730   -0.240981
     23          6           0        2.237559   -0.619073   -0.753261
     24          6           0        3.312081   -0.223144    0.041680
     25          6           0        3.145921    0.314207    1.317194
     26          6           0        1.845146    0.457393    1.809158
     27          1           0       -0.260677    0.184106    1.425570
     28          1           0        0.094218   -0.768972   -0.844039
     29          1           0        2.420548   -1.031177   -1.738200
     30          1           0        4.014453    0.606451    1.894830
     31          1           0        1.693322    0.873998    2.800841
     32          7           0        4.684436   -0.379575   -0.489894
     33          8           0        5.614430   -0.023124    0.230308
     34          8           0        4.804109   -0.855674   -1.616680
 ---------------------------------------------------------------------

 SCF Done:  E(RHF) =  -669.535411902     A.U. after   15 cycles
 E2 =    -0.2091602781D+01 EUMP2 =    -0.67162701468359D+03

 The electronic state is 1-A.
 Alpha  occ. eigenvalues --  -20.60769 -20.60764 -15.85823 -11.31198 -11.27768
 Alpha  occ. eigenvalues --  -11.27762 -11.27492 -11.26791 -11.26774 -11.22657
 Alpha  occ. eigenvalues --  -11.22430 -11.22384 -11.22336 -11.21862 -11.21755
 Alpha  occ. eigenvalues --   -1.59845  -1.39398  -1.19370  -1.09386  -1.08763
 Alpha  occ. eigenvalues --   -1.04775  -1.04396  -0.96820  -0.95599  -0.87832
 Alpha  occ. eigenvalues --   -0.86171  -0.82434  -0.80474  -0.79209  -0.77475
 Alpha  occ. eigenvalues --   -0.72041  -0.71168  -0.70505  -0.66040  -0.65021
 Alpha  occ. eigenvalues --   -0.64768  -0.62124  -0.61795  -0.60193  -0.58437
 Alpha  occ. eigenvalues --   -0.56110  -0.55300  -0.53484  -0.53235  -0.53098
 Alpha  occ. eigenvalues --   -0.52866  -0.50761  -0.48814  -0.48796  -0.48759
 Alpha  occ. eigenvalues --   -0.47516  -0.46724  -0.46674  -0.44801  -0.44669
 Alpha  occ. eigenvalues --   -0.37340  -0.36379
 Alpha virt. eigenvalues --    0.05035   0.11253   0.16441   0.18390   0.22799
 Alpha virt. eigenvalues --    0.23662   0.24667   0.25501   0.26982   0.27950
 Alpha virt. eigenvalues --    0.29870   0.30336   0.31006   0.31260   0.31923

 Mulliken charges:
               1
     1  C   -0.299047
     2  C   -0.303455
     3  C   -0.475300
     4  H    0.147039
     5  H    0.154719
     6  H    0.143003
     7  H    0.155115
     8  H    0.158501
     9  H    0.156539
    10  H    0.162631
    11  C   -0.298345
    12  C   -0.299941
    13  C   -0.476198
    14  H    0.140773
    15  H    0.152829
    16  H    0.151263
    17  H    0.155131
    18  H    0.156625
    19  H    0.154552
    20  H    0.163235
    21  C   -0.174101
    22  C   -0.220400
    23  C   -0.170892
    24  C    0.158646
    25  C   -0.170776
    26  C   -0.219299
    27  H    0.231350
    28  H    0.223357
    29  H    0.275614
    30  H    0.275655
    31  H    0.223886
    32  N    0.488043
    33  O   -0.460329
    34  O   -0.460420
 Sum of Mulliken charges =  -0.00000

 Dipole moment (field-independent basis, Debye):
    X=             -5.0274    Y=              0.6095    Z=              1.8333  Tot=              5.3858
 Quadrupole moment (field-independent basis, Debye-Ang):
   XX=           -124.9752   YY=            -95.2628   ZZ=            -91.4114
   XY=              2.9061   XZ=              8.0045   YZ=              2.0267

 Normal termination of Gaussian 16 at Wed May  5 17:06:29 2021.
