 Gaussian 16, Revision A.03,
 Gaussian 16:  EM64L-G16RevA.03 25-Dec-2016

 -------------
 #p 6-31g* mp2
 -------------

 ------------------------------------------------------
 Input file generated by CHIRIPA (05-May-2021 14:53:12)
 ------------------------------------------------------
 Symbolic Z-matrix:
 Charge =  0 Multiplicity = 1

                         Standard orientation:
 ---------------------------------------------------------------------
 Center     Atomic      Atomic             Coordinates (Angstroms)
 Number     Number       Type             X           Y           Z
 ---------------------------------------------------------------------
      1          6           0       -3.948805   -0.552098    0.472093
      2          6           0       -2.656779    0.261050    0.558376
      3          6           0       -1.545999   -0.472142    1.310965
      4          1           0       -4.290367   -0.794712    1.487681
      5          1           0       -3.738701   -1.509707   -0.024129
      6          1           0       -2.869542    1.217421    1.053049
      7          1           0       -2.318357    0.501920   -0.457531
      8          1           0       -1.305020   -1.418476    0.816008
      9          1           0       -1.859337   -0.698909    2.335171
     10          1           0       -0.631548    0.127157    1.360769
     11          6           0       -5.068642    0.167588   -0.277403
     12          6           0       -6.360668   -0.645560   -0.363686
     13          6           0       -7.471449    0.087632   -1.116275
     14          1           0       -5.278747    1.125197    0.218819
     15          1           0       -4.727080    0.410202   -1.292991
     16          1           0       -6.699090   -0.886430    0.652221
     17          1           0       -6.147905   -1.601931   -0.858359
     18          1           0       -7.158111    0.314399   -2.140481
     19          1           0       -7.712428    1.033966   -0.621318
     20          1           0       -8.385899   -0.511667   -1.166078
     21          6           0        2.308233    2.317791    0.363462
     22          6           0        3.213653    2.225547   -0.698719
     23          6           0        3.892061    1.029562   -0.951563
     24          6           0        3.639825   -0.059355   -0.118541
     25          6           0        2.743690    0.001210    0.947556
     26          6           0        2.076549    1.207286    1.181766
     27          1           0        1.785605    3.250779    0.552639
     28          1           0        3.395560    3.086361   -1.335864
     29          1           0        4.598263    0.930499   -1.766967
     30          1           0        2.583215   -0.873952    1.565420
     31          1           0        1.373940    1.276025    2.007392
     32          7           0        4.352062   -1.330833   -0.376353
     33          8           0        4.112231   -2.275766    0.372124
     34          8           0        5.136657   -1.358406   -1.322020
 ---------------------------------------------------------------------

 SCF Done:  E(RHF) =  -669.535162139     A.U. after   15 cycles
 E2 =    -0.2091471719D+01 EUMP2 =    -0.67162663385743D+03

 The electronic state is 1-A.
 Alpha  occ. eigenvalues --  -20.60770 -20.60765 -15.85825 -11.31201 -11.27783
 Alpha  occ. eigenvalues --  -11.27774 -11.27528 -11.26794 -11.26776 -11.22085
 Alpha  occ. eigenvalues --  -11.21836 -11.21739 -11.21662 -11.21606 -11.21279
 Alpha  occ. eigenvalues --   -1.59845  -1.39398  -1.19385  -1.08784  -1.08765
 Alpha  occ. eigenvalues --   -1.04795  -1.03892  -0.96348  -0.95605  -0.87376
 Alpha  occ. eigenvalues --   -0.86186  -0.82441  -0.79962  -0.78574  -0.77485
 Alpha  occ. eigenvalues --   -0.72042  -0.71169  -0.70485  -0.65398  -0.65037
 Alpha  occ. eigenvalues --   -0.64825  -0.62179  -0.61282  -0.59725  -0.57960
 Alpha  occ. eigenvalues --   -0.55619  -0.55291  -0.53385  -0.53003  -0.52859
 Alpha  occ. eigenvalues --   -0.52562  -0.50274  -0.48804  -0.48796  -0.48270
 Alpha  occ. eigenvalues --   -0.46982  -0.46119  -0.46033  -0.44801  -0.44154
 Alpha  occ. eigenvalues --   -0.37360  -0.36355
 Alpha virt. eigenvalues --    0.05045   0.11180   0.16427   0.20885   0.22624
 Alpha virt. eigenvalues --    0.24042   0.26326   0.26364   0.27161   0.28269
 Alpha virt. eigenvalues --    0.28460   0.30345   0.31080   0.31634   0.32252

 Mulliken charges:
               1
     1  C   -0.298882
     2  C   -0.298880
     3  C   -0.481437
     4  H    0.150120
     5  H    0.151995
     6  H    0.148845
     7  H    0.153451
     8  H    0.160864
     9  H    0.154926
    10  H    0.154431
    11  C   -0.298459
    12  C   -0.299986
    13  C   -0.475872
    14  H    0.148669
    15  H    0.150006
    16  H    0.152262
    17  H    0.153168
    18  H    0.155444
    19  H    0.154829
    20  H    0.161228
    21  C   -0.172023
    22  C   -0.218748
    23  C   -0.170561
    24  C    0.158110
    25  C   -0.169760
    26  C   -0.217927
    27  H    0.225989
    28  H    0.223551
    29  H    0.275738
    30  H    0.276751
    31  H    0.224698
    32  N    0.488107
    33  O   -0.460135
    34  O   -0.460512
 Sum of Mulliken charges =  -0.00000

 Dipole moment (field-independent basis, Debye):
    X=             -2.5512    Y=              4.4523    Z=              0.8599  Tot=              5.2029
 Quadrupole moment (field-independent basis, Debye-Ang):
   XX=           -112.9464   YY=            -94.8780   ZZ=            -91.8661
   XY=             18.0899   XZ=              0.8451   YZ=             -1.9310

 Normal termination of Gaussian 16 at Wed May  5 20:06:57 2021.
