 Gaussian 16, Revision A.03,
 Gaussian 16:  EM64L-G16RevA.03 25-Dec-2016

 -------------
 #p 6-31g* mp2
 -------------

 ------------------------------------------------------
 Input file generated by CHIRIPA (05-May-2021 14:53:18)
 ------------------------------------------------------
 Symbolic Z-matrix:
 Charge =  0 Multiplicity = 1

                         Standard orientation:
 ---------------------------------------------------------------------
 Center     Atomic      Atomic             Coordinates (Angstroms)
 Number     Number       Type             X           Y           Z
 ---------------------------------------------------------------------
      1          6           0       -4.153145   -0.509270   -0.045499
      2          6           0       -3.611794   -1.916934    0.206302
      3          6           0       -4.720849   -2.958557    0.357342
      4          1           0       -4.815386   -0.224269    0.783450
      5          1           0       -4.773861   -0.519419   -0.952143
      6          1           0       -2.991157   -1.903837    1.111429
      7          1           0       -2.950613   -2.198542   -0.623248
      8          1           0       -5.335373   -3.000973   -0.547734
      9          1           0       -5.376147   -2.704594    1.196800
     10          1           0       -4.311557   -3.957652    0.536645
     11          6           0       -3.056466    0.543139   -0.198660
     12          6           0       -3.597817    1.950804   -0.450462
     13          6           0       -2.488761    2.992426   -0.601501
     14          1           0       -2.435750    0.553288    0.707984
     15          1           0       -2.394225    0.258138   -1.027609
     16          1           0       -4.258997    2.232411    0.379089
     17          1           0       -4.218453    1.937707   -1.355589
     18          1           0       -1.833464    2.738464   -1.440959
     19          1           0       -1.874238    3.034843    0.303575
     20          1           0       -2.898054    3.991521   -0.780804
     21          6           0        5.052058   -0.923646   -0.638279
     22          6           0        4.901919   -0.385915    0.644228
     23          6           0        3.667754    0.121358    1.061426
     24          6           0        2.600105    0.074786    0.166302
     25          6           0        2.718113   -0.454586   -1.117883
     26          6           0        3.961598   -0.956208   -1.513699
     27          1           0        6.014407   -1.315514   -0.954064
     28          1           0        5.747046   -0.359321    1.326210
     29          1           0        3.523658    0.543285    2.048661
     30          1           0        1.857324   -0.467324   -1.775376
     31          1           0        4.075276   -1.373226   -2.510301
     32          7           0        1.288616    0.608822    0.596652
     33          8           0        0.363488    0.556165   -0.210815
     34          8           0        1.210632    1.069945    1.733279
 ---------------------------------------------------------------------

 SCF Done:  E(RHF) =  -669.535638106     A.U. after   15 cycles
 E2 =    -0.2092047225D+01 EUMP2 =    -0.67162768533069D+03

 The electronic state is 1-A.
 Alpha  occ. eigenvalues --  -20.60984 -20.60971 -15.86002 -11.31320 -11.27884
 Alpha  occ. eigenvalues --  -11.27879 -11.27617 -11.26888 -11.26878 -11.20582
 Alpha  occ. eigenvalues --  -11.20297 -11.20110 -11.20108 -11.19503 -11.19420
 Alpha  occ. eigenvalues --   -1.60038  -1.39595  -1.19488  -1.08894  -1.07034
 Alpha  occ. eigenvalues --   -1.04883  -1.02235  -0.95738  -0.94666  -0.86284
 Alpha  occ. eigenvalues --   -0.85683  -0.82578  -0.78347  -0.77636  -0.76736
 Alpha  occ. eigenvalues --   -0.72203  -0.71347  -0.70597  -0.65143  -0.64886
 Alpha  occ. eigenvalues --   -0.63687  -0.62231  -0.59654  -0.58076  -0.56261
 Alpha  occ. eigenvalues --   -0.55388  -0.53955  -0.53215  -0.52976  -0.51449
 Alpha  occ. eigenvalues --   -0.51067  -0.49055  -0.48990  -0.48592  -0.46618
 Alpha  occ. eigenvalues --   -0.45400  -0.45012  -0.44227  -0.44114  -0.42446
 Alpha  occ. eigenvalues --   -0.37465  -0.36484
 Alpha virt. eigenvalues --    0.04894   0.11172   0.16388   0.21289   0.24112
 Alpha virt. eigenvalues --    0.25590   0.27209   0.27833   0.28230   0.28960
 Alpha virt. eigenvalues --    0.29268   0.30914   0.32357   0.32649   0.32809

 Mulliken charges:
               1
     1  C   -0.298442
     2  C   -0.297302
     3  C   -0.474692
     4  H    0.145448
     5  H    0.143266
     6  H    0.153274
     7  H    0.149144
     8  H    0.152632
     9  H    0.153894
    10  H    0.156024
    11  C   -0.294578
    12  C   -0.300346
    13  C   -0.472053
    14  H    0.164440
    15  H    0.154256
    16  H    0.146232
    17  H    0.143610
    18  H    0.155301
    19  H    0.165773
    20  H    0.149113
    21  C   -0.170560
    22  C   -0.218565
    23  C   -0.170507
    24  C    0.157672
    25  C   -0.170582
    26  C   -0.218498
    27  H    0.226090
    28  H    0.223894
    29  H    0.275853
    30  H    0.275309
    31  H    0.223879
    32  N    0.492175
    33  O   -0.460776
    34  O   -0.460381
 Sum of Mulliken charges =  -0.00000

 Dipole moment (field-independent basis, Debye):
    X=              5.0648    Y=             -1.8599    Z=             -1.4351  Tot=              5.5831
 Quadrupole moment (field-independent basis, Debye-Ang):
   XX=            -72.7640   YY=            -97.2283   ZZ=            -90.4992
   XY=             -4.7897   XZ=             -1.4969   YZ=              1.3864

 Normal termination of Gaussian 16 at Thu May  6 12:20:56 2021.
