 Gaussian 16, Revision A.03,
 Gaussian 16:  EM64L-G16RevA.03 25-Dec-2016

 -------------
 #p 6-31g* mp2
 -------------

 ------------------------------------------------------
 Input file generated by CHIRIPA (05-May-2021 14:53:12)
 ------------------------------------------------------
 Symbolic Z-matrix:
 Charge =  0 Multiplicity = 1

                         Standard orientation:
 ---------------------------------------------------------------------
 Center     Atomic      Atomic             Coordinates (Angstroms)
 Number     Number       Type             X           Y           Z
 ---------------------------------------------------------------------
      1          6           0       -4.130955   -0.341547    0.256204
      2          6           0       -4.986165   -1.154272   -0.716463
      3          6           0       -5.816833   -2.230222   -0.016380
      4          1           0       -3.465155   -1.021373    0.805285
      5          1           0       -4.784698    0.127653    1.004446
      6          1           0       -4.331134   -1.620675   -1.463469
      7          1           0       -5.649871   -0.472409   -1.263429
      8          1           0       -6.493563   -1.778558    0.716175
      9          1           0       -5.167333   -2.933349    0.514999
     10          1           0       -6.420535   -2.799176   -0.730308
     11          6           0       -3.294812    0.738044   -0.428688
     12          6           0       -2.439603    1.550769    0.543979
     13          6           0       -1.608935    2.626719   -0.156104
     14          1           0       -2.641069    0.268845   -1.176930
     15          1           0       -3.960613    1.417871   -0.977769
     16          1           0       -1.775896    0.868906    1.090945
     17          1           0       -3.094634    2.017173    1.290985
     18          1           0       -2.258435    3.329846   -0.687483
     19          1           0       -0.932205    2.175055   -0.888659
     20          1           0       -1.005232    3.195673    0.557824
     21          6           0        1.978102    2.190281    0.189710
     22          6           0        2.936130    1.864438   -0.775966
     23          6           0        3.454279    0.568237   -0.852982
     24          6           0        2.989883   -0.381603    0.055550
     25          6           0        2.036234   -0.087793    1.028955
     26          6           0        1.531998    1.214845    1.087506
     27          1           0        1.580995    3.199701    0.242366
     28          1           0        3.284423    2.619938   -1.474503
     29          1           0        4.196709    0.288772   -1.590624
     30          1           0        1.708461   -0.862365    1.711614
     31          1           0        0.788060    1.465047    1.838505
     32          7           0        3.531060   -1.757241   -0.016210
     33          8           0        3.105526   -2.575941    0.795757
     34          8           0        4.370521   -1.990717   -0.883061
 ---------------------------------------------------------------------

 SCF Done:  E(RHF) =  -669.534665335     A.U. after   15 cycles
 E2 =    -0.2092702452D+01 EUMP2 =    -0.67162736778699D+03

 The electronic state is 1-A.
 Alpha  occ. eigenvalues --  -20.60762 -20.60757 -15.85817 -11.31170 -11.27756
 Alpha  occ. eigenvalues --  -11.27749 -11.27453 -11.26747 -11.26724 -11.22375
 Alpha  occ. eigenvalues --  -11.21984 -11.21903 -11.21859 -11.21744 -11.21247
 Alpha  occ. eigenvalues --   -1.59839  -1.39393  -1.19354  -1.08931  -1.08736
 Alpha  occ. eigenvalues --   -1.04762  -1.04047  -0.96519  -0.95572  -0.87538
 Alpha  occ. eigenvalues --   -0.86145  -0.82416  -0.80135  -0.78694  -0.77464
 Alpha  occ. eigenvalues --   -0.72035  -0.71164  -0.70464  -0.65574  -0.65004
 Alpha  occ. eigenvalues --   -0.64764  -0.62152  -0.61403  -0.59911  -0.58099
 Alpha  occ. eigenvalues --   -0.55811  -0.55262  -0.53291  -0.53010  -0.52916
 Alpha  occ. eigenvalues --   -0.52812  -0.50408  -0.48793  -0.48790  -0.48446
 Alpha  occ. eigenvalues --   -0.47144  -0.46245  -0.46133  -0.44802  -0.44303
 Alpha  occ. eigenvalues --   -0.37268  -0.36355
 Alpha virt. eigenvalues --    0.05062   0.11218   0.16487   0.20013   0.22673
 Alpha virt. eigenvalues --    0.24092   0.25743   0.26173   0.26650   0.27904
 Alpha virt. eigenvalues --    0.28644   0.30095   0.30850   0.31627   0.32070

 Mulliken charges:
               1
     1  C   -0.298934
     2  C   -0.300267
     3  C   -0.476175
     4  H    0.150562
     5  H    0.149536
     6  H    0.153823
     7  H    0.151985
     8  H    0.154945
     9  H    0.156675
    10  H    0.161624
    11  C   -0.299130
    12  C   -0.300820
    13  C   -0.478154
    14  H    0.152758
    15  H    0.150856
    16  H    0.147908
    17  H    0.153306
    18  H    0.158366
    19  H    0.162482
    20  H    0.146327
    21  C   -0.168755
    22  C   -0.220665
    23  C   -0.170714
    24  C    0.157940
    25  C   -0.172825
    26  C   -0.217205
    27  H    0.227965
    28  H    0.223529
    29  H    0.275549
    30  H    0.275234
    31  H    0.225378
    32  N    0.488136
    33  O   -0.460698
    34  O   -0.460541
 Sum of Mulliken charges =  -0.00000

 Dipole moment (field-independent basis, Debye):
    X=             -2.0213    Y=              4.8046    Z=              0.1722  Tot=              5.2153
 Quadrupole moment (field-independent basis, Debye-Ang):
   XX=           -104.5098   YY=            -99.0952   ZZ=            -92.2634
   XY=             15.4172   XZ=             -1.6544   YZ=             -0.7802

 Normal termination of Gaussian 16 at Thu May  6 04:07:25 2021.
