 Gaussian 16, Revision A.03,
 Gaussian 16:  EM64L-G16RevA.03 25-Dec-2016

 -------------
 #p 6-31g* mp2
 -------------

 ------------------------------------------------------
 Input file generated by CHIRIPA (05-May-2021 14:57:23)
 ------------------------------------------------------
 Symbolic Z-matrix:
 Charge =  0 Multiplicity = 1

                         Standard orientation:
 ---------------------------------------------------------------------
 Center     Atomic      Atomic             Coordinates (Angstroms)
 Number     Number       Type             X           Y           Z
 ---------------------------------------------------------------------
      1          6           0       -2.545693    1.978502   -0.193793
      2          6           0       -2.038718    0.675122   -0.167371
      3          6           0       -2.903646   -0.422387   -0.123548
      4          6           0       -4.276137   -0.178891   -0.107144
      5          6           0       -4.811861    1.107825   -0.132640
      6          6           0       -3.928209    2.190320   -0.176374
      7          1           0       -1.866524    2.825242   -0.227801
      8          1           0       -0.965495    0.507619   -0.180811
      9          1           0       -2.538174   -1.441896   -0.102361
     10          1           0       -5.886521    1.243170   -0.118316
     11          1           0       -4.324764    3.201444   -0.196817
     12          7           0       -5.201709   -1.332828   -0.060798
     13          8           0       -6.406807   -1.091603   -0.047129
     14          8           0       -4.704548   -2.456658   -0.039018
     15          6           0        1.984665    0.729242    1.229468
     16          6           0        2.166461    0.934082   -0.142214
     17          6           0        3.347531    0.527829   -0.770372
     18          6           0        4.330375   -0.082884    0.007019
     19          6           0        4.178937   -0.300887    1.375533
     20          6           0        2.989710    0.113496    1.982636
     21          1           0        1.064013    1.047988    1.709259
     22          1           0        1.387641    1.412022   -0.729630
     23          1           0        3.514470    0.674129   -1.830629
     24          1           0        4.973340   -0.780021    1.934794
     25          1           0        2.851270   -0.046872    3.048076
     26          7           0        5.585038   -0.517269   -0.646839
     27          8           0        6.435698   -1.053028    0.060252
     28          8           0        5.694026   -0.313757   -1.854043
 ---------------------------------------------------------------------

 SCF Done:  E(RHF) =  -868.336539709     A.U. after   16 cycles
 E2 =    -0.2600286785D+01 EUMP2 =    -0.87093682649390D+03

 The electronic state is 1-A.
 Alpha  occ. eigenvalues --  -20.61321 -20.61313 -20.61305 -20.61300 -15.86381
 Alpha  occ. eigenvalues --  -15.86365 -11.31924 -11.31883 -11.28562 -11.28504
 Alpha  occ. eigenvalues --  -11.28486 -11.28456 -11.28372 -11.28331 -11.27706
 Alpha  occ. eigenvalues --  -11.27618 -11.27527 -11.27501  -1.60391  -1.60378
 Alpha  occ. eigenvalues --   -1.39939  -1.39927  -1.20136  -1.20089  -1.09524
 Alpha  occ. eigenvalues --   -1.09466  -1.05573  -1.05509  -0.96312  -0.96270
 Alpha  occ. eigenvalues --   -0.87038  -0.86867  -0.83133  -0.83098  -0.78176
 Alpha  occ. eigenvalues --   -0.78072  -0.72600  -0.72579  -0.71716  -0.71704
 Alpha  occ. eigenvalues --   -0.71287  -0.71211  -0.65930  -0.65762  -0.65733
 Alpha  occ. eigenvalues --   -0.65307  -0.63004  -0.62736  -0.56116  -0.56053
 Alpha  occ. eigenvalues --   -0.53934  -0.53840  -0.53729  -0.53493  -0.49377
 Alpha  occ. eigenvalues --   -0.49349  -0.49336  -0.49324  -0.45305  -0.45297
 Alpha  occ. eigenvalues --   -0.38153  -0.38103  -0.37158  -0.37116
 Alpha virt. eigenvalues --    0.04393   0.04446   0.10311   0.10453   0.15783
 Alpha virt. eigenvalues --    0.15925   0.18157   0.22006   0.25046   0.26905
 Alpha virt. eigenvalues --    0.27417   0.28971   0.30220   0.30365   0.31394

 Mulliken charges:
               1
     1  C   -0.172657
     2  C   -0.227301
     3  C   -0.170889
     4  C    0.159348
     5  C   -0.169830
     6  C   -0.218014
     7  H    0.222116
     8  H    0.221598
     9  H    0.278708
    10  H    0.278139
    11  H    0.225799
    12  N    0.487886
    13  O   -0.458458
    14  O   -0.458609
    15  C   -0.173380
    16  C   -0.222952
    17  C   -0.169317
    18  C    0.159068
    19  C   -0.169212
    20  C   -0.218038
    21  H    0.224196
    22  H    0.216439
    23  H    0.278035
    24  H    0.278799
    25  H    0.227047
    26  N    0.488009
    27  O   -0.457845
    28  O   -0.458685
 Sum of Mulliken charges =  -0.00000

 Dipole moment (field-independent basis, Debye):
    X=             -1.0973    Y=              5.4760    Z=              2.1854  Tot=              5.9973
 Quadrupole moment (field-independent basis, Debye-Ang):
   XX=           -165.8404   YY=           -105.0913   ZZ=           -101.6881
   XY=            -14.6955   XZ=             12.2817   YZ=             -2.3723

 Normal termination of Gaussian 16 at Fri May  7 07:58:12 2021.
