 Gaussian 16, Revision A.03,
 Gaussian 16:  EM64L-G16RevA.03 25-Dec-2016

 -------------
 #p 6-31g* mp2
 -------------

 ------------------------------------------------------
 Input file generated by CHIRIPA (05-May-2021 14:53:12)
 ------------------------------------------------------
 Symbolic Z-matrix:
 Charge =  0 Multiplicity = 1

                         Standard orientation:
 ---------------------------------------------------------------------
 Center     Atomic      Atomic             Coordinates (Angstroms)
 Number     Number       Type             X           Y           Z
 ---------------------------------------------------------------------
      1          6           0       -3.150496    0.953018   -0.295663
      2          6           0       -3.854813    2.188557    0.265913
      3          6           0       -3.062076    3.475870    0.037468
      4          1           0       -2.158702    0.861731    0.167970
      5          1           0       -2.980568    1.093957   -1.372072
      6          1           0       -4.024602    2.044745    1.340671
      7          1           0       -4.845122    2.276805   -0.198970
      8          1           0       -2.904555    3.646566   -1.032415
      9          1           0       -2.079373    3.413187    0.515974
     10          1           0       -3.583783    4.346604    0.446742
     11          6           0       -3.930676   -0.341729   -0.075032
     12          6           0       -3.226359   -1.577268   -0.636607
     13          6           0       -4.019096   -2.864581   -0.408163
     14          1           0       -4.100604   -0.482668    1.001377
     15          1           0       -4.922470   -0.250442   -0.538665
     16          1           0       -2.236050   -1.665516   -0.171725
     17          1           0       -3.056570   -1.433456   -1.711366
     18          1           0       -5.001799   -2.801898   -0.886668
     19          1           0       -4.176617   -3.035277    0.661721
     20          1           0       -3.497389   -3.735315   -0.817436
     21          6           0        0.826463   -1.243331    1.407611
     22          6           0        1.827699   -0.551556    2.097171
     23          6           0        2.907003    0.009143    1.407773
     24          6           0        2.953598   -0.141669    0.022719
     25          6           0        1.971605   -0.825196   -0.692662
     26          6           0        0.901479   -1.377707    0.017346
     27          1           0       -0.008401   -1.675716    1.951158
     28          1           0        1.772043   -0.445632    3.176861
     29          1           0        3.695857    0.549728    1.916589
     30          1           0        2.054514   -0.914286   -1.769047
     31          1           0        0.125346   -1.914422   -0.520798
     32          7           0        4.091350    0.447583   -0.718026
     33          8           0        4.109244    0.300789   -1.938177
     34          8           0        4.943682    1.045076   -0.064444
 ---------------------------------------------------------------------

 SCF Done:  E(RHF) =  -669.535513984     A.U. after   15 cycles
 E2 =    -0.2091757306D+01 EUMP2 =    -0.67162727129030D+03

 The electronic state is 1-A.
 Alpha  occ. eigenvalues --  -20.60768 -20.60762 -15.85820 -11.31199 -11.27765
 Alpha  occ. eigenvalues --  -11.27751 -11.27521 -11.26791 -11.26750 -11.22619
 Alpha  occ. eigenvalues --  -11.22137 -11.22059 -11.21947 -11.21935 -11.21393
 Alpha  occ. eigenvalues --   -1.59842  -1.39395  -1.19370  -1.09127  -1.08766
 Alpha  occ. eigenvalues --   -1.04772  -1.04204  -0.96617  -0.95599  -0.87635
 Alpha  occ. eigenvalues --   -0.86176  -0.82427  -0.80311  -0.78912  -0.77468
 Alpha  occ. eigenvalues --   -0.72039  -0.71165  -0.70484  -0.65798  -0.65020
 Alpha  occ. eigenvalues --   -0.64769  -0.62156  -0.61570  -0.60009  -0.58231
 Alpha  occ. eigenvalues --   -0.55894  -0.55279  -0.53335  -0.53100  -0.53047
 Alpha  occ. eigenvalues --   -0.52855  -0.50559  -0.48820  -0.48793  -0.48571
 Alpha  occ. eigenvalues --   -0.47347  -0.46438  -0.46353  -0.44798  -0.44445
 Alpha  occ. eigenvalues --   -0.37347  -0.36362
 Alpha virt. eigenvalues --    0.05053   0.11172   0.16538   0.19834   0.22593
 Alpha virt. eigenvalues --    0.23794   0.25423   0.26141   0.27157   0.27970
 Alpha virt. eigenvalues --    0.28825   0.30154   0.30972   0.31519   0.31801

 Mulliken charges:
               1
     1  C   -0.300588
     2  C   -0.300002
     3  C   -0.476179
     4  H    0.150009
     5  H    0.151287
     6  H    0.150961
     7  H    0.153109
     8  H    0.157029
     9  H    0.156187
    10  H    0.161566
    11  C   -0.297918
    12  C   -0.304322
    13  C   -0.475836
    14  H    0.148447
    15  H    0.153201
    16  H    0.142386
    17  H    0.154728
    18  H    0.159983
    19  H    0.154984
    20  H    0.159784
    21  C   -0.172949
    22  C   -0.218676
    23  C   -0.171186
    24  C    0.158762
    25  C   -0.171526
    26  C   -0.220323
    27  H    0.225560
    28  H    0.223400
    29  H    0.275659
    30  H    0.275961
    31  H    0.229103
    32  N    0.488016
    33  O   -0.460235
    34  O   -0.460381
 Sum of Mulliken charges =  -0.00000

 Dipole moment (field-independent basis, Debye):
    X=             -4.1244    Y=             -2.0086    Z=              2.5638  Tot=              5.2553
 Quadrupole moment (field-independent basis, Debye-Ang):
   XX=           -117.8048   YY=            -95.1742   ZZ=            -90.2553
   XY=             -5.4034   XZ=             10.2040   YZ=              1.2544

 Normal termination of Gaussian 16 at Thu May  6 08:51:57 2021.
