 Gaussian 16, Revision A.03,
 Gaussian 16:  EM64L-G16RevA.03 25-Dec-2016

 -------------
 #p 6-31g* mp2
 -------------

 ------------------------------------------------------
 Input file generated by CHIRIPA (05-May-2021 14:55:19)
 ------------------------------------------------------
 Symbolic Z-matrix:
 Charge =  0 Multiplicity = 1

                         Standard orientation:
 ---------------------------------------------------------------------
 Center     Atomic      Atomic             Coordinates (Angstroms)
 Number     Number       Type             X           Y           Z
 ---------------------------------------------------------------------
      1          6           0        4.115896   -2.113927    0.237435
      2          6           0        2.875430   -1.872876   -0.362283
      3          6           0        2.402713   -0.566091   -0.515255
      4          6           0        3.200051    0.480680   -0.055026
      5          6           0        4.440252    0.272813    0.546625
      6          6           0        4.892977   -1.042202    0.689178
      7          1           0        4.475349   -3.132265    0.352221
      8          1           0        2.269801   -2.703247   -0.714051
      9          1           0        1.446175   -0.350979   -0.975886
     10          1           0        5.021448    1.121049    0.887397
     11          1           0        5.856736   -1.226419    1.155310
     12          7           0        2.710188    1.868471   -0.211456
     13          8           0        3.431661    2.773388    0.202356
     14          8           0        1.614036    2.025027   -0.744915
     15          6           0       -3.489379   -0.391099    0.310541
     16          6           0       -2.549634   -1.149648   -0.627259
     17          6           0       -1.132848   -1.278671   -0.067022
     18          1           0       -3.076957    0.608914    0.502450
     19          1           0       -3.523101   -0.906682    1.280299
     20          1           0       -2.518769   -0.633560   -1.595410
     21          1           0       -2.964438   -2.147901   -0.817111
     22          1           0       -1.143597   -1.812991    0.888483
     23          1           0       -0.695396   -0.290046    0.105761
     24          1           0       -0.477839   -1.824232   -0.753452
     25          6           0       -4.909433   -0.253907   -0.235675
     26          6           0       -5.849179    0.504642    0.702124
     27          6           0       -7.265965    0.633667    0.141887
     28          1           0       -4.875711    0.261677   -1.205434
     29          1           0       -5.321856   -1.253919   -0.427585
     30          1           0       -5.434375    1.502896    0.891976
     31          1           0       -5.880044   -0.011445    1.670274
     32          1           0       -7.703418   -0.354961   -0.030897
     33          1           0       -7.255216    1.167985   -0.813618
     34          1           0       -7.920973    1.179226    0.828317
 ---------------------------------------------------------------------

 SCF Done:  E(RHF) =  -669.534915529     A.U. after   15 cycles
 E2 =    -0.2092037161D+01 EUMP2 =    -0.67162695268945D+03

 The electronic state is 1-A.
 Alpha  occ. eigenvalues --  -20.60770 -20.60763 -15.85809 -11.31089 -11.27689
 Alpha  occ. eigenvalues --  -11.27578 -11.27430 -11.26690 -11.26660 -11.21775
 Alpha  occ. eigenvalues --  -11.21520 -11.21501 -11.21382 -11.21308 -11.20971
 Alpha  occ. eigenvalues --   -1.59836  -1.39393  -1.19277  -1.08691  -1.08446
 Alpha  occ. eigenvalues --   -1.04679  -1.03612  -0.96106  -0.95527  -0.87144
 Alpha  occ. eigenvalues --   -0.86069  -0.82371  -0.79699  -0.78233  -0.77411
 Alpha  occ. eigenvalues --   -0.72032  -0.71154  -0.70407  -0.65083  -0.64937
 Alpha  occ. eigenvalues --   -0.64681  -0.62128  -0.60960  -0.59459  -0.57685
 Alpha  occ. eigenvalues --   -0.55437  -0.55125  -0.53111  -0.52888  -0.52635
 Alpha  occ. eigenvalues --   -0.52456  -0.49971  -0.48789  -0.48781  -0.47993
 Alpha  occ. eigenvalues --   -0.46666  -0.45783  -0.45677  -0.44805  -0.43867
 Alpha  occ. eigenvalues --   -0.37270  -0.36248
 Alpha virt. eigenvalues --    0.05083   0.11349   0.16565   0.20670   0.22979
 Alpha virt. eigenvalues --    0.24121   0.26201   0.26658   0.27451   0.28026
 Alpha virt. eigenvalues --    0.28853   0.30344   0.31402   0.31896   0.32614

 Mulliken charges:
               1
     1  C   -0.170566
     2  C   -0.221499
     3  C   -0.170230
     4  C    0.156316
     5  C   -0.170670
     6  C   -0.219108
     7  H    0.225200
     8  H    0.223414
     9  H    0.282200
    10  H    0.275097
    11  H    0.223003
    12  N    0.488863
    13  O   -0.460085
    14  O   -0.462835
    15  C   -0.300393
    16  C   -0.299132
    17  C   -0.485663
    18  H    0.156467
    19  H    0.148545
    20  H    0.155679
    21  H    0.150587
    22  H    0.157254
    23  H    0.169906
    24  H    0.146308
    25  C   -0.298665
    26  C   -0.300084
    27  C   -0.475821
    28  H    0.151229
    29  H    0.148283
    30  H    0.154400
    31  H    0.151271
    32  H    0.154277
    33  H    0.155922
    34  H    0.160530
 Sum of Mulliken charges =  -0.00000

 Dipole moment (field-independent basis, Debye):
    X=              1.6111    Y=             -4.7947    Z=              0.5898  Tot=              5.0925
 Quadrupole moment (field-independent basis, Debye-Ang):
   XX=            -81.4183   YY=            -98.9219   ZZ=            -94.5195
   XY=            -13.1705   XZ=              3.4196   YZ=              0.9715

 Normal termination of Gaussian 16 at Thu May  6 09:13:31 2021.
