 Gaussian 16, Revision A.03,
 Gaussian 16:  EM64L-G16RevA.03 25-Dec-2016

 -------------
 #p 6-31g* mp2
 -------------

 ------------------------------------------------------
 Input file generated by CHIRIPA (05-May-2021 14:53:12)
 ------------------------------------------------------
 Symbolic Z-matrix:
 Charge =  0 Multiplicity = 1

                         Standard orientation:
 ---------------------------------------------------------------------
 Center     Atomic      Atomic             Coordinates (Angstroms)
 Number     Number       Type             X           Y           Z
 ---------------------------------------------------------------------
      1          6           0       -3.920193   -0.436274   -0.049191
      2          6           0       -4.919170   -1.101920   -0.996262
      3          6           0       -5.157687   -2.575107   -0.663664
      4          1           0       -2.967332   -0.981617   -0.089231
      5          1           0       -4.288190   -0.525321    0.982334
      6          1           0       -4.550075   -1.010429   -2.025832
      7          1           0       -5.869704   -0.554813   -0.954106
      8          1           0       -5.549100   -2.681992    0.353181
      9          1           0       -4.221974   -3.140196   -0.724635
     10          1           0       -5.875028   -3.031269   -1.353010
     11          6           0       -3.671293    1.036670   -0.368900
     12          6           0       -2.672315    1.702315    0.578171
     13          6           0       -2.433799    3.175503    0.245573
     14          1           0       -3.303296    1.125717   -1.400425
     15          1           0       -4.624153    1.582013   -0.328860
     16          1           0       -1.721782    1.155209    0.536016
     17          1           0       -3.041410    1.610824    1.607741
     18          1           0       -3.369512    3.740591    0.306544
     19          1           0       -2.042386    3.282387   -0.771271
     20          1           0       -1.716457    3.631665    0.934919
     21          6           0        4.853045    0.190385   -1.456022
     22          6           0        3.910359    1.191906   -1.201423
     23          6           0        2.860305    0.967560   -0.306100
     24          6           0        2.782936   -0.275609    0.319869
     25          6           0        3.706580   -1.293442    0.087094
     26          6           0        4.748332   -1.046912   -0.812087
     27          1           0        5.665527    0.373280   -2.153029
     28          1           0        3.989187    2.153770   -1.700070
     29          1           0        2.116765    1.725261   -0.090566
     30          1           0        3.601728   -2.242122    0.599373
     31          1           0        5.478993   -1.826554   -1.007880
     32          7           0        1.675686   -0.524857    1.269748
     33          8           0        1.629706   -1.628663    1.808392
     34          8           0        0.874769    0.388306    1.457635
 ---------------------------------------------------------------------

 SCF Done:  E(RHF) =  -669.536084186     A.U. after   15 cycles
 E2 =    -0.2090932106D+01 EUMP2 =    -0.67162701629248D+03

 The electronic state is 1-A.
 Alpha  occ. eigenvalues --  -20.60963 -20.60951 -15.85991 -11.31306 -11.27869
 Alpha  occ. eigenvalues --  -11.27865 -11.27606 -11.26876 -11.26866 -11.20965
 Alpha  occ. eigenvalues --  -11.20571 -11.20513 -11.20491 -11.20396 -11.20296
 Alpha  occ. eigenvalues --   -1.60021  -1.39577  -1.19475  -1.08880  -1.07593
 Alpha  occ. eigenvalues --   -1.04870  -1.02722  -0.95723  -0.95222  -0.86271
 Alpha  occ. eigenvalues --   -0.86242  -0.82558  -0.78774  -0.77619  -0.77355
 Alpha  occ. eigenvalues --   -0.72212  -0.71335  -0.70583  -0.65132  -0.64872
 Alpha  occ. eigenvalues --   -0.64230  -0.62217  -0.60125  -0.58578  -0.56803
 Alpha  occ. eigenvalues --   -0.55374  -0.54534  -0.53203  -0.52961  -0.51930
 Alpha  occ. eigenvalues --   -0.51638  -0.49189  -0.48975  -0.48966  -0.47095
 Alpha  occ. eigenvalues --   -0.45829  -0.45142  -0.44915  -0.44608  -0.42980
 Alpha  occ. eigenvalues --   -0.37454  -0.36472
 Alpha virt. eigenvalues --    0.04883   0.11183   0.16352   0.21258   0.23634
 Alpha virt. eigenvalues --    0.24927   0.27200   0.27462   0.27978   0.28623
 Alpha virt. eigenvalues --    0.28786   0.30864   0.32033   0.32309   0.32661

 Mulliken charges:
               1
     1  C   -0.298002
     2  C   -0.298979
     3  C   -0.475202
     4  H    0.154010
     5  H    0.150663
     6  H    0.149030
     7  H    0.149951
     8  H    0.155578
     9  H    0.155775
    10  H    0.157301
    11  C   -0.297841
    12  C   -0.307774
    13  C   -0.475228
    14  H    0.144239
    15  H    0.145594
    16  H    0.175022
    17  H    0.152354
    18  H    0.151420
    19  H    0.147778
    20  H    0.160444
    21  C   -0.170599
    22  C   -0.218563
    23  C   -0.171031
    24  C    0.157765
    25  C   -0.170801
    26  C   -0.218571
    27  H    0.226066
    28  H    0.224030
    29  H    0.276112
    30  H    0.275860
    31  H    0.223861
    32  N    0.490451
    33  O   -0.458705
    34  O   -0.462009
 Sum of Mulliken charges =  -0.00000

 Dipole moment (field-independent basis, Debye):
    X=              4.1695    Y=              0.7758    Z=             -3.2236  Tot=              5.3271
 Quadrupole moment (field-independent basis, Debye-Ang):
   XX=            -73.3100   YY=            -92.6849   ZZ=            -97.2332
   XY=             -0.7386   XZ=             -8.9179   YZ=              0.6234

 Normal termination of Gaussian 16 at Thu May  6 08:49:22 2021.
