 Gaussian 16, Revision A.03,
 Gaussian 16:  EM64L-G16RevA.03 25-Dec-2016

 -------------
 #p 6-31g* mp2
 -------------

 ------------------------------------------------------
 Input file generated by CHIRIPA (05-May-2021 14:51:11)
 ------------------------------------------------------
 Symbolic Z-matrix:
 Charge =  0 Multiplicity = 1

                         Standard orientation:
 ---------------------------------------------------------------------
 Center     Atomic      Atomic             Coordinates (Angstroms)
 Number     Number       Type             X           Y           Z
 ---------------------------------------------------------------------
      1          6           0       -3.466367    0.895760   -0.215828
      2          6           0       -4.558874    1.757077    0.418637
      3          6           0       -4.296703    3.255150    0.261038
      4          1           0       -2.498474    1.149761    0.237616
      5          1           0       -3.386472    1.144676   -1.283093
      6          1           0       -4.637632    1.505627    1.484088
      7          1           0       -5.524307    1.500861   -0.036235
      8          1           0       -4.239055    3.526839   -0.797954
      9          1           0       -3.347342    3.531633    0.731008
     10          1           0       -5.089890    3.852180    0.721764
     11          6           0       -3.714332   -0.604221   -0.066508
     12          6           0       -2.621825   -1.465537   -0.700974
     13          6           0       -2.883996   -2.963610   -0.543375
     14          1           0       -3.794227   -0.853137    1.000756
     15          1           0       -4.682225   -0.858222   -0.519953
     16          1           0       -1.656392   -1.209321   -0.246101
     17          1           0       -2.543067   -1.214088   -1.766425
     18          1           0       -3.833357   -3.240093   -1.013345
     19          1           0       -2.941644   -3.235299    0.515617
     20          1           0       -2.090809   -3.560641   -1.004101
     21          6           0        3.907537    0.414902   -0.269283
     22          6           0        5.334046    0.752370    0.165657
     23          6           0        5.955123    1.875890   -0.664859
     24          1           0        3.912356    0.129045   -1.330042
     25          1           0        3.284846    1.316897   -0.191464
     26          1           0        5.953538   -0.150331    0.088358
     27          1           0        5.325859    1.037273    1.225554
     28          1           0        5.361285    2.791663   -0.579312
     29          1           0        5.992531    1.597312   -1.722969
     30          1           0        6.974807    2.100901   -0.337025
     31          6           0        3.273162   -0.706442    0.551620
     32          6           0        1.846653   -1.043910    0.116680
     33          6           0        1.225576   -2.167431    0.947196
     34          1           0        3.895852   -1.608437    0.473800
     35          1           0        3.268342   -0.420584    1.612378
     36          1           0        1.854840   -1.328813   -0.943217
     37          1           0        1.227160   -0.141208    0.193979
     38          1           0        1.188168   -1.888850    2.005305
     39          1           0        1.819414   -3.083202    0.861648
     40          1           0        0.205892   -2.392441    0.619362
 ---------------------------------------------------------------------

 SCF Done:  E(RHF) =  -470.733216935     A.U. after   11 cycles
 E2 =    -0.1582821145D+01 EUMP2 =    -0.47231603808053D+03

 The electronic state is 1-A.
 Alpha  occ. eigenvalues --  -11.21616 -11.21606 -11.21605 -11.21583 -11.21413
 Alpha  occ. eigenvalues --  -11.21407 -11.21353 -11.21347 -11.21087 -11.21078
 Alpha  occ. eigenvalues --  -11.21073 -11.21050  -1.08449  -1.08422  -1.03574
 Alpha  occ. eigenvalues --   -1.03503  -0.96024  -0.95952  -0.87006  -0.86998
 Alpha  occ. eigenvalues --   -0.79602  -0.79595  -0.78270  -0.78226  -0.65101
 Alpha  occ. eigenvalues --   -0.65048  -0.61027  -0.60916  -0.59515  -0.59194
 Alpha  occ. eigenvalues --   -0.57732  -0.57443  -0.55284  -0.55261  -0.52730
 Alpha  occ. eigenvalues --   -0.52624  -0.52415  -0.52397  -0.49933  -0.49916
 Alpha  occ. eigenvalues --   -0.47951  -0.47879  -0.46645  -0.46602  -0.45817
 Alpha  occ. eigenvalues --   -0.45769  -0.45734  -0.45666  -0.43793  -0.43773
 Alpha virt. eigenvalues --    0.21060   0.23110   0.23473   0.24805   0.26089
 Alpha virt. eigenvalues --    0.26747   0.27053   0.27217   0.27947   0.28903
 Alpha virt. eigenvalues --    0.31063   0.31397   0.31593   0.31775   0.32073

 Mulliken charges:
               1
     1  C   -0.298291
     2  C   -0.299674
     3  C   -0.475685
     4  H    0.149372
     5  H    0.149650
     6  H    0.151941
     7  H    0.152012
     8  H    0.155233
     9  H    0.155016
    10  H    0.160279
    11  C   -0.297738
    12  C   -0.307200
    13  C   -0.476583
    14  H    0.149541
    15  H    0.149650
    16  H    0.158725
    17  H    0.152153
    18  H    0.155578
    19  H    0.155530
    20  H    0.160528
    21  C   -0.298284
    22  C   -0.299663
    23  C   -0.475712
    24  H    0.149744
    25  H    0.149532
    26  H    0.151944
    27  H    0.151899
    28  H    0.155207
    29  H    0.155210
    30  H    0.160260
    31  C   -0.298311
    32  C   -0.299830
    33  C   -0.483304
    34  H    0.149694
    35  H    0.149551
    36  H    0.152385
    37  H    0.151688
    38  H    0.154650
    39  H    0.155419
    40  H    0.167882
 Sum of Mulliken charges =  -0.00000

 Dipole moment (field-independent basis, Debye):
    X=             -0.0056    Y=             -0.0063    Z=             -0.0091  Tot=              0.0124
 Quadrupole moment (field-independent basis, Debye-Ang):
   XX=            -84.7386   YY=            -86.1831   ZZ=            -83.8243
   XY=             -0.7600   XZ=              0.4987   YZ=              0.9293

 Normal termination of Gaussian 16 at Thu May  6 03:49:25 2021.
