 Gaussian 16, Revision A.03,
 Gaussian 16:  EM64L-G16RevA.03 25-Dec-2016

 -------------
 #p 6-31g* mp2
 -------------

 ------------------------------------------------------
 Input file generated by CHIRIPA (05-May-2021 14:53:13)
 ------------------------------------------------------
 Symbolic Z-matrix:
 Charge =  0 Multiplicity = 1

                         Standard orientation:
 ---------------------------------------------------------------------
 Center     Atomic      Atomic             Coordinates (Angstroms)
 Number     Number       Type             X           Y           Z
 ---------------------------------------------------------------------
      1          6           0        1.550933    1.708731    0.101841
      2          6           0        0.420751    2.040354   -0.873197
      3          6           0       -0.539667    3.097499   -0.327453
      4          1           0        1.118449    1.359087    1.049286
      5          1           0        2.107994    2.627312    0.332679
      6          1           0       -0.133157    1.121170   -1.103202
      7          1           0        0.855979    2.389067   -1.818497
      8          1           0       -0.006224    4.029660   -0.115048
      9          1           0       -1.000980    2.754558    0.604311
     10          1           0       -1.339756    3.319391   -1.040531
     11          6           0        2.519334    0.653469   -0.429525
     12          6           0        3.649516    0.321846    0.545513
     13          6           0        4.609934   -0.735299   -0.000231
     14          1           0        1.962272   -0.265113   -0.660362
     15          1           0        2.951818    1.003113   -1.376970
     16          1           0        3.214288   -0.026868    1.490813
     17          1           0        4.203424    1.241030    0.775519
     18          1           0        5.071247   -0.392359   -0.931994
     19          1           0        4.076491   -1.667460   -0.212635
     20          1           0        5.410023   -0.957191    0.712848
     21          6           0        0.315414   -2.556194   -0.131474
     22          6           0        0.182179   -1.817902    1.049074
     23          6           0       -0.869635   -0.910001    1.203830
     24          6           0       -1.774152   -0.764817    0.153086
     25          6           0       -1.668245   -1.485865   -1.035258
     26          6           0       -0.608594   -2.388116   -1.168044
     27          1           0        1.135533   -3.259278   -0.243158
     28          1           0        0.898287   -1.946373    1.855752
     29          1           0       -0.996463   -0.325618    2.107063
     30          1           0       -2.397784   -1.336088   -1.821870
     31          1           0       -0.507604   -2.960140   -2.085996
     32          7           0       -2.891809    0.193346    0.305290
     33          8           0       -3.675443    0.302923   -0.635212
     34          8           0       -2.963030    0.816634    1.362209
 ---------------------------------------------------------------------

 SCF Done:  E(RHF) =  -669.533034400     A.U. after   15 cycles
 E2 =    -0.2099475732D+01 EUMP2 =    -0.67163251013148D+03

 The electronic state is 1-A.
 Alpha  occ. eigenvalues --  -20.61006 -20.60988 -15.86013 -11.31368 -11.27944
 Alpha  occ. eigenvalues --  -11.27940 -11.27691 -11.26987 -11.26971 -11.22022
 Alpha  occ. eigenvalues --  -11.21666 -11.21409 -11.21331 -11.21259 -11.20409
 Alpha  occ. eigenvalues --   -1.60049  -1.39607  -1.19601  -1.08988  -1.08494
 Alpha  occ. eigenvalues --   -1.04984  -1.03579  -0.95994  -0.95808  -0.87015
 Alpha  occ. eigenvalues --   -0.86374  -0.82637  -0.79669  -0.78287  -0.77666
 Alpha  occ. eigenvalues --   -0.72247  -0.71415  -0.70684  -0.65279  -0.65223
 Alpha  occ. eigenvalues --   -0.64948  -0.62312  -0.61022  -0.59421  -0.57590
 Alpha  occ. eigenvalues --   -0.55480  -0.55369  -0.53302  -0.53066  -0.52658
 Alpha  occ. eigenvalues --   -0.52407  -0.49995  -0.49007  -0.49003  -0.47985
 Alpha  occ. eigenvalues --   -0.46835  -0.45854  -0.45599  -0.44838  -0.43774
 Alpha  occ. eigenvalues --   -0.37399  -0.36526
 Alpha virt. eigenvalues --    0.04773   0.10927   0.16132   0.19854   0.23354
 Alpha virt. eigenvalues --    0.23813   0.25350   0.26379   0.27972   0.28259
 Alpha virt. eigenvalues --    0.29218   0.29811   0.31327   0.31792   0.32297

 Mulliken charges:
               1
     1  C   -0.295635
     2  C   -0.306748
     3  C   -0.486826
     4  H    0.143215
     5  H    0.150122
     6  H    0.153235
     7  H    0.150442
     8  H    0.152655
     9  H    0.168117
    10  H    0.165905
    11  C   -0.304734
    12  C   -0.299180
    13  C   -0.473929
    14  H    0.155631
    15  H    0.148971
    16  H    0.143506
    17  H    0.155075
    18  H    0.158335
    19  H    0.145024
    20  H    0.160818
    21  C   -0.175036
    22  C   -0.214136
    23  C   -0.170896
    24  C    0.159359
    25  C   -0.173799
    26  C   -0.214598
    27  H    0.227767
    28  H    0.225931
    29  H    0.276136
    30  H    0.276583
    31  H    0.225103
    32  N    0.490820
    33  O   -0.458175
    34  O   -0.459058
 Sum of Mulliken charges =  -0.00000

 Dipole moment (field-independent basis, Debye):
    X=              3.6935    Y=             -3.4365    Z=             -0.5438  Tot=              5.0742
 Quadrupole moment (field-independent basis, Debye-Ang):
   XX=           -109.2639   YY=            -89.8888   ZZ=            -90.8067
   XY=              4.3691   XZ=              3.2062   YZ=              0.7742

 Normal termination of Gaussian 16 at Wed May  5 17:02:37 2021.
