 Gaussian 16, Revision A.03,
 Gaussian 16:  EM64L-G16RevA.03 25-Dec-2016

 -------------
 #p 6-31g* mp2
 -------------

 ------------------------------------------------------
 Input file generated by CHIRIPA (05-May-2021 14:55:24)
 ------------------------------------------------------
 Symbolic Z-matrix:
 Charge =  0 Multiplicity = 1

                         Standard orientation:
 ---------------------------------------------------------------------
 Center     Atomic      Atomic             Coordinates (Angstroms)
 Number     Number       Type             X           Y           Z
 ---------------------------------------------------------------------
      1          6           0        3.874587   -1.817664    0.757987
      2          6           0        4.186051   -0.634122    1.435291
      3          6           0        3.642350    0.585329    1.020712
      4          6           0        2.786958    0.584649   -0.080012
      5          6           0        2.457496   -0.577684   -0.775517
      6          6           0        3.012823   -1.785724   -0.343314
      7          1           0        4.301463   -2.760531    1.086887
      8          1           0        4.855012   -0.655922    2.290896
      9          1           0        3.866584    1.516463    1.526801
     10          1           0        1.787518   -0.524277   -1.625044
     11          1           0        2.769165   -2.703318   -0.871230
     12          7           0        2.205212    1.869587   -0.528238
     13          8           0        1.454248    1.842246   -1.500833
     14          8           0        2.511219    2.879733    0.101526
     15          6           0       -2.939117   -0.497059   -0.130593
     16          6           0       -2.417831   -1.898946   -0.448329
     17          6           0       -0.913903   -1.922234   -0.723013
     18          1           0       -2.707939    0.172285   -0.970522
     19          1           0       -2.399996   -0.101902    0.741528
     20          1           0       -2.958742   -2.291892   -1.318746
     21          1           0       -2.650447   -2.565076    0.392372
     22          1           0       -0.357897   -1.555101    0.145705
     23          1           0       -0.667945   -1.280365   -1.575134
     24          1           0       -0.562485   -2.934066   -0.947870
     25          6           0       -4.440945   -0.457504    0.146310
     26          6           0       -4.962231    0.944385    0.464047
     27          6           0       -6.466159    0.967672    0.738730
     28          1           0       -4.980067   -0.852660   -0.725811
     29          1           0       -4.672123   -1.126847    0.986239
     30          1           0       -4.729615    1.610514   -0.376655
     31          1           0       -4.421320    1.337329    1.334463
     32          1           0       -6.712117    0.325802    1.590851
     33          1           0       -7.022165    0.600539   -0.129989
     34          1           0       -6.817577    1.979504    0.963588
 ---------------------------------------------------------------------

 SCF Done:  E(RHF) =  -669.535242056     A.U. after   15 cycles
 E2 =    -0.2091920909D+01 EUMP2 =    -0.67162716296488D+03

 The electronic state is 1-A.
 Alpha  occ. eigenvalues --  -20.60738 -20.60733 -15.85790 -11.31124 -11.27716
 Alpha  occ. eigenvalues --  -11.27673 -11.27456 -11.26720 -11.26693 -11.21662
 Alpha  occ. eigenvalues --  -11.21345 -11.21344 -11.21229 -11.21170 -11.20857
 Alpha  occ. eigenvalues --   -1.59812  -1.39366  -1.19313  -1.08711  -1.08307
 Alpha  occ. eigenvalues --   -1.04714  -1.03471  -0.95952  -0.95542  -0.86984
 Alpha  occ. eigenvalues --   -0.86105  -0.82378  -0.79552  -0.78089  -0.77415
 Alpha  occ. eigenvalues --   -0.72010  -0.71135  -0.70424  -0.64964  -0.64936
 Alpha  occ. eigenvalues --   -0.64713  -0.62069  -0.60867  -0.59322  -0.57541
 Alpha  occ. eigenvalues --   -0.55280  -0.55178  -0.53168  -0.52845  -0.52638
 Alpha  occ. eigenvalues --   -0.52229  -0.49875  -0.48765  -0.48765  -0.47844
 Alpha  occ. eigenvalues --   -0.46548  -0.45640  -0.45542  -0.44772  -0.43717
 Alpha  occ. eigenvalues --   -0.37302  -0.36258
 Alpha virt. eigenvalues --    0.05091   0.11336   0.16555   0.20976   0.23001
 Alpha virt. eigenvalues --    0.24252   0.25907   0.26894   0.27380   0.28085
 Alpha virt. eigenvalues --    0.29070   0.29641   0.31471   0.31859   0.32393

 Mulliken charges:
               1
     1  C   -0.171017
     2  C   -0.219038
     3  C   -0.171147
     4  C    0.156155
     5  C   -0.167211
     6  C   -0.219370
     7  H    0.225351
     8  H    0.223068
     9  H    0.275302
    10  H    0.278789
    11  H    0.224199
    12  N    0.488310
    13  O   -0.461153
    14  O   -0.460692
    15  C   -0.299584
    16  C   -0.299485
    17  C   -0.481940
    18  H    0.156687
    19  H    0.150421
    20  H    0.152041
    21  H    0.150947
    22  H    0.159265
    23  H    0.157396
    24  H    0.152741
    25  C   -0.298509
    26  C   -0.300023
    27  C   -0.475757
    28  H    0.148935
    29  H    0.147916
    30  H    0.155096
    31  H    0.152859
    32  H    0.153924
    33  H    0.154652
    34  H    0.160873
 Sum of Mulliken charges =  -0.00000

 Dipole moment (field-independent basis, Debye):
    X=              2.0123    Y=             -4.4520    Z=              1.5646  Tot=              5.1301
 Quadrupole moment (field-independent basis, Debye-Ang):
   XX=            -83.9584   YY=            -99.7384   ZZ=            -91.7824
   XY=            -10.3704   XZ=              6.8757   YZ=              3.0291

 Normal termination of Gaussian 16 at Thu May  6 15:58:54 2021.
