 Gaussian 16, Revision A.03,
 Gaussian 16:  EM64L-G16RevA.03 25-Dec-2016

 -------------
 #p 6-31g* mp2
 -------------

 ------------------------------------------------------
 Input file generated by CHIRIPA (05-May-2021 14:57:23)
 ------------------------------------------------------
 Symbolic Z-matrix:
 Charge =  0 Multiplicity = 1

                         Standard orientation:
 ---------------------------------------------------------------------
 Center     Atomic      Atomic             Coordinates (Angstroms)
 Number     Number       Type             X           Y           Z
 ---------------------------------------------------------------------
      1          6           0       -2.363487   -0.434501   -2.449082
      2          6           0       -2.333886   -1.530042   -1.579924
      3          6           0       -2.388866   -1.340048   -0.195934
      4          6           0       -2.473434   -0.034985    0.286716
      5          6           0       -2.504836    1.076889   -0.553547
      6          6           0       -2.448717    0.863180   -1.934027
      7          1           0       -2.320334   -0.591304   -3.522835
      8          1           0       -2.267727   -2.538961   -1.977100
      9          1           0       -2.367635   -2.170214    0.499617
     10          1           0       -2.571127    2.070788   -0.127886
     11          1           0       -2.471883    1.715874   -2.606650
     12          7           0       -2.532242    0.178706    1.750026
     13          8           0       -2.606458    1.338465    2.150136
     14          8           0       -2.503006   -0.817608    2.469151
     15          6           0        2.109634    2.553444   -0.317671
     16          6           0        3.355539    2.064403    0.088629
     17          6           0        3.563117    0.690458    0.242688
     18          6           0        2.497975   -0.169866   -0.019236
     19          6           0        1.245048    0.286683   -0.425470
     20          6           0        1.060215    1.664589   -0.572974
     21          1           0        1.957216    3.622296   -0.434802
     22          1           0        4.172342    2.752363    0.287600
     23          1           0        4.517419    0.284776    0.555972
     24          1           0        0.449901   -0.423730   -0.616448
     25          1           0        0.091555    2.041545   -0.888644
     26          7           0        2.705690   -1.626497    0.140390
     27          8           0        1.751189   -2.363658   -0.096586
     28          8           0        3.819066   -2.003462    0.499457
 ---------------------------------------------------------------------

 SCF Done:  E(RHF) =  -868.336792466     A.U. after   16 cycles
 E2 =    -0.2604473794D+01 EUMP2 =    -0.87094126626010D+03

 The electronic state is 1-A.
 Alpha  occ. eigenvalues --  -20.61210 -20.61176 -20.60755 -20.60729 -15.86259
 Alpha  occ. eigenvalues --  -15.85795 -11.31855 -11.31050 -11.28520 -11.28320
 Alpha  occ. eigenvalues --  -11.28183 -11.27628 -11.27567 -11.27540 -11.27362
 Alpha  occ. eigenvalues --  -11.27361 -11.26629 -11.26541  -1.60268  -1.59816
 Alpha  occ. eigenvalues --   -1.39813  -1.39375  -1.20103  -1.19217  -1.09394
 Alpha  occ. eigenvalues --   -1.08645  -1.05508  -1.04606  -0.96189  -0.95495
 Alpha  occ. eigenvalues --   -0.86837  -0.86029  -0.83003  -0.82338  -0.78027
 Alpha  occ. eigenvalues --   -0.77404  -0.72465  -0.72029  -0.71610  -0.71132
 Alpha  occ. eigenvalues --   -0.71092  -0.70355  -0.65686  -0.65416  -0.64883
 Alpha  occ. eigenvalues --   -0.64656  -0.62791  -0.62061  -0.55904  -0.55247
 Alpha  occ. eigenvalues --   -0.53600  -0.53507  -0.52939  -0.52747  -0.49248
 Alpha  occ. eigenvalues --   -0.49206  -0.48779  -0.48762  -0.45164  -0.44805
 Alpha  occ. eigenvalues --   -0.38152  -0.37221  -0.37064  -0.36115
 Alpha virt. eigenvalues --    0.04454   0.05131   0.10327   0.11595   0.15801
 Alpha virt. eigenvalues --    0.16675   0.20512   0.21999   0.26093   0.27644
 Alpha virt. eigenvalues --    0.28349   0.28586   0.30475   0.31541   0.32059

 Mulliken charges:
               1
     1  C   -0.172221
     2  C   -0.217469
     3  C   -0.173390
     4  C    0.160383
     5  C   -0.184982
     6  C   -0.223021
     7  H    0.230355
     8  H    0.233458
     9  H    0.285223
    10  H    0.275276
    11  H    0.224276
    12  N    0.488917
    13  O   -0.461621
    14  O   -0.453595
    15  C   -0.169722
    16  C   -0.218652
    17  C   -0.169904
    18  C    0.157620
    19  C   -0.178838
    20  C   -0.219967
    21  H    0.224329
    22  H    0.223088
    23  H    0.275251
    24  H    0.281449
    25  H    0.219833
    26  N    0.488411
    27  O   -0.464902
    28  O   -0.459586
 Sum of Mulliken charges =  -0.00000

 Dipole moment (field-independent basis, Debye):
    X=             -0.7693    Y=              4.0698    Z=             -5.6599  Tot=              7.0135
 Quadrupole moment (field-independent basis, Debye-Ang):
   XX=           -105.3826   YY=           -101.9232   ZZ=           -108.3136
   XY=             16.2828   XZ=             13.2367   YZ=             -0.3625

 Normal termination of Gaussian 16 at Thu May  6 09:45:24 2021.
