 Gaussian 16, Revision A.03,
 Gaussian 16:  EM64L-G16RevA.03 25-Dec-2016

 -------------
 #p 6-31g* mp2
 -------------

 ------------------------------------------------------
 Input file generated by CHIRIPA (05-May-2021 14:51:12)
 ------------------------------------------------------
 Symbolic Z-matrix:
 Charge =  0 Multiplicity = 1

                         Standard orientation:
 ---------------------------------------------------------------------
 Center     Atomic      Atomic             Coordinates (Angstroms)
 Number     Number       Type             X           Y           Z
 ---------------------------------------------------------------------
      1          6           0       -2.671348    0.274422    0.850949
      2          6           0       -1.223705   -0.165281    1.072258
      3          6           0       -0.449272    0.787374    1.983574
      4          1           0       -2.679102    1.284579    0.419130
      5          1           0       -3.178129    0.346238    1.823271
      6          1           0       -0.720196   -0.237585    0.099701
      7          1           0       -1.219392   -1.174585    1.503422
      8          1           0       -0.925883    0.852314    2.967050
      9          1           0       -0.423850    1.794638    1.555353
     10          1           0        0.583124    0.454073    2.128236
     11          6           0       -3.458490   -0.667899   -0.057988
     12          6           0       -4.906133   -0.228196   -0.279298
     13          6           0       -5.680565   -1.180851   -1.190613
     14          1           0       -2.951708   -0.739716   -1.030310
     15          1           0       -3.450736   -1.678056    0.373830
     16          1           0       -4.910445    0.781108   -0.710462
     17          1           0       -5.409642   -0.155892    0.693259
     18          1           0       -5.705988   -2.188116   -0.762393
     19          1           0       -5.203954   -1.245791   -2.174090
     20          1           0       -6.712962   -0.847550   -1.335276
     21          6           0        3.639394   -0.175549   -0.057642
     22          6           0        3.766769   -1.631656   -0.506547
     23          6           0        4.920518   -2.363188    0.180122
     24          1           0        4.582459    0.348901   -0.263861
     25          1           0        3.497024   -0.146038    1.031511
     26          1           0        3.907472   -1.658476   -1.594711
     27          1           0        2.823225   -2.152652   -0.299411
     28          1           0        4.782790   -2.366099    1.266227
     29          1           0        5.873197   -1.869115   -0.036431
     30          1           0        4.993331   -3.402409   -0.155407
     31          6           0        2.490444    0.569026   -0.735318
     32          6           0        2.363068    2.025133   -0.286413
     33          6           0        1.209320    2.756666   -0.973083
     34          1           0        2.632814    0.539516   -1.824472
     35          1           0        1.547379    0.044577   -0.529100
     36          1           0        3.306612    2.546129   -0.493549
     37          1           0        2.222365    2.051953    0.801749
     38          1           0        0.256641    2.262593   -0.756529
     39          1           0        1.347048    2.759577   -2.059188
     40          1           0        1.136507    3.795886   -0.637554
 ---------------------------------------------------------------------

 SCF Done:  E(RHF) =  -470.731959022     A.U. after   11 cycles
 E2 =    -0.1585073810D+01 EUMP2 =    -0.47231703283208D+03

 The electronic state is 1-A.
 Alpha  occ. eigenvalues --  -11.21679 -11.21625 -11.21589 -11.21520 -11.21458
 Alpha  occ. eigenvalues --  -11.21394 -11.21378 -11.21297 -11.21114 -11.21087
 Alpha  occ. eigenvalues --  -11.21063 -11.21058  -1.08514  -1.08381  -1.03650
 Alpha  occ. eigenvalues --   -1.03451  -0.96050  -0.95953  -0.87053  -0.86985
 Alpha  occ. eigenvalues --   -0.79697  -0.79541  -0.78354  -0.78162  -0.65405
 Alpha  occ. eigenvalues --   -0.64863  -0.61399  -0.60532  -0.59377  -0.59323
 Alpha  occ. eigenvalues --   -0.57677  -0.57558  -0.55509  -0.55038  -0.52744
 Alpha  occ. eigenvalues --   -0.52648  -0.52464  -0.52383  -0.50045  -0.49819
 Alpha  occ. eigenvalues --   -0.48050  -0.47835  -0.46858  -0.46522  -0.46012
 Alpha  occ. eigenvalues --   -0.45806  -0.45713  -0.45323  -0.43806  -0.43758
 Alpha virt. eigenvalues --    0.19901   0.22583   0.23785   0.25234   0.25642
 Alpha virt. eigenvalues --    0.25898   0.26631   0.27960   0.28194   0.29599
 Alpha virt. eigenvalues --    0.30966   0.31135   0.31649   0.31968   0.32506

 Mulliken charges:
               1
     1  C   -0.298689
     2  C   -0.306788
     3  C   -0.481402
     4  H    0.150067
     5  H    0.150025
     6  H    0.156490
     7  H    0.152495
     8  H    0.155812
     9  H    0.160379
    10  H    0.161744
    11  C   -0.298473
    12  C   -0.299736
    13  C   -0.475770
    14  H    0.149869
    15  H    0.149731
    16  H    0.152205
    17  H    0.151974
    18  H    0.155177
    19  H    0.155340
    20  H    0.160380
    21  C   -0.298625
    22  C   -0.299724
    23  C   -0.475678
    24  H    0.149810
    25  H    0.149131
    26  H    0.151925
    27  H    0.152060
    28  H    0.155085
    29  H    0.155184
    30  H    0.160224
    31  C   -0.306942
    32  C   -0.300896
    33  C   -0.480021
    34  H    0.149175
    35  H    0.158255
    36  H    0.151658
    37  H    0.155636
    38  H    0.157941
    39  H    0.155095
    40  H    0.159877
 Sum of Mulliken charges =  -0.00000

 Dipole moment (field-independent basis, Debye):
    X=             -0.0357    Y=             -0.0021    Z=              0.0177  Tot=              0.0399
 Quadrupole moment (field-independent basis, Debye-Ang):
   XX=            -85.4482   YY=            -85.2325   ZZ=            -84.1532
   XY=              0.4378   XZ=             -1.4520   YZ=             -0.7113

 Normal termination of Gaussian 16 at Wed May  5 18:18:30 2021.
