 Gaussian 16, Revision A.03,
 Gaussian 16:  EM64L-G16RevA.03 25-Dec-2016

 -------------
 #p 6-31g* mp2
 -------------

 ------------------------------------------------------
 Input file generated by CHIRIPA (05-May-2021 14:51:12)
 ------------------------------------------------------
 Symbolic Z-matrix:
 Charge =  0 Multiplicity = 1

                         Standard orientation:
 ---------------------------------------------------------------------
 Center     Atomic      Atomic             Coordinates (Angstroms)
 Number     Number       Type             X           Y           Z
 ---------------------------------------------------------------------
      1          6           0        2.871330   -0.039454   -0.337721
      2          6           0        2.158981   -1.244817   -0.952248
      3          6           0        3.120679   -2.374446   -1.322209
      4          1           0        3.623217    0.334440   -1.046110
      5          1           0        3.419477   -0.363609    0.557742
      6          1           0        1.611215   -0.918218   -1.845501
      7          1           0        1.408570   -1.615767   -0.242392
      8          1           0        3.658343   -2.728196   -0.436558
      9          1           0        3.862139   -2.026683   -2.048776
     10          1           0        2.590366   -3.226009   -1.759779
     11          6           0        1.923205    1.098115    0.037411
     12          6           0        2.635554    2.303478    0.651938
     13          6           0        1.673856    3.433106    1.021899
     14          1           0        1.375058    1.422270   -0.858052
     15          1           0        1.171318    0.724221    0.745800
     16          1           0        3.385965    2.674428   -0.057918
     17          1           0        3.183320    1.976878    1.545191
     18          1           0        0.932396    3.085344    1.748466
     19          1           0        1.136192    3.786856    0.136247
     20          1           0        2.204169    4.284670    1.459469
     21          6           0       -2.063014   -0.860052    0.752093
     22          6           0       -1.575646   -2.281602    0.469864
     23          6           0       -0.909205   -2.929954    1.683656
     24          1           0       -1.212422   -0.245377    1.077075
     25          1           0       -2.771242   -0.882673    1.591912
     26          1           0       -0.869603   -2.256490   -0.370070
     27          1           0       -2.427461   -2.892916    0.145332
     28          1           0       -1.608809   -2.984312    2.524014
     29          1           0       -0.042098   -2.344271    2.005683
     30          1           0       -0.568372   -3.945605    1.459722
     31          6           0       -2.731521   -0.198608   -0.451783
     32          6           0       -3.218889    1.222942   -0.169554
     33          6           0       -3.885330    1.871294   -1.383346
     34          1           0       -2.023293   -0.175988   -1.291602
     35          1           0       -3.582113   -0.813284   -0.776765
     36          1           0       -2.367074    1.834256    0.154978
     37          1           0       -3.924932    1.197830    0.670380
     38          1           0       -4.752436    1.285610   -1.705374
     39          1           0       -3.185726    1.925652   -2.223704
     40          1           0       -4.226163    2.886944   -1.159411
 ---------------------------------------------------------------------

 SCF Done:  E(RHF) =  -470.732936706     A.U. after   11 cycles
 E2 =    -0.1584607501D+01 EUMP2 =    -0.47231754420769D+03

 The electronic state is 1-A.
 Alpha  occ. eigenvalues --  -11.21671 -11.21638 -11.21557 -11.21544 -11.21488
 Alpha  occ. eigenvalues --  -11.21423 -11.21366 -11.21306 -11.21133 -11.21111
 Alpha  occ. eigenvalues --  -11.21106 -11.21044  -1.08523  -1.08383  -1.03611
 Alpha  occ. eigenvalues --   -1.03495  -0.96047  -0.95960  -0.87056  -0.86981
 Alpha  occ. eigenvalues --   -0.79707  -0.79534  -0.78338  -0.78207  -0.65321
 Alpha  occ. eigenvalues --   -0.64876  -0.61173  -0.60760  -0.59407  -0.59319
 Alpha  occ. eigenvalues --   -0.57660  -0.57572  -0.55397  -0.55193  -0.52729
 Alpha  occ. eigenvalues --   -0.52658  -0.52487  -0.52370  -0.50004  -0.49897
 Alpha  occ. eigenvalues --   -0.48111  -0.47825  -0.46797  -0.46493  -0.46155
 Alpha  occ. eigenvalues --   -0.45837  -0.45571  -0.45360  -0.43848  -0.43754
 Alpha virt. eigenvalues --    0.19619   0.22725   0.23654   0.24094   0.25669
 Alpha virt. eigenvalues --    0.26223   0.27166   0.27836   0.28083   0.30470
 Alpha virt. eigenvalues --    0.31090   0.31238   0.31655   0.31693   0.32326

 Mulliken charges:
               1
     1  C   -0.297578
     2  C   -0.308945
     3  C   -0.475403
     4  H    0.150045
     5  H    0.149595
     6  H    0.151099
     7  H    0.162277
     8  H    0.155461
     9  H    0.155332
    10  H    0.160397
    11  C   -0.304092
    12  C   -0.299366
    13  C   -0.476183
    14  H    0.149390
    15  H    0.153906
    16  H    0.152407
    17  H    0.152212
    18  H    0.155197
    19  H    0.155265
    20  H    0.160786
    21  C   -0.303103
    22  C   -0.305099
    23  C   -0.477008
    24  H    0.153978
    25  H    0.149318
    26  H    0.157095
    27  H    0.152440
    28  H    0.155682
    29  H    0.154074
    30  H    0.160582
    31  C   -0.298011
    32  C   -0.300331
    33  C   -0.475615
    34  H    0.150143
    35  H    0.149366
    36  H    0.152947
    37  H    0.151638
    38  H    0.155038
    39  H    0.154855
    40  H    0.160212
 Sum of Mulliken charges =  -0.00000

 Dipole moment (field-independent basis, Debye):
    X=              0.0325    Y=              0.0015    Z=             -0.0035  Tot=              0.0327
 Quadrupole moment (field-independent basis, Debye-Ang):
   XX=            -84.5401   YY=            -85.6228   ZZ=            -84.5719
   XY=              1.2157   XZ=             -0.5867   YZ=             -0.2756

 Normal termination of Gaussian 16 at Wed May  5 16:49:50 2021.
