 Gaussian 16, Revision A.03,
 Gaussian 16:  EM64L-G16RevA.03 25-Dec-2016

 -------------
 #p 6-31g* mp2
 -------------

 ------------------------------------------------------
 Input file generated by CHIRIPA (05-May-2021 14:55:22)
 ------------------------------------------------------
 Symbolic Z-matrix:
 Charge =  0 Multiplicity = 1

                         Standard orientation:
 ---------------------------------------------------------------------
 Center     Atomic      Atomic             Coordinates (Angstroms)
 Number     Number       Type             X           Y           Z
 ---------------------------------------------------------------------
      1          6           0       -1.292225    0.623431   -0.713152
      2          6           0       -2.369005    1.511617   -0.803661
      3          6           0       -3.664821    1.090758   -0.490153
      4          6           0       -3.848541   -0.231217   -0.087760
      5          6           0       -2.796138   -1.139921    0.012220
      6          6           0       -1.508846   -0.697175   -0.306217
      7          1           0       -0.288915    0.958866   -0.958607
      8          1           0       -2.203743    2.537792   -1.119410
      9          1           0       -4.516446    1.757376   -0.551572
     10          1           0       -2.992168   -2.156800    0.329944
     11          1           0       -0.674493   -1.389151   -0.235019
     12          7           0       -5.215851   -0.688347    0.246746
     13          8           0       -5.351293   -1.858128    0.598748
     14          8           0       -6.126217    0.131790    0.150596
     15          6           0        5.276933    0.013301   -0.191420
     16          6           0        5.842664   -1.347977    0.214607
     17          6           0        7.121514   -1.706454   -0.542912
     18          1           0        5.076973    0.012729   -1.271679
     19          1           0        6.037715    0.786218   -0.014773
     20          1           0        5.080552   -2.117912    0.038543
     21          1           0        6.041121   -1.344230    1.294058
     22          1           0        7.900626   -0.959733   -0.358538
     23          1           0        6.934599   -1.737812   -1.621188
     24          1           0        7.508760   -2.683397   -0.237167
     25          6           0        3.998437    0.385743    0.557221
     26          6           0        3.432705    1.747021    0.151195
     27          6           0        2.153856    2.105497    0.908712
     28          1           0        3.237655   -0.387174    0.380575
     29          1           0        4.198397    0.386315    1.637481
     30          1           0        3.234249    1.743273   -0.928258
     31          1           0        4.194819    2.516956    0.327258
     32          1           0        2.340771    2.136856    1.986990
     33          1           0        1.374744    1.358777    0.724340
     34          1           0        1.766610    3.082441    0.602968
 ---------------------------------------------------------------------

 SCF Done:  E(RHF) =  -669.535328866     A.U. after   15 cycles
 E2 =    -0.2091122688D+01 EUMP2 =    -0.67162645155444D+03

 The electronic state is 1-A.
 Alpha  occ. eigenvalues --  -20.60751 -20.60746 -15.85805 -11.31175 -11.27747
 Alpha  occ. eigenvalues --  -11.27740 -11.27457 -11.26768 -11.26747 -11.22555
 Alpha  occ. eigenvalues --  -11.22244 -11.22197 -11.22131 -11.22064 -11.21564
 Alpha  occ. eigenvalues --   -1.59827  -1.39380  -1.19348  -1.09218  -1.08742
 Alpha  occ. eigenvalues --   -1.04752  -1.04315  -0.96769  -0.95575  -0.87781
 Alpha  occ. eigenvalues --   -0.86149  -0.82410  -0.80378  -0.79003  -0.77455
 Alpha  occ. eigenvalues --   -0.72023  -0.71150  -0.70481  -0.65857  -0.65000
 Alpha  occ. eigenvalues --   -0.64757  -0.62100  -0.61727  -0.60142  -0.58362
 Alpha  occ. eigenvalues --   -0.56198  -0.55147  -0.53452  -0.53205  -0.53036
 Alpha  occ. eigenvalues --   -0.52843  -0.50687  -0.48784  -0.48778  -0.48681
 Alpha  occ. eigenvalues --   -0.47417  -0.46546  -0.46466  -0.44785  -0.44560
 Alpha  occ. eigenvalues --   -0.37308  -0.36356
 Alpha virt. eigenvalues --    0.05052   0.11277   0.16458   0.19668   0.22607
 Alpha virt. eigenvalues --    0.23773   0.25633   0.26423   0.26879   0.27615
 Alpha virt. eigenvalues --    0.29220   0.30259   0.30897   0.31284   0.31662

 Mulliken charges:
               1
     1  C   -0.171112
     2  C   -0.219704
     3  C   -0.170915
     4  C    0.158563
     5  C   -0.170677
     6  C   -0.220037
     7  H    0.229896
     8  H    0.223664
     9  H    0.275589
    10  H    0.275583
    11  H    0.222965
    12  N    0.488078
    13  O   -0.460473
    14  O   -0.460416
    15  C   -0.298756
    16  C   -0.299951
    17  C   -0.476108
    18  H    0.149361
    19  H    0.151696
    20  H    0.150931
    21  H    0.153420
    22  H    0.156326
    23  H    0.155465
    24  H    0.162012
    25  C   -0.297041
    26  C   -0.301457
    27  C   -0.479763
    28  H    0.143791
    29  H    0.152954
    30  H    0.148696
    31  H    0.156573
    32  H    0.161839
    33  H    0.148932
    34  H    0.160080
 Sum of Mulliken charges =  -0.00000

 Dipole moment (field-independent basis, Debye):
    X=              5.0009    Y=              1.6423    Z=             -1.1274  Tot=              5.3831
 Quadrupole moment (field-independent basis, Debye-Ang):
   XX=           -131.4401   YY=            -91.2891   ZZ=            -94.7884
   XY=             -8.5664   XZ=              5.6026   YZ=             -0.7398

 Normal termination of Gaussian 16 at Thu May  6 14:11:11 2021.
