 Gaussian 16, Revision A.03,
 Gaussian 16:  EM64L-G16RevA.03 25-Dec-2016

 -------------
 #p 6-31g* mp2
 -------------

 ------------------------------------------------------
 Input file generated by CHIRIPA (05-May-2021 14:51:14)
 ------------------------------------------------------
 Symbolic Z-matrix:
 Charge =  0 Multiplicity = 1

                         Standard orientation:
 ---------------------------------------------------------------------
 Center     Atomic      Atomic             Coordinates (Angstroms)
 Number     Number       Type             X           Y           Z
 ---------------------------------------------------------------------
      1          6           0       -3.762864   -0.200854   -0.160439
      2          6           0       -3.137103   -1.524033   -0.602713
      3          6           0       -4.119119   -2.694042   -0.535502
      4          1           0       -4.140390   -0.306054    0.865890
      5          1           0       -4.634731    0.014176   -0.793689
      6          1           0       -2.265853   -1.735813    0.030287
      7          1           0       -2.760851   -1.415612   -1.628040
      8          1           0       -4.983857   -2.508751   -1.180867
      9          1           0       -4.486047   -2.830772    0.486882
     10          1           0       -3.650989   -3.630003   -0.855957
     11          6           0       -2.793518    0.978254   -0.222111
     12          6           0       -3.419279    2.301433    0.220162
     13          6           0       -2.437263    3.471442    0.152952
     14          1           0       -1.921651    0.763224    0.411139
     15          1           0       -2.415992    1.083454   -1.248440
     16          1           0       -3.795531    2.193012    1.245489
     17          1           0       -4.290529    2.513213   -0.412838
     18          1           0       -2.070335    3.608172   -0.869432
     19          1           0       -1.572524    3.286151    0.798317
     20          1           0       -2.905393    4.407403    0.473407
     21          6           0        2.794968   -0.974136    0.276078
     22          6           0        1.459989   -0.572396    0.904109
     23          6           0        0.503945   -1.754408    1.067259
     24          1           0        2.608176   -1.434445   -0.703805
     25          1           0        3.267743   -1.746043    0.899005
     26          1           0        0.990520    0.199518    0.280921
     27          1           0        1.649993   -0.112816    1.882527
     28          1           0        0.948381   -2.523937    1.706715
     29          1           0        0.285161   -2.209828    0.096009
     30          1           0       -0.444088   -1.444709    1.518014
     31          6           0        3.761414    0.196736    0.106472
     32          6           0        5.096392   -0.205004   -0.521559
     33          6           0        6.052437    0.977009   -0.684708
     34          1           0        3.288639    0.968643   -0.516455
     35          1           0        3.948205    0.657044    1.086355
     36          1           0        4.906388   -0.664584   -1.499977
     37          1           0        5.565861   -0.976919    0.101629
     38          1           0        6.271221    1.432428    0.286541
     39          1           0        5.608002    1.746537   -1.324165
     40          1           0        7.000470    0.667309   -1.135463
 ---------------------------------------------------------------------

 SCF Done:  E(RHF) =  -470.732660904     A.U. after   11 cycles
 E2 =    -0.1583523358D+01 EUMP2 =    -0.47231618426105D+03

 The electronic state is 1-A.
 Alpha  occ. eigenvalues --  -11.21637 -11.21611 -11.21590 -11.21443 -11.21425
 Alpha  occ. eigenvalues --  -11.21373 -11.21364 -11.21306 -11.21119 -11.21077
 Alpha  occ. eigenvalues --  -11.21065 -11.20997  -1.08460  -1.08383  -1.03569
 Alpha  occ. eigenvalues --   -1.03472  -0.96018  -0.95938  -0.87057  -0.86937
 Alpha  occ. eigenvalues --   -0.79698  -0.79480  -0.78263  -0.78206  -0.65140
 Alpha  occ. eigenvalues --   -0.64990  -0.61013  -0.60851  -0.59428  -0.59262
 Alpha  occ. eigenvalues --   -0.57650  -0.57527  -0.55309  -0.55226  -0.52792
 Alpha  occ. eigenvalues --   -0.52599  -0.52436  -0.52355  -0.50032  -0.49826
 Alpha  occ. eigenvalues --   -0.47951  -0.47858  -0.46759  -0.46440  -0.45862
 Alpha  occ. eigenvalues --   -0.45729  -0.45702  -0.45583  -0.43773  -0.43714
 Alpha virt. eigenvalues --    0.20977   0.23097   0.24053   0.24139   0.26150
 Alpha virt. eigenvalues --    0.26550   0.27179   0.27459   0.27852   0.29584
 Alpha virt. eigenvalues --    0.30795   0.31082   0.31772   0.31875   0.32340

 Mulliken charges:
               1
     1  C   -0.297639
     2  C   -0.309432
     3  C   -0.474966
     4  H    0.148818
     5  H    0.149266
     6  H    0.164219
     7  H    0.150258
     8  H    0.154592
     9  H    0.154640
    10  H    0.159835
    11  C   -0.302951
    12  C   -0.299407
    13  C   -0.475871
    14  H    0.153824
    15  H    0.149150
    16  H    0.151830
    17  H    0.152052
    18  H    0.154896
    19  H    0.155376
    20  H    0.160270
    21  C   -0.298677
    22  C   -0.302040
    23  C   -0.479965
    24  H    0.150064
    25  H    0.149602
    26  H    0.154737
    27  H    0.151648
    28  H    0.155558
    29  H    0.158050
    30  H    0.161960
    31  C   -0.298440
    32  C   -0.299681
    33  C   -0.475727
    34  H    0.149866
    35  H    0.149631
    36  H    0.151985
    37  H    0.151915
    38  H    0.155192
    39  H    0.155281
    40  H    0.160279
 Sum of Mulliken charges =  -0.00000

 Dipole moment (field-independent basis, Debye):
    X=              0.0551    Y=             -0.0106    Z=              0.0136  Tot=              0.0578
 Quadrupole moment (field-independent basis, Debye-Ang):
   XX=            -85.7889   YY=            -86.2056   ZZ=            -83.0236
   XY=             -1.3346   XZ=              0.7071   YZ=             -0.2460

 Normal termination of Gaussian 16 at Wed May  5 23:15:59 2021.
