 Gaussian 16, Revision A.03,
 Gaussian 16:  EM64L-G16RevA.03 25-Dec-2016

 -------------
 #p 6-31g* mp2
 -------------

 ------------------------------------------------------
 Input file generated by CHIRIPA (05-May-2021 14:51:12)
 ------------------------------------------------------
 Symbolic Z-matrix:
 Charge =  0 Multiplicity = 1

                         Standard orientation:
 ---------------------------------------------------------------------
 Center     Atomic      Atomic             Coordinates (Angstroms)
 Number     Number       Type             X           Y           Z
 ---------------------------------------------------------------------
      1          6           0        4.272190    0.787090   -0.005901
      2          6           0        2.766661    0.756264   -0.271267
      3          6           0        2.117734    2.135914   -0.156136
      4          1           0        4.452906    1.196288    0.997514
      5          1           0        4.748474    1.477711   -0.715542
      6          1           0        2.293540    0.064853    0.437762
      7          1           0        2.589498    0.346913   -1.274094
      8          1           0        2.562760    2.832106   -0.874375
      9          1           0        2.265120    2.548444    0.847207
     10          1           0        1.041457    2.090749   -0.349652
     11          6           0        4.935188   -0.584680   -0.117301
     12          6           0        6.440716   -0.553854    0.148065
     13          6           0        7.089644   -1.933504    0.032933
     14          1           0        4.458904   -1.275301    0.592339
     15          1           0        4.754471   -0.993878   -1.120717
     16          1           0        6.617879   -0.144503    1.150891
     17          1           0        6.913838    0.137557   -0.560965
     18          1           0        6.942257   -2.346034   -0.970410
     19          1           0        6.644617   -2.629696    0.751173
     20          1           0        8.165921   -1.888339    0.226450
     21          6           0       -3.939092    0.094720   -0.259890
     22          6           0       -2.846479    0.422949    0.758171
     23          6           0       -1.522850    0.813088    0.099693
     24          1           0       -3.594614   -0.723555   -0.906964
     25          1           0       -4.095620    0.964664   -0.912648
     26          1           0       -2.693027   -0.446869    1.409697
     27          1           0       -3.193674    1.240410    1.403019
     28          1           0       -1.653925    1.694824   -0.535887
     29          1           0       -1.150434   -0.002042   -0.529172
     30          1           0       -0.755917    1.043603    0.845707
     31          6           0       -5.268285   -0.297131    0.383093
     32          6           0       -6.360899   -0.625358   -0.634968
     33          6           0       -7.684527   -1.015497    0.023509
     34          1           0       -5.111757   -1.167074    1.035851
     35          1           0       -5.612763    0.521146    1.030167
     36          1           0       -6.013704   -1.442819   -1.279816
     37          1           0       -6.514350    0.244459   -1.286494
     38          1           0       -8.056943   -0.200368    0.652375
     39          1           0       -7.553452   -1.897233    0.659090
     40          1           0       -8.451460   -1.246014   -0.722504
 ---------------------------------------------------------------------

 SCF Done:  E(RHF) =  -470.732854204     A.U. after   11 cycles
 E2 =    -0.1582586672D+01 EUMP2 =    -0.47231544087599D+03

 The electronic state is 1-A.
 Alpha  occ. eigenvalues --  -11.21617 -11.21609 -11.21570 -11.21513 -11.21416
 Alpha  occ. eigenvalues --  -11.21357 -11.21353 -11.21290 -11.21093 -11.21077
 Alpha  occ. eigenvalues --  -11.21048 -11.20880  -1.08445  -1.08370  -1.03562
 Alpha  occ. eigenvalues --   -1.03448  -0.96051  -0.95865  -0.87098  -0.86859
 Alpha  occ. eigenvalues --   -0.79638  -0.79507  -0.78257  -0.78185  -0.65073
 Alpha  occ. eigenvalues --   -0.65004  -0.60945  -0.60868  -0.59631  -0.59084
 Alpha  occ. eigenvalues --   -0.57639  -0.57480  -0.55291  -0.55199  -0.53043
 Alpha  occ. eigenvalues --   -0.52444  -0.52427  -0.52090  -0.49945  -0.49851
 Alpha  occ. eigenvalues --   -0.47931  -0.47834  -0.46646  -0.46561  -0.45797
 Alpha  occ. eigenvalues --   -0.45737  -0.45711  -0.45654  -0.43931  -0.43539
 Alpha virt. eigenvalues --    0.22234   0.22981   0.23548   0.24858   0.26599
 Alpha virt. eigenvalues --    0.26644   0.26860   0.27501   0.27662   0.28988
 Alpha virt. eigenvalues --    0.30273   0.31215   0.31410   0.31595   0.32141

 Mulliken charges:
               1
     1  C   -0.298114
     2  C   -0.299292
     3  C   -0.484534
     4  H    0.149350
     5  H    0.149434
     6  H    0.151782
     7  H    0.151517
     8  H    0.154021
     9  H    0.153320
    10  H    0.172641
    11  C   -0.298172
    12  C   -0.299586
    13  C   -0.475662
    14  H    0.149283
    15  H    0.149485
    16  H    0.151851
    17  H    0.151885
    18  H    0.155105
    19  H    0.155077
    20  H    0.160141
    21  C   -0.298597
    22  C   -0.300367
    23  C   -0.479378
    24  H    0.149668
    25  H    0.149573
    26  H    0.151948
    27  H    0.152140
    28  H    0.154805
    29  H    0.156391
    30  H    0.164160
    31  C   -0.298315
    32  C   -0.299625
    33  C   -0.475710
    34  H    0.149532
    35  H    0.149682
    36  H    0.151952
    37  H    0.151949
    38  H    0.155195
    39  H    0.155185
    40  H    0.160283
 Sum of Mulliken charges =  -0.00000

 Dipole moment (field-independent basis, Debye):
    X=             -0.0533    Y=             -0.0022    Z=             -0.0021  Tot=              0.0534
 Quadrupole moment (field-independent basis, Debye-Ang):
   XX=            -86.3414   YY=            -84.7914   ZZ=            -83.8995
   XY=             -0.0661   XZ=              0.1762   YZ=             -0.1164

 Normal termination of Gaussian 16 at Wed May  5 15:16:19 2021.
