 Gaussian 16, Revision A.03,
 Gaussian 16:  EM64L-G16RevA.03 25-Dec-2016

 -------------
 #p 6-31g* mp2
 -------------

 ------------------------------------------------------
 Input file generated by CHIRIPA (05-May-2021 14:53:17)
 ------------------------------------------------------
 Symbolic Z-matrix:
 Charge =  0 Multiplicity = 1

                         Standard orientation:
 ---------------------------------------------------------------------
 Center     Atomic      Atomic             Coordinates (Angstroms)
 Number     Number       Type             X           Y           Z
 ---------------------------------------------------------------------
      1          6           0       -3.205272    0.129266   -0.376766
      2          6           0       -2.728753   -1.318245   -0.251759
      3          6           0       -3.776586   -2.328142   -0.720748
      4          1           0       -4.126898    0.256942    0.207399
      5          1           0       -3.468433    0.332169   -1.424130
      6          1           0       -2.465257   -1.517946    0.794809
      7          1           0       -1.808049   -1.442442   -0.836135
      8          1           0       -4.033171   -2.157314   -1.771263
      9          1           0       -4.694113   -2.233247   -0.131053
     10          1           0       -3.415122   -3.356534   -0.622701
     11          6           0       -2.168723    1.150588    0.088205
     12          6           0       -2.645242    2.598099   -0.036802
     13          6           0       -1.597409    3.607996    0.432186
     14          1           0       -1.905562    0.947685    1.135569
     15          1           0       -1.247097    1.022912   -0.495960
     16          1           0       -3.565946    2.722296    0.547573
     17          1           0       -2.908738    2.797800   -1.083370
     18          1           0       -0.679882    3.513101   -0.157509
     19          1           0       -1.340824    3.437168    1.482702
     20          1           0       -1.958873    4.636388    0.334139
     21          6           0        3.628460    1.209676   -0.938253
     22          6           0        3.125989    0.154020   -1.706129
     23          6           0        2.277884   -0.799015   -1.134299
     24          6           0        1.951375   -0.665223    0.214323
     25          6           0        2.435832    0.375189    1.005610
     26          6           0        3.282387    1.316703    0.412784
     27          1           0        4.286687    1.945542   -1.390619
     28          1           0        3.393061    0.068388   -2.755597
     29          1           0        1.874621   -1.626298   -1.705615
     30          1           0        2.151773    0.434081    2.049287
     31          1           0        3.671118    2.135489    1.011553
     32          7           0        1.054344   -1.668060    0.830808
     33          8           0        0.781741   -1.527841    2.021044
     34          8           0        0.640840   -2.575313    0.112099
 ---------------------------------------------------------------------

 SCF Done:  E(RHF) =  -669.536373514     A.U. after   15 cycles
 E2 =    -0.2092736540D+01 EUMP2 =    -0.67162911005360D+03

 The electronic state is 1-A.
 Alpha  occ. eigenvalues --  -20.60909 -20.60903 -15.85916 -11.31269 -11.27833
 Alpha  occ. eigenvalues --  -11.27819 -11.27562 -11.26837 -11.26824 -11.21351
 Alpha  occ. eigenvalues --  -11.21002 -11.20942 -11.20690 -11.20435 -11.20112
 Alpha  occ. eigenvalues --   -1.59949  -1.39510  -1.19431  -1.08830  -1.07855
 Alpha  occ. eigenvalues --   -1.04828  -1.02913  -0.95672  -0.95420  -0.86448
 Alpha  occ. eigenvalues --   -0.86228  -0.82507  -0.79020  -0.77629  -0.77535
 Alpha  occ. eigenvalues --   -0.72150  -0.71240  -0.70538  -0.65087  -0.64831
 Alpha  occ. eigenvalues --   -0.64493  -0.62176  -0.60317  -0.58815  -0.56983
 Alpha  occ. eigenvalues --   -0.55332  -0.54738  -0.53158  -0.52920  -0.52114
 Alpha  occ. eigenvalues --   -0.51841  -0.49401  -0.48924  -0.48912  -0.47339
 Alpha  occ. eigenvalues --   -0.46084  -0.45394  -0.45066  -0.44517  -0.43176
 Alpha  occ. eigenvalues --   -0.37399  -0.36427
 Alpha virt. eigenvalues --    0.04947   0.11209   0.16411   0.21332   0.23301
 Alpha virt. eigenvalues --    0.24910   0.26933   0.27363   0.27578   0.28383
 Alpha virt. eigenvalues --    0.28507   0.30904   0.31931   0.32092   0.32532

 Mulliken charges:
               1
     1  C   -0.297984
     2  C   -0.303872
     3  C   -0.476274
     4  H    0.147906
     5  H    0.145021
     6  H    0.164083
     7  H    0.156626
     8  H    0.149091
     9  H    0.151431
    10  H    0.166037
    11  C   -0.300857
    12  C   -0.298452
    13  C   -0.475499
    14  H    0.154586
    15  H    0.144073
    16  H    0.152682
    17  H    0.150359
    18  H    0.151970
    19  H    0.154381
    20  H    0.158709
    21  C   -0.170813
    22  C   -0.218602
    23  C   -0.172270
    24  C    0.160191
    25  C   -0.170088
    26  C   -0.218445
    27  H    0.225956
    28  H    0.223673
    29  H    0.275579
    30  H    0.275804
    31  H    0.224036
    32  N    0.489295
    33  O   -0.460031
    34  O   -0.458302
 Sum of Mulliken charges =  -0.00000

 Dipole moment (field-independent basis, Debye):
    X=              3.3103    Y=              3.3669    Z=             -2.0622  Tot=              5.1524
 Quadrupole moment (field-independent basis, Debye-Ang):
   XX=            -83.8280   YY=            -99.7231   ZZ=            -91.2422
   XY=              4.8448   XZ=             -4.2155   YZ=              4.2664

 Normal termination of Gaussian 16 at Thu May  6 15:38:13 2021.
