 Gaussian 16, Revision A.03,
 Gaussian 16:  EM64L-G16RevA.03 25-Dec-2016

 -------------
 #p 6-31g* mp2
 -------------

 ------------------------------------------------------
 Input file generated by CHIRIPA (05-May-2021 14:55:19)
 ------------------------------------------------------
 Symbolic Z-matrix:
 Charge =  0 Multiplicity = 1

                         Standard orientation:
 ---------------------------------------------------------------------
 Center     Atomic      Atomic             Coordinates (Angstroms)
 Number     Number       Type             X           Y           Z
 ---------------------------------------------------------------------
      1          6           0        0.547897   -0.560959    0.285119
      2          6           0        1.070023    0.657539   -0.161165
      3          6           0        2.449101    0.823614   -0.319625
      4          6           0        3.280766   -0.254633   -0.021282
      5          6           0        2.790935   -1.481005    0.425222
      6          6           0        1.408502   -1.624467    0.576374
      7          1           0       -0.524707   -0.681187    0.405376
      8          1           0        0.404049    1.485198   -0.388112
      9          1           0        2.880116    1.756034   -0.663480
     10          1           0        3.479932   -2.287884    0.643505
     11          1           0        1.005822   -2.571911    0.923136
     12          7           0        4.742510   -0.090787   -0.185169
     13          8           0        5.453998   -1.056066    0.084383
     14          8           0        5.149059    0.999813   -0.580072
     15          6           0       -3.589770    1.003525   -0.288753
     16          6           0       -2.835981    1.827699    0.755529
     17          6           0       -2.239059    3.111115    0.177321
     18          1           0       -2.906687    0.753433   -1.112038
     19          1           0       -4.390441    1.618326   -0.722736
     20          1           0       -2.037850    1.211076    1.188401
     21          1           0       -3.520887    2.075696    1.576514
     22          1           0       -3.026024    3.749081   -0.237753
     23          1           0       -1.534560    2.879548   -0.628072
     24          1           0       -1.704706    3.684891    0.940935
     25          6           0       -4.192253   -0.282535    0.274089
     26          6           0       -4.946042   -1.106709   -0.770193
     27          6           0       -5.542963   -2.390124   -0.191986
     28          1           0       -3.391582   -0.897336    0.708072
     29          1           0       -4.875337   -0.032442    1.097373
     30          1           0       -4.261136   -1.354706   -1.591178
     31          1           0       -5.744173   -0.490086   -1.203065
     32          1           0       -6.247463   -2.158558    0.613408
     33          1           0       -4.755999   -3.028091    0.223090
     34          1           0       -6.077317   -2.963901   -0.955599
 ---------------------------------------------------------------------

 SCF Done:  E(RHF) =  -669.535064540     A.U. after   15 cycles
 E2 =    -0.2092580140D+01 EUMP2 =    -0.67162764467961D+03

 The electronic state is 1-A.
 Alpha  occ. eigenvalues --  -20.60737 -20.60732 -15.85790 -11.31156 -11.27722
 Alpha  occ. eigenvalues --  -11.27710 -11.27447 -11.26739 -11.26694 -11.22863
 Alpha  occ. eigenvalues --  -11.22568 -11.22517 -11.22465 -11.22323 -11.21845
 Alpha  occ. eigenvalues --   -1.59813  -1.39366  -1.19324  -1.09568  -1.08719
 Alpha  occ. eigenvalues --   -1.04738  -1.04594  -0.97052  -0.95558  -0.88064
 Alpha  occ. eigenvalues --   -0.86126  -0.82391  -0.80666  -0.79351  -0.77439
 Alpha  occ. eigenvalues --   -0.72009  -0.71136  -0.70474  -0.66276  -0.64972
 Alpha  occ. eigenvalues --   -0.64728  -0.62295  -0.61755  -0.60409  -0.58639
 Alpha  occ. eigenvalues --   -0.56407  -0.55212  -0.53710  -0.53462  -0.53056
 Alpha  occ. eigenvalues --   -0.52809  -0.50983  -0.48965  -0.48765  -0.48761
 Alpha  occ. eigenvalues --   -0.47720  -0.46873  -0.46822  -0.44859  -0.44772
 Alpha  occ. eigenvalues --   -0.37301  -0.36327
 Alpha virt. eigenvalues --    0.05083   0.11278   0.16546   0.17761   0.22117
 Alpha virt. eigenvalues --    0.23605   0.24531   0.25481   0.26719   0.28437
 Alpha virt. eigenvalues --    0.29480   0.30519   0.30886   0.31456   0.32036

 Mulliken charges:
               1
     1  C   -0.179013
     2  C   -0.226174
     3  C   -0.172827
     4  C    0.158773
     5  C   -0.170950
     6  C   -0.219451
     7  H    0.232306
     8  H    0.234343
     9  H    0.276091
    10  H    0.275425
    11  H    0.223375
    12  N    0.487993
    13  O   -0.460574
    14  O   -0.460388
    15  C   -0.300885
    16  C   -0.305607
    17  C   -0.480066
    18  H    0.146863
    19  H    0.155656
    20  H    0.146583
    21  H    0.159122
    22  H    0.162815
    23  H    0.148548
    24  H    0.165700
    25  C   -0.299706
    26  C   -0.300488
    27  C   -0.475966
    28  H    0.142181
    29  H    0.154369
    30  H    0.152316
    31  H    0.155302
    32  H    0.157186
    33  H    0.153607
    34  H    0.163542
 Sum of Mulliken charges =  -0.00000

 Dipole moment (field-independent basis, Debye):
    X=             -5.4490    Y=             -0.4891    Z=              0.5822  Tot=              5.5018
 Quadrupole moment (field-independent basis, Debye-Ang):
   XX=           -127.2085   YY=            -90.2784   ZZ=            -95.1297
   XY=             -2.5283   XZ=              2.2048   YZ=             -1.3216

 Normal termination of Gaussian 16 at Thu May  6 14:02:31 2021.
