 Gaussian 16, Revision A.03,
 Gaussian 16:  EM64L-G16RevA.03 25-Dec-2016

 -------------
 #p 6-31g* mp2
 -------------

 ------------------------------------------------------
 Input file generated by CHIRIPA (05-May-2021 14:57:21)
 ------------------------------------------------------
 Symbolic Z-matrix:
 Charge =  0 Multiplicity = 1

                         Standard orientation:
 ---------------------------------------------------------------------
 Center     Atomic      Atomic             Coordinates (Angstroms)
 Number     Number       Type             X           Y           Z
 ---------------------------------------------------------------------
      1          6           0        6.604317   -0.628147    0.194898
      2          6           0        5.717317   -1.580309   -0.318073
      3          6           0        4.363324   -1.273392   -0.482556
      4          6           0        3.928540    0.001117   -0.122169
      5          6           0        4.787644    0.971341    0.391538
      6          6           0        6.137473    0.642399    0.547445
      7          1           0        7.654514   -0.875123    0.319341
      8          1           0        6.077068   -2.567831   -0.592711
      9          1           0        3.654900   -1.991498   -0.877368
     10          1           0        4.399454    1.947339    0.656407
     11          1           0        6.824050    1.383855    0.946067
     12          7           0        2.497332    0.337694   -0.291760
     13          8           0        2.139253    1.467641    0.033260
     14          8           0        1.760731   -0.534815   -0.746493
     15          6           0       -1.955271    1.265743    0.228854
     16          6           0       -3.074088    1.908177   -0.311563
     17          6           0       -4.303157    1.246661   -0.391147
     18          6           0       -4.377992   -0.062757    0.081202
     19          6           0       -3.281305   -0.729771    0.624949
     20          6           0       -2.062263   -0.048863    0.694564
     21          1           0       -1.004396    1.787156    0.286805
     22          1           0       -2.993935    2.929084   -0.674011
     23          1           0       -5.185205    1.720240   -0.804828
     24          1           0       -3.392161   -1.747809    0.978118
     25          1           0       -1.195041   -0.550277    1.114750
     26          7           0       -5.673846   -0.773339    0.002227
     27          8           0       -5.713641   -1.926645    0.425237
     28          8           0       -6.625203   -0.163532   -0.481190
 ---------------------------------------------------------------------

 SCF Done:  E(RHF) =  -868.341248362     A.U. after   16 cycles
 E2 =    -0.2598404279D+01 EUMP2 =    -0.87093965264073D+03

 The electronic state is 1-A.
 Alpha  occ. eigenvalues --  -20.62047 -20.62041 -20.59816 -20.59810 -15.87035
 Alpha  occ. eigenvalues --  -15.84861 -11.32040 -11.29941 -11.28567 -11.28551
 Alpha  occ. eigenvalues --  -11.28231 -11.27491 -11.27477 -11.26527 -11.26472
 Alpha  occ. eigenvalues --  -11.25921 -11.25408 -11.25280  -1.61096  -1.58898
 Alpha  occ. eigenvalues --   -1.40654  -1.38460  -1.20176  -1.18067  -1.09640
 Alpha  occ. eigenvalues --   -1.07460  -1.05520  -1.03442  -0.96533  -0.94352
 Alpha  occ. eigenvalues --   -0.86935  -0.84819  -0.83377  -0.81218  -0.78464
 Alpha  occ. eigenvalues --   -0.76348  -0.73265  -0.72385  -0.71274  -0.71085
 Alpha  occ. eigenvalues --   -0.70220  -0.69040  -0.65829  -0.65516  -0.63693
 Alpha  occ. eigenvalues --   -0.63414  -0.62869  -0.60813  -0.56033  -0.53871
 Alpha  occ. eigenvalues --   -0.53766  -0.53600  -0.51775  -0.51513  -0.50034
 Alpha  occ. eigenvalues --   -0.49989  -0.47856  -0.47811  -0.46133  -0.43932
 Alpha  occ. eigenvalues --   -0.38132  -0.37106  -0.35943  -0.35066
 Alpha virt. eigenvalues --    0.04030   0.06195   0.10555   0.12615   0.15604
 Alpha virt. eigenvalues --    0.17795   0.20738   0.22948   0.26680   0.27600
 Alpha virt. eigenvalues --    0.28606   0.29889   0.30423   0.31759   0.32675

 Mulliken charges:
               1
     1  C   -0.169389
     2  C   -0.218558
     3  C   -0.170417
     4  C    0.157233
     5  C   -0.170410
     6  C   -0.218534
     7  H    0.228631
     8  H    0.226400
     9  H    0.276832
    10  H    0.275417
    11  H    0.225841
    12  N    0.489140
    13  O   -0.467533
    14  O   -0.459906
    15  C   -0.173643
    16  C   -0.221009
    17  C   -0.172550
    18  C    0.156659
    19  C   -0.173494
    20  C   -0.216269
    21  H    0.246139
    22  H    0.219911
    23  H    0.270901
    24  H    0.270893
    25  H    0.227527
    26  N    0.488392
    27  O   -0.464017
    28  O   -0.464189
 Sum of Mulliken charges =  -0.00000

 Dipole moment (field-independent basis, Debye):
    X=             10.4009    Y=              1.3028    Z=              0.8675  Tot=             10.5181
 Quadrupole moment (field-independent basis, Debye-Ang):
   XX=           -105.8004   YY=            -98.0455   ZZ=           -104.9579
   XY=            -17.4153   XZ=              2.3047   YZ=              0.4254

 Normal termination of Gaussian 16 at Thu May  6 11:09:32 2021.
