 Gaussian 16, Revision A.03,
 Gaussian 16:  EM64L-G16RevA.03 25-Dec-2016

 -------------
 #p 6-31g* mp2
 -------------

 ------------------------------------------------------
 Input file generated by CHIRIPA (05-May-2021 14:51:11)
 ------------------------------------------------------
 Symbolic Z-matrix:
 Charge =  0 Multiplicity = 1

                         Standard orientation:
 ---------------------------------------------------------------------
 Center     Atomic      Atomic             Coordinates (Angstroms)
 Number     Number       Type             X           Y           Z
 ---------------------------------------------------------------------
      1          6           0       -2.791813    0.642476   -0.678545
      2          6           0       -3.217497    1.997287   -0.111741
      3          6           0       -2.426542    3.162260   -0.707578
      4          1           0       -1.719688    0.493928   -0.490329
      5          1           0       -2.919035    0.653108   -1.769918
      6          1           0       -3.090816    1.983628    0.978388
      7          1           0       -4.288776    2.142543   -0.301159
      8          1           0       -2.561608    3.204316   -1.793206
      9          1           0       -1.356843    3.044498   -0.506389
     10          1           0       -2.747036    4.121144   -0.288430
     11          6           0       -3.573479   -0.531993   -0.092584
     12          6           0       -3.147795   -1.886804   -0.659388
     13          6           0       -3.938750   -3.051777   -0.063551
     14          1           0       -3.446257   -0.542625    0.998789
     15          1           0       -4.645605   -0.383445   -0.280800
     16          1           0       -2.076517   -2.032060   -0.469970
     17          1           0       -3.274476   -1.873145   -1.749517
     18          1           0       -5.008450   -2.934015   -0.264739
     19          1           0       -3.803684   -3.093833    1.022077
     20          1           0       -3.618256   -4.010661   -0.482699
     21          6           0        2.588282    0.370812    0.606113
     22          6           0        1.708646   -0.311746    1.654132
     23          6           0        0.523747    0.553056    2.085324
     24          1           0        2.955978    1.324083    1.009867
     25          1           0        1.975472    0.618718   -0.271611
     26          1           0        2.323234   -0.559536    2.529059
     27          1           0        1.343156   -1.263594    1.247907
     28          1           0       -0.113176    0.789532    1.226831
     29          1           0        0.872470    1.497591    2.515263
     30          1           0       -0.091710    0.045863    2.834875
     31          6           0        3.777011   -0.481294    0.165015
     32          6           0        4.656645    0.201263   -0.883003
     33          6           0        5.841544   -0.663539   -1.314195
     34          1           0        4.389820   -0.729200    1.042741
     35          1           0        3.409315   -1.434566   -0.238739
     36          1           0        5.022136    1.153112   -0.476778
     37          1           0        4.042059    0.449053   -1.757931
     38          1           0        5.492822   -1.608073   -1.744134
     39          1           0        6.478468   -0.900015   -0.455702
     40          1           0        6.457003   -0.156345   -2.063746
 ---------------------------------------------------------------------

 SCF Done:  E(RHF) =  -470.733327594     A.U. after   11 cycles
 E2 =    -0.1583054647D+01 EUMP2 =    -0.47231638224114D+03

 The electronic state is 1-A.
 Alpha  occ. eigenvalues --  -11.21669 -11.21620 -11.21611 -11.21583 -11.21448
 Alpha  occ. eigenvalues --  -11.21403 -11.21386 -11.21343 -11.21140 -11.21084
 Alpha  occ. eigenvalues --  -11.21077 -11.21056  -1.08478  -1.08427  -1.03580
 Alpha  occ. eigenvalues --   -1.03522  -0.96031  -0.95971  -0.87053  -0.86984
 Alpha  occ. eigenvalues --   -0.79647  -0.79580  -0.78299  -0.78234  -0.65222
 Alpha  occ. eigenvalues --   -0.64975  -0.61050  -0.60853  -0.59398  -0.59339
 Alpha  occ. eigenvalues --   -0.57636  -0.57583  -0.55415  -0.55170  -0.52718
 Alpha  occ. eigenvalues --   -0.52668  -0.52464  -0.52392  -0.50077  -0.49824
 Alpha  occ. eigenvalues --   -0.48012  -0.47868  -0.46767  -0.46561  -0.45921
 Alpha  occ. eigenvalues --   -0.45784  -0.45740  -0.45516  -0.43828  -0.43782
 Alpha virt. eigenvalues --    0.19936   0.23115   0.23843   0.24544   0.26055
 Alpha virt. eigenvalues --    0.26710   0.27263   0.27845   0.28005   0.29297
 Alpha virt. eigenvalues --    0.30538   0.31641   0.31707   0.31743   0.32020

 Mulliken charges:
               1
     1  C   -0.303046
     2  C   -0.300255
     3  C   -0.476667
     4  H    0.152932
     5  H    0.149679
     6  H    0.153429
     7  H    0.152047
     8  H    0.154954
     9  H    0.155742
    10  H    0.160458
    11  C   -0.298272
    12  C   -0.299659
    13  C   -0.475715
    14  H    0.150319
    15  H    0.149731
    16  H    0.151505
    17  H    0.151824
    18  H    0.155245
    19  H    0.155309
    20  H    0.160156
    21  C   -0.298555
    22  C   -0.299497
    23  C   -0.483659
    24  H    0.149939
    25  H    0.149210
    26  H    0.152451
    27  H    0.151662
    28  H    0.162120
    29  H    0.155867
    30  H    0.160164
    31  C   -0.298339
    32  C   -0.299755
    33  C   -0.475749
    34  H    0.149656
    35  H    0.149779
    36  H    0.152007
    37  H    0.152175
    38  H    0.155248
    39  H    0.155186
    40  H    0.160376
 Sum of Mulliken charges =  -0.00000

 Dipole moment (field-independent basis, Debye):
    X=              0.0076    Y=              0.0056    Z=              0.0106  Tot=              0.0142
 Quadrupole moment (field-independent basis, Debye-Ang):
   XX=            -84.9332   YY=            -85.7670   ZZ=            -83.9619
   XY=              0.1626   XZ=              1.4633   YZ=              0.3669

 Normal termination of Gaussian 16 at Wed May  5 23:05:54 2021.
