 Gaussian 16, Revision A.03,
 Gaussian 16:  EM64L-G16RevA.03 25-Dec-2016

 -------------
 #p 6-31g* mp2
 -------------

 ------------------------------------------------------
 Input file generated by CHIRIPA (05-May-2021 14:51:10)
 ------------------------------------------------------
 Symbolic Z-matrix:
 Charge =  0 Multiplicity = 1

                         Standard orientation:
 ---------------------------------------------------------------------
 Center     Atomic      Atomic             Coordinates (Angstroms)
 Number     Number       Type             X           Y           Z
 ---------------------------------------------------------------------
      1          6           0       -2.752517   -0.372837    0.976710
      2          6           0       -1.241011   -0.141894    0.975534
      3          6           0       -0.560785   -0.673555    2.237446
      4          1           0       -3.190002    0.109279    1.861648
      5          1           0       -2.951939   -1.448808    1.076273
      6          1           0       -1.044481    0.933191    0.874611
      7          1           0       -0.807098   -0.624453    0.090394
      8          1           0       -0.727495   -1.750698    2.340263
      9          1           0       -0.966227   -0.184204    3.128936
     10          1           0        0.519288   -0.497977    2.215644
     11          6           0       -3.446713    0.153226   -0.278311
     12          6           0       -4.958219   -0.077718   -0.277136
     13          6           0       -5.638445    0.453944   -1.539048
     14          1           0       -3.247291    1.229196   -0.377875
     15          1           0       -3.009228   -0.328891   -1.163250
     16          1           0       -5.392131    0.404841    0.608004
     17          1           0       -5.154748   -1.152802   -0.176213
     18          1           0       -5.233003   -0.035407   -2.430537
     19          1           0       -5.471734    1.531087   -1.641865
     20          1           0       -6.718518    0.278366   -1.517246
     21          6           0        3.078565   -0.594428   -0.054169
     22          6           0        3.196093   -1.696791   -1.107244
     23          6           0        3.152379   -3.100015   -0.501567
     24          1           0        3.891714   -0.705606    0.676155
     25          1           0        2.139554   -0.726035    0.501109
     26          1           0        4.133944   -1.562331   -1.661296
     27          1           0        2.382682   -1.582861   -1.835255
     28          1           0        2.211502   -3.258767    0.035230
     29          1           0        3.972714   -3.238121    0.210176
     30          1           0        3.237965   -3.872666   -1.271986
     31          6           0        3.120665    0.814040   -0.644230
     32          6           0        3.003137    1.916403    0.408846
     33          6           0        3.046851    3.319626   -0.196832
     34          1           0        4.059676    0.945646   -1.199508
     35          1           0        2.307516    0.925218   -1.374554
     36          1           0        3.816548    1.802473    1.136856
     37          1           0        2.065286    1.781942    0.962897
     38          1           0        2.226515    3.457732   -0.908574
     39          1           0        3.987727    3.478378   -0.733628
     40          1           0        2.961265    4.092277    0.573588
 ---------------------------------------------------------------------

 SCF Done:  E(RHF) =  -470.733245117     A.U. after   11 cycles
 E2 =    -0.1583374955D+01 EUMP2 =    -0.47231662007195D+03

 The electronic state is 1-A.
 Alpha  occ. eigenvalues --  -11.21698 -11.21640 -11.21593 -11.21592 -11.21465
 Alpha  occ. eigenvalues --  -11.21404 -11.21374 -11.21311 -11.21122 -11.21101
 Alpha  occ. eigenvalues --  -11.21065 -11.21065  -1.08497  -1.08409  -1.03592
 Alpha  occ. eigenvalues --   -1.03518  -0.96048  -0.95957  -0.87058  -0.86978
 Alpha  occ. eigenvalues --   -0.79655  -0.79579  -0.78314  -0.78227  -0.65143
 Alpha  occ. eigenvalues --   -0.65049  -0.61041  -0.60862  -0.59426  -0.59334
 Alpha  occ. eigenvalues --   -0.57729  -0.57517  -0.55334  -0.55231  -0.52782
 Alpha  occ. eigenvalues --   -0.52651  -0.52498  -0.52340  -0.49974  -0.49905
 Alpha  occ. eigenvalues --   -0.47992  -0.47889  -0.46709  -0.46592  -0.45855
 Alpha  occ. eigenvalues --   -0.45768  -0.45747  -0.45643  -0.43824  -0.43762
 Alpha virt. eigenvalues --    0.20048   0.23148   0.23724   0.24156   0.26228
 Alpha virt. eigenvalues --    0.26462   0.26890   0.27677   0.28009   0.29668
 Alpha virt. eigenvalues --    0.30094   0.31456   0.31600   0.31789   0.31962

 Mulliken charges:
               1
     1  C   -0.298245
     2  C   -0.301567
     3  C   -0.482170
     4  H    0.150101
     5  H    0.149857
     6  H    0.152448
     7  H    0.151984
     8  H    0.155311
     9  H    0.155979
    10  H    0.165727
    11  C   -0.298384
    12  C   -0.299722
    13  C   -0.475758
    14  H    0.149588
    15  H    0.149572
    16  H    0.152079
    17  H    0.152052
    18  H    0.155212
    19  H    0.155246
    20  H    0.160421
    21  C   -0.308297
    22  C   -0.299058
    23  C   -0.475868
    24  H    0.149170
    25  H    0.160054
    26  H    0.151948
    27  H    0.151461
    28  H    0.155184
    29  H    0.155280
    30  H    0.160090
    31  C   -0.297379
    32  C   -0.302617
    33  C   -0.475700
    34  H    0.149375
    35  H    0.149893
    36  H    0.151794
    37  H    0.154306
    38  H    0.155253
    39  H    0.155281
    40  H    0.160100
 Sum of Mulliken charges =  -0.00000

 Dipole moment (field-independent basis, Debye):
    X=             -0.0258    Y=              0.0001    Z=              0.0134  Tot=              0.0291
 Quadrupole moment (field-independent basis, Debye-Ang):
   XX=            -84.1236   YY=            -85.2519   ZZ=            -85.3691
   XY=              0.0758   XZ=             -0.4806   YZ=              1.0024

 Normal termination of Gaussian 16 at Wed May  5 19:47:47 2021.
