 Gaussian 16, Revision A.03,
 Gaussian 16:  EM64L-G16RevA.03 25-Dec-2016

 -------------
 #p 6-31g* mp2
 -------------

 ------------------------------------------------------
 Input file generated by CHIRIPA (05-May-2021 14:55:19)
 ------------------------------------------------------
 Symbolic Z-matrix:
 Charge =  0 Multiplicity = 1

                         Standard orientation:
 ---------------------------------------------------------------------
 Center     Atomic      Atomic             Coordinates (Angstroms)
 Number     Number       Type             X           Y           Z
 ---------------------------------------------------------------------
      1          6           0       -2.709275    2.230628   -0.700889
      2          6           0       -1.576573    1.442337   -0.472628
      3          6           0       -1.707773    0.094118   -0.126736
      4          6           0       -2.992576   -0.435610   -0.017365
      5          6           0       -4.140386    0.323939   -0.238516
      6          6           0       -3.985317    1.669902   -0.583311
      7          1           0       -2.598085    3.277081   -0.969160
      8          1           0       -0.584338    1.875128   -0.563222
      9          1           0       -0.847878   -0.538957    0.055508
     10          1           0       -5.116387   -0.135691   -0.140632
     11          1           0       -4.866771    2.279709   -0.760002
     12          7           0       -3.144106   -1.861714    0.348235
     13          8           0       -4.287085   -2.304595    0.438194
     14          8           0       -2.117027   -2.509611    0.537910
     15          6           0        3.761296    1.018493    0.141330
     16          6           0        2.436175    1.530567    0.706858
     17          6           0        2.376880    3.056421    0.784621
     18          1           0        4.586269    1.387564    0.765950
     19          1           0        3.913221    1.443792   -0.860385
     20          1           0        2.286132    1.103335    1.706646
     21          1           0        1.614245    1.160077    0.080930
     22          1           0        2.501226    3.497941   -0.209462
     23          1           0        3.176930    3.440877    1.425490
     24          1           0        1.421074    3.400824    1.191662
     25          6           0        3.835765   -0.505034    0.057378
     26          6           0        5.160885   -1.017107   -0.508150
     27          6           0        5.220180   -2.542962   -0.585911
     28          1           0        3.683839   -0.930332    1.059093
     29          1           0        3.010790   -0.874104   -0.567242
     30          1           0        5.982814   -0.646617    0.117778
     31          1           0        5.310929   -0.589875   -1.507938
     32          1           0        4.420129   -2.927417   -1.226782
     33          1           0        5.095833   -2.984482    0.408170
     34          1           0        6.175985   -2.887363   -0.992954
 ---------------------------------------------------------------------

 SCF Done:  E(RHF) =  -669.535469697     A.U. after   15 cycles
 E2 =    -0.2091460795D+01 EUMP2 =    -0.67162693049247D+03

 The electronic state is 1-A.
 Alpha  occ. eigenvalues --  -20.60725 -20.60719 -15.85777 -11.31135 -11.27708
 Alpha  occ. eigenvalues --  -11.27688 -11.27444 -11.26723 -11.26675 -11.22511
 Alpha  occ. eigenvalues --  -11.21973 -11.21965 -11.21855 -11.21749 -11.21166
 Alpha  occ. eigenvalues --   -1.59800  -1.39354  -1.19306  -1.08966  -1.08703
 Alpha  occ. eigenvalues --   -1.04711  -1.04063  -0.96488  -0.95540  -0.87504
 Alpha  occ. eigenvalues --   -0.86107  -0.82379  -0.80167  -0.78729  -0.77416
 Alpha  occ. eigenvalues --   -0.71996  -0.71123  -0.70417  -0.65637  -0.64957
 Alpha  occ. eigenvalues --   -0.64711  -0.62148  -0.61388  -0.59883  -0.58086
 Alpha  occ. eigenvalues --   -0.55766  -0.55206  -0.53208  -0.53039  -0.52909
 Alpha  occ. eigenvalues --   -0.52781  -0.50428  -0.48757  -0.48751  -0.48453
 Alpha  occ. eigenvalues --   -0.47200  -0.46270  -0.46159  -0.44761  -0.44300
 Alpha  occ. eigenvalues --   -0.37290  -0.36309
 Alpha virt. eigenvalues --    0.05111   0.11326   0.16592   0.19376   0.22839
 Alpha virt. eigenvalues --    0.23701   0.24911   0.26435   0.26753   0.28591
 Alpha virt. eigenvalues --    0.29338   0.30694   0.31063   0.31206   0.32078

 Mulliken charges:
               1
     1  C   -0.171381
     2  C   -0.224862
     3  C   -0.173181
     4  C    0.158768
     5  C   -0.171113
     6  C   -0.218550
     7  H    0.225746
     8  H    0.231712
     9  H    0.276093
    10  H    0.275394
    11  H    0.223166
    12  N    0.488159
    13  O   -0.460726
    14  O   -0.460433
    15  C   -0.297968
    16  C   -0.304223
    17  C   -0.478808
    18  H    0.152716
    19  H    0.149699
    20  H    0.158415
    21  H    0.141761
    22  H    0.154443
    23  H    0.161455
    24  H    0.158104
    25  C   -0.299366
    26  C   -0.300185
    27  C   -0.476326
    28  H    0.152851
    29  H    0.149060
    30  H    0.152455
    31  H    0.151685
    32  H    0.157238
    33  H    0.157212
    34  H    0.160991
 Sum of Mulliken charges =  -0.00000

 Dipole moment (field-independent basis, Debye):
    X=              0.7401    Y=              4.9954    Z=             -1.2271  Tot=              5.1969
 Quadrupole moment (field-independent basis, Debye-Ang):
   XX=            -92.1069   YY=           -100.8035   ZZ=            -94.6165
   XY=            -15.8237   XZ=              4.7644   YZ=              0.3521

 Normal termination of Gaussian 16 at Thu May  6 02:54:15 2021.
