 Gaussian 16, Revision A.03,
 Gaussian 16:  EM64L-G16RevA.03 25-Dec-2016

 -------------
 #p 6-31g* mp2
 -------------

 ------------------------------------------------------
 Input file generated by CHIRIPA (05-May-2021 14:51:09)
 ------------------------------------------------------
 Symbolic Z-matrix:
 Charge =  0 Multiplicity = 1

                         Standard orientation:
 ---------------------------------------------------------------------
 Center     Atomic      Atomic             Coordinates (Angstroms)
 Number     Number       Type             X           Y           Z
 ---------------------------------------------------------------------
      1          6           0        1.042371    1.826953    0.362181
      2          6           0       -0.034105    2.396394   -0.562439
      3          6           0       -1.096645    3.197609    0.190460
      4          1           0        0.566502    1.187703    1.118390
      5          1           0        1.521681    2.651987    0.907136
      6          1           0       -0.510296    1.570656   -1.106510
      7          1           0        0.444402    3.034210   -1.316652
      8          1           0       -0.640395    4.040275    0.719944
      9          1           0       -1.600518    2.568405    0.931280
     10          1           0       -1.856261    3.595465   -0.489653
     11          6           0        2.111710    1.023445   -0.375801
     12          6           0        3.188186    0.454004    0.548818
     13          6           0        4.250726   -0.347211   -0.204081
     14          1           0        1.632401    0.198411   -0.920757
     15          1           0        2.587579    1.662695   -1.132011
     16          1           0        2.709679   -0.183812    1.303032
     17          1           0        3.664378    1.279742    1.092889
     18          1           0        4.754600    0.281993   -0.944901
     19          1           0        3.794477   -1.189877   -0.733564
     20          1           0        5.010342   -0.745067    0.476032
     21          6           0       -1.003210   -1.761949   -0.368356
     22          6           0        0.067141   -2.343229    0.556006
     23          6           0        1.208507   -3.013584   -0.209308
     24          1           0       -1.406045   -2.563785   -1.002175
     25          1           0       -0.536581   -1.033004   -1.045328
     26          1           0       -0.401616   -3.069845    1.231960
     27          1           0        0.467340   -1.539953    1.187832
     28          1           0        1.702538   -2.295173   -0.871441
     29          1           0        0.828644   -3.833757   -0.827062
     30          1           0        1.962392   -3.422161    0.470827
     31          6           0       -2.150873   -1.088450    0.381976
     32          6           0       -3.221223   -0.507168   -0.542386
     33          6           0       -4.362589    0.163185    0.222928
     34          1           0       -2.617501   -1.817395    1.058949
     35          1           0       -1.748037   -0.286613    1.015796
     36          1           0       -3.621421   -1.310445   -1.174211
     37          1           0       -2.752465    0.219446   -1.218339
     38          1           0       -3.982726    0.983359    0.840684
     39          1           0       -4.856619   -0.555226    0.885062
     40          1           0       -5.116473    0.571764   -0.457205
 ---------------------------------------------------------------------

 SCF Done:  E(RHF) =  -470.731069348     A.U. after   11 cycles
 E2 =    -0.1588451816D+01 EUMP2 =    -0.47231952116362D+03

 The electronic state is 1-A.
 Alpha  occ. eigenvalues --  -11.21674 -11.21668 -11.21631 -11.21610 -11.21469
 Alpha  occ. eigenvalues --  -11.21461 -11.21410 -11.21392 -11.21149 -11.21126
 Alpha  occ. eigenvalues --  -11.21077 -11.21019  -1.08639  -1.08360  -1.03692
 Alpha  occ. eigenvalues --   -1.03476  -0.96096  -0.95968  -0.87103  -0.86994
 Alpha  occ. eigenvalues --   -0.79754  -0.79555  -0.78551  -0.78093  -0.66071
 Alpha  occ. eigenvalues --   -0.64270  -0.61640  -0.60353  -0.59475  -0.59332
 Alpha  occ. eigenvalues --   -0.57712  -0.57578  -0.55654  -0.54988  -0.52740
 Alpha  occ. eigenvalues --   -0.52703  -0.52511  -0.52392  -0.50247  -0.49705
 Alpha  occ. eigenvalues --   -0.48133  -0.47786  -0.47128  -0.46724  -0.46208
 Alpha  occ. eigenvalues --   -0.46129  -0.45444  -0.44891  -0.43839  -0.43820
 Alpha virt. eigenvalues --    0.18380   0.20739   0.23727   0.24590   0.25251
 Alpha virt. eigenvalues --    0.25279   0.27199   0.28136   0.28792   0.29606
 Alpha virt. eigenvalues --    0.30292   0.31577   0.31706   0.32049   0.32447

 Mulliken charges:
               1
     1  C   -0.302003
     2  C   -0.306318
     3  C   -0.478504
     4  H    0.152215
     5  H    0.150375
     6  H    0.157446
     7  H    0.152704
     8  H    0.155724
     9  H    0.157083
    10  H    0.160945
    11  C   -0.305627
    12  C   -0.302270
    13  C   -0.479763
    14  H    0.155345
    15  H    0.150378
    16  H    0.154691
    17  H    0.152268
    18  H    0.154633
    19  H    0.160228
    20  H    0.160117
    21  C   -0.304295
    22  C   -0.305305
    23  C   -0.481172
    24  H    0.150492
    25  H    0.154069
    26  H    0.152962
    27  H    0.156429
    28  H    0.159892
    29  H    0.155743
    30  H    0.161079
    31  C   -0.302452
    32  C   -0.302713
    33  C   -0.477526
    34  H    0.150270
    35  H    0.152718
    36  H    0.152175
    37  H    0.155164
    38  H    0.157374
    39  H    0.155001
    40  H    0.160428
 Sum of Mulliken charges =  -0.00000

 Dipole moment (field-independent basis, Debye):
    X=             -0.0057    Y=             -0.0096    Z=             -0.0062  Tot=              0.0128
 Quadrupole moment (field-independent basis, Debye-Ang):
   XX=            -85.7525   YY=            -83.8478   ZZ=            -85.0745
   XY=              1.8178   XZ=              0.6300   YZ=             -0.5810

 Normal termination of Gaussian 16 at Thu May  6 02:10:13 2021.
