 Gaussian 16, Revision A.03,
 Gaussian 16:  EM64L-G16RevA.03 25-Dec-2016

 -------------
 #p 6-31g* mp2
 -------------

 ------------------------------------------------------
 Input file generated by CHIRIPA (05-May-2021 14:57:25)
 ------------------------------------------------------
 Symbolic Z-matrix:
 Charge =  0 Multiplicity = 1

                         Standard orientation:
 ---------------------------------------------------------------------
 Center     Atomic      Atomic             Coordinates (Angstroms)
 Number     Number       Type             X           Y           Z
 ---------------------------------------------------------------------
      1          6           0        2.328191   -2.179693   -1.450384
      2          6           0        1.303456   -1.231417   -1.535319
      3          6           0        1.423541    0.003380   -0.890801
      4          6           0        2.587252    0.257783   -0.166683
      5          6           0        3.625692   -0.666471   -0.063308
      6          6           0        3.484000   -1.894696   -0.715945
      7          1           0        2.226514   -3.136360   -1.954215
      8          1           0        0.404716   -1.450017   -2.104989
      9          1           0        0.645643    0.755624   -0.940006
     10          1           0        4.509762   -0.419764    0.511997
     11          1           0        4.281439   -2.629240   -0.648249
     12          7           0        2.725818    1.561528    0.519936
     13          8           0        3.761045    1.761346    1.151612
     14          8           0        1.796575    2.358900    0.413432
     15          6           0       -3.351859    1.696390   -1.369606
     16          6           0       -2.320557    1.997335   -0.473856
     17          6           0       -1.876190    1.041380    0.444422
     18          6           0       -2.488288   -0.211058    0.439310
     19          6           0       -3.517970   -0.541138   -0.440516
     20          6           0       -3.946227    0.430345   -1.350111
     21          1           0       -3.690796    2.445030   -2.079574
     22          1           0       -1.857121    2.979734   -0.486727
     23          1           0       -1.079705    1.247678    1.149028
     24          1           0       -3.960538   -1.529168   -0.403773
     25          1           0       -4.747350    0.193830   -2.044594
     26          7           0       -2.026385   -1.231306    1.406854
     27          8           0       -2.582028   -2.327339    1.382162
     28          8           0       -1.117448   -0.915624    2.171587
 ---------------------------------------------------------------------

 SCF Done:  E(RHF) =  -868.339391681     A.U. after   16 cycles
 E2 =    -0.2601717287D+01 EUMP2 =    -0.87094110896791D+03

 The electronic state is 1-A.
 Alpha  occ. eigenvalues --  -20.60959 -20.60957 -20.60924 -20.60884 -15.85994
 Alpha  occ. eigenvalues --  -15.85950 -11.31389 -11.31031 -11.28006 -11.27798
 Alpha  occ. eigenvalues --  -11.27680 -11.27579 -11.27576 -11.27297 -11.27005
 Alpha  occ. eigenvalues --  -11.26849 -11.26569 -11.26540  -1.60021  -1.59972
 Alpha  occ. eigenvalues --   -1.39570  -1.39545  -1.19578  -1.19187  -1.08951
 Alpha  occ. eigenvalues --   -1.08637  -1.04955  -1.04563  -0.95781  -0.95518
 Alpha  occ. eigenvalues --   -0.86335  -0.85984  -0.82582  -0.82381  -0.77670
 Alpha  occ. eigenvalues --   -0.77423  -0.72225  -0.72177  -0.71366  -0.71261
 Alpha  occ. eigenvalues --   -0.70635  -0.70312  -0.65189  -0.64904  -0.64857
 Alpha  occ. eigenvalues --   -0.64587  -0.62283  -0.61901  -0.55424  -0.55109
 Alpha  occ. eigenvalues --   -0.53383  -0.52978  -0.52866  -0.52599  -0.48982
 Alpha  occ. eigenvalues --   -0.48968  -0.48939  -0.48900  -0.45017  -0.44956
 Alpha  occ. eigenvalues --   -0.37601  -0.37142  -0.36614  -0.36059
 Alpha virt. eigenvalues --    0.04793   0.05074   0.10826   0.11742   0.16227
 Alpha virt. eigenvalues --    0.16595   0.21287   0.21770   0.27044   0.27572
 Alpha virt. eigenvalues --    0.28160   0.28793   0.30905   0.31419   0.32580

 Mulliken charges:
               1
     1  C   -0.167424
     2  C   -0.221110
     3  C   -0.172084
     4  C    0.161305
     5  C   -0.168346
     6  C   -0.217710
     7  H    0.226312
     8  H    0.222502
     9  H    0.273227
    10  H    0.275421
    11  H    0.223873
    12  N    0.490254
    13  O   -0.455882
    14  O   -0.473063
    15  C   -0.171912
    16  C   -0.225296
    17  C   -0.185657
    18  C    0.157990
    19  C   -0.174448
    20  C   -0.219832
    21  H    0.227341
    22  H    0.236239
    23  H    0.291119
    24  H    0.274816
    25  H    0.223451
    26  N    0.488053
    27  O   -0.462862
    28  O   -0.456278
 Sum of Mulliken charges =  -0.00000

 Dipole moment (field-independent basis, Debye):
    X=             -2.0049    Y=             -0.9920    Z=             -5.7052  Tot=              6.1281
 Quadrupole moment (field-independent basis, Debye-Ang):
   XX=            -93.0743   YY=           -106.9669   ZZ=           -107.0951
   XY=            -20.3711   XZ=              4.8897   YZ=              3.3999

 Normal termination of Gaussian 16 at Thu May  6 00:20:37 2021.
