 Gaussian 16, Revision A.03,
 Gaussian 16:  EM64L-G16RevA.03 25-Dec-2016

 -------------
 #p 6-31g* mp2
 -------------

 ------------------------------------------------------
 Input file generated by CHIRIPA (05-May-2021 14:51:08)
 ------------------------------------------------------
 Symbolic Z-matrix:
 Charge =  0 Multiplicity = 1

                         Standard orientation:
 ---------------------------------------------------------------------
 Center     Atomic      Atomic             Coordinates (Angstroms)
 Number     Number       Type             X           Y           Z
 ---------------------------------------------------------------------
      1          6           0       -2.526471   -0.174523    0.356379
      2          6           0       -1.962645   -0.027962    1.770099
      3          6           0       -0.436387   -0.110381    1.809312
      4          1           0       -2.198776   -1.134966   -0.064467
      5          1           0       -2.099429    0.609435   -0.284277
      6          1           0       -2.391683   -0.811116    2.408231
      7          1           0       -2.291879    0.932159    2.187700
      8          1           0        0.007983    0.680064    1.195853
      9          1           0       -0.092389   -1.073115    1.417637
     10          1           0       -0.054625   -0.003189    2.829424
     11          6           0       -4.051004   -0.094267    0.300846
     12          6           0       -4.614830   -0.240829   -1.112875
     13          6           0       -6.141088   -0.158410   -1.152087
     14          1           0       -4.478046   -0.878226    0.941501
     15          1           0       -4.378699    0.866175    0.721692
     16          1           0       -4.285596   -1.200950   -1.530476
     17          1           0       -4.185792    0.542325   -1.751007
     18          1           0       -6.485086    0.804324   -0.760412
     19          1           0       -6.585458   -0.948855   -0.538628
     20          1           0       -6.522850   -0.265602   -2.172199
     21          6           0        3.398627   -0.521032   -0.705138
     22          6           0        3.668297   -1.711500    0.215757
     23          6           0        3.886109   -3.015538   -0.552250
     24          1           0        2.516082   -0.736118   -1.323036
     25          1           0        4.243711   -0.403129   -1.397473
     26          1           0        2.823583   -1.826270    0.907062
     27          1           0        4.550188   -1.493475    0.831670
     28          1           0        4.741243   -2.925299   -1.229896
     29          1           0        3.004829   -3.259985   -1.154074
     30          1           0        4.077204   -3.853452    0.125425
     31          6           0        3.178848    0.789822    0.047914
     32          6           0        2.909178    1.980291   -0.872982
     33          6           0        2.691366    3.284329   -0.104974
     34          1           0        2.333764    0.671921    0.740248
     35          1           0        4.061392    1.004910    0.665811
     36          1           0        2.027287    1.762265   -1.488894
     37          1           0        3.753891    2.095062   -1.564288
     38          1           0        3.572646    3.528777    0.496850
     39          1           0        1.836232    3.194090    0.572672
     40          1           0        2.500270    4.122242   -0.782649
 ---------------------------------------------------------------------

 SCF Done:  E(RHF) =  -470.733111165     A.U. after   11 cycles
 E2 =    -0.1583166185D+01 EUMP2 =    -0.47231627734935D+03

 The electronic state is 1-A.
 Alpha  occ. eigenvalues --  -11.21686 -11.21642 -11.21555 -11.21533 -11.21470
 Alpha  occ. eigenvalues --  -11.21406 -11.21306 -11.21217 -11.21194 -11.21101
 Alpha  occ. eigenvalues --  -11.21061 -11.21030  -1.08497  -1.08354  -1.03602
 Alpha  occ. eigenvalues --   -1.03480  -0.96063  -0.95921  -0.87086  -0.86939
 Alpha  occ. eigenvalues --   -0.79684  -0.79534  -0.78323  -0.78142  -0.65143
 Alpha  occ. eigenvalues --   -0.64989  -0.61073  -0.60818  -0.59418  -0.59295
 Alpha  occ. eigenvalues --   -0.57675  -0.57529  -0.55379  -0.55194  -0.52761
 Alpha  occ. eigenvalues --   -0.52632  -0.52509  -0.52326  -0.50082  -0.49807
 Alpha  occ. eigenvalues --   -0.48034  -0.47850  -0.46775  -0.46493  -0.45961
 Alpha  occ. eigenvalues --   -0.45776  -0.45688  -0.45403  -0.43846  -0.43719
 Alpha virt. eigenvalues --    0.20679   0.22961   0.23418   0.24685   0.25563
 Alpha virt. eigenvalues --    0.26605   0.27200   0.27656   0.27859   0.29514
 Alpha virt. eigenvalues --    0.29633   0.31538   0.31726   0.31913   0.32225

 Mulliken charges:
               1
     1  C   -0.298469
     2  C   -0.300313
     3  C   -0.480369
     4  H    0.149589
     5  H    0.149440
     6  H    0.152367
     7  H    0.152420
     8  H    0.157755
     9  H    0.156319
    10  H    0.161350
    11  C   -0.298340
    12  C   -0.299717
    13  C   -0.475753
    14  H    0.149714
    15  H    0.149860
    16  H    0.151972
    17  H    0.152004
    18  H    0.155280
    19  H    0.155257
    20  H    0.160407
    21  C   -0.297386
    22  C   -0.301742
    23  C   -0.475618
    24  H    0.149363
    25  H    0.149017
    26  H    0.154022
    27  H    0.151770
    28  H    0.155111
    29  H    0.154788
    30  H    0.159944
    31  C   -0.307261
    32  C   -0.299630
    33  C   -0.476411
    34  H    0.160945
    35  H    0.148935
    36  H    0.151229
    37  H    0.151871
    38  H    0.155497
    39  H    0.154754
    40  H    0.160031
 Sum of Mulliken charges =  -0.00000

 Dipole moment (field-independent basis, Debye):
    X=             -0.0471    Y=             -0.0045    Z=              0.0323  Tot=              0.0573
 Quadrupole moment (field-independent basis, Debye-Ang):
   XX=            -85.0717   YY=            -84.8347   ZZ=            -84.9696
   XY=              0.4878   XZ=             -0.1353   YZ=             -0.5461

 Normal termination of Gaussian 16 at Wed May  5 18:07:17 2021.
