 Gaussian 16, Revision A.03,
 Gaussian 16:  EM64L-G16RevA.03 25-Dec-2016

 -------------
 #p 6-31g* mp2
 -------------

 ------------------------------------------------------
 Input file generated by CHIRIPA (05-May-2021 14:55:25)
 ------------------------------------------------------
 Symbolic Z-matrix:
 Charge =  0 Multiplicity = 1

                         Standard orientation:
 ---------------------------------------------------------------------
 Center     Atomic      Atomic             Coordinates (Angstroms)
 Number     Number       Type             X           Y           Z
 ---------------------------------------------------------------------
      1          6           0        4.514076    2.346547   -0.001399
      2          6           0        4.799072    1.415641   -1.005745
      3          6           0        4.180803    0.161732   -1.007802
      4          6           0        3.278643   -0.129286    0.014307
      5          6           0        2.973884    0.776900    1.028821
      6          6           0        3.603996    2.024773    1.010894
      7          1           0        4.998962    3.318269   -0.007563
      8          1           0        5.505429    1.662800   -1.793157
      9          1           0        4.383076   -0.577737   -1.773104
     10          1           0        2.265294    0.501699    1.800560
     11          1           0        3.380739    2.745757    1.792165
     12          7           0        2.617841   -1.453548    0.022708
     13          8           0        1.826802   -1.685603    0.934324
     14          8           0        2.903456   -2.234375   -0.882483
     15          6           0       -4.016381   -0.801224   -0.110291
     16          6           0       -2.593055   -0.888340    0.441564
     17          6           0       -1.966918   -2.269540    0.246548
     18          1           0       -4.640229   -1.560795    0.380434
     19          1           0       -4.003280   -1.051139   -1.180228
     20          1           0       -2.608635   -0.636989    1.509832
     21          1           0       -1.972569   -0.128347   -0.050394
     22          1           0       -1.922134   -2.525531   -0.816968
     23          1           0       -2.561814   -3.037063    0.752122
     24          1           0       -0.949618   -2.309507    0.648247
     25          6           0       -4.655752    0.573466    0.077209
     26          6           0       -6.079076    0.660581   -0.474645
     27          6           0       -6.705214    2.041781   -0.279629
     28          1           0       -4.668852    0.823380    1.147147
     29          1           0       -4.031903    1.333036   -0.413516
     30          1           0       -6.699563   -0.099412    0.017311
     31          1           0       -6.063496    0.409230   -1.542913
     32          1           0       -6.110317    2.809304   -0.785204
     33          1           0       -6.749998    2.297773    0.783886
     34          1           0       -7.722514    2.081748   -0.681328
 ---------------------------------------------------------------------

 SCF Done:  E(RHF) =  -669.536311894     A.U. after   15 cycles
 E2 =    -0.2090815531D+01 EUMP2 =    -0.67162712742499D+03

 The electronic state is 1-A.
 Alpha  occ. eigenvalues --  -20.60960 -20.60954 -15.85986 -11.31295 -11.27857
 Alpha  occ. eigenvalues --  -11.27852 -11.27594 -11.26862 -11.26852 -11.21265
 Alpha  occ. eigenvalues --  -11.20953 -11.20832 -11.20781 -11.20719 -11.19691
 Alpha  occ. eigenvalues --   -1.60013  -1.39571  -1.19462  -1.08869  -1.07867
 Alpha  occ. eigenvalues --   -1.04857  -1.02872  -0.95714  -0.95291  -0.86307
 Alpha  occ. eigenvalues --   -0.86255  -0.82547  -0.78970  -0.77664  -0.77601
 Alpha  occ. eigenvalues --   -0.72212  -0.71325  -0.70571  -0.65119  -0.64859
 Alpha  occ. eigenvalues --   -0.64511  -0.62203  -0.60287  -0.58697  -0.56880
 Alpha  occ. eigenvalues --   -0.55362  -0.54605  -0.53190  -0.52949  -0.51926
 Alpha  occ. eigenvalues --   -0.51719  -0.49268  -0.48967  -0.48951  -0.47258
 Alpha  occ. eigenvalues --   -0.46041  -0.45202  -0.45131  -0.44971  -0.43075
 Alpha  occ. eigenvalues --   -0.37440  -0.36457
 Alpha virt. eigenvalues --    0.04899   0.11198   0.16378   0.21325   0.23372
 Alpha virt. eigenvalues --    0.25046   0.27149   0.27252   0.27950   0.28196
 Alpha virt. eigenvalues --    0.28842   0.30883   0.32002   0.32238   0.32400

 Mulliken charges:
               1
     1  C   -0.170568
     2  C   -0.218614
     3  C   -0.170680
     4  C    0.157968
     5  C   -0.170655
     6  C   -0.218573
     7  H    0.226019
     8  H    0.223814
     9  H    0.275868
    10  H    0.276000
    11  H    0.223941
    12  N    0.489665
    13  O   -0.461190
    14  O   -0.458347
    15  C   -0.297270
    16  C   -0.297797
    17  C   -0.487529
    18  H    0.148884
    19  H    0.148700
    20  H    0.148387
    21  H    0.147246
    22  H    0.152179
    23  H    0.149602
    24  H    0.188654
    25  C   -0.297339
    26  C   -0.299123
    27  C   -0.475269
    28  H    0.147849
    29  H    0.147259
    30  H    0.151866
    31  H    0.151612
    32  H    0.153839
    33  H    0.154307
    34  H    0.159294
 Sum of Mulliken charges =  -0.00000

 Dipole moment (field-independent basis, Debye):
    X=              2.6342    Y=              4.6058    Z=             -0.0133  Tot=              5.3059
 Quadrupole moment (field-independent basis, Debye-Ang):
   XX=            -79.8703   YY=            -97.0056   ZZ=            -90.7520
   XY=             15.3118   XZ=             -2.8606   YZ=              0.9485

 Normal termination of Gaussian 16 at Thu May  6 09:33:50 2021.
