 Gaussian 16, Revision A.03,
 Gaussian 16:  EM64L-G16RevA.03 25-Dec-2016

 -------------
 #p 6-31g* mp2
 -------------

 ------------------------------------------------------
 Input file generated by CHIRIPA (05-May-2021 14:55:24)
 ------------------------------------------------------
 Symbolic Z-matrix:
 Charge =  0 Multiplicity = 1

                         Standard orientation:
 ---------------------------------------------------------------------
 Center     Atomic      Atomic             Coordinates (Angstroms)
 Number     Number       Type             X           Y           Z
 ---------------------------------------------------------------------
      1          6           0       -2.481492    2.357887    0.882201
      2          6           0       -3.641010    1.591638    0.724398
      3          6           0       -3.568987    0.291211    0.216215
      4          6           0       -2.315375   -0.213722   -0.125530
      5          6           0       -1.142090    0.524863    0.020019
      6          6           0       -1.237925    1.822997    0.530128
      7          1           0       -2.546690    3.367199    1.277718
      8          1           0       -4.608132    2.004452    0.996987
      9          1           0       -4.450739   -0.323919    0.083750
     10          1           0       -0.192258    0.086070   -0.260515
     11          1           0       -0.335761    2.415778    0.651599
     12          7           0       -2.226523   -1.589212   -0.664541
     13          8           0       -1.110064   -2.011028   -0.958186
     14          8           0       -3.275023   -2.219461   -0.783166
     15          6           0        3.329603   -0.659886    0.268540
     16          6           0        2.358542   -1.806839    0.550536
     17          6           0        3.068125   -3.086955    0.992791
     18          1           0        4.041486   -0.973011   -0.507425
     19          1           0        3.921032   -0.458798    1.172516
     20          1           0        1.768159   -2.004782   -0.353279
     21          1           0        1.648769   -1.490879    1.325784
     22          1           0        3.643209   -2.912175    1.907848
     23          1           0        3.763277   -3.428999    0.219246
     24          1           0        2.355198   -3.893846    1.189060
     25          6           0        2.635245    0.626668   -0.174602
     26          6           0        3.606306    1.773622   -0.456597
     27          6           0        2.896723    3.053738   -0.898852
     28          1           0        2.043816    0.425581   -1.078577
     29          1           0        1.923362    0.939794    0.601364
     30          1           0        4.316079    1.457662   -1.231845
     31          1           0        4.196689    1.971564    0.447218
     32          1           0        2.201571    3.395781   -0.125306
     33          1           0        2.321638    2.878958   -1.813909
     34          1           0        3.609650    3.860629   -1.095121
 ---------------------------------------------------------------------

 SCF Done:  E(RHF) =  -669.534934976     A.U. after   15 cycles
 E2 =    -0.2094279347D+01 EUMP2 =    -0.67162921432350D+03

 The electronic state is 1-A.
 Alpha  occ. eigenvalues --  -20.60754 -20.60749 -15.85794 -11.31062 -11.27667
 Alpha  occ. eigenvalues --  -11.27519 -11.27403 -11.26671 -11.26615 -11.22182
 Alpha  occ. eigenvalues --  -11.22052 -11.21820 -11.21520 -11.21253 -11.20716
 Alpha  occ. eigenvalues --   -1.59822  -1.39378  -1.19248  -1.08776  -1.08666
 Alpha  occ. eigenvalues --   -1.04639  -1.03713  -0.96240  -0.95511  -0.87248
 Alpha  occ. eigenvalues --   -0.86047  -0.82363  -0.79877  -0.78668  -0.77285
 Alpha  occ. eigenvalues --   -0.72020  -0.71138  -0.70364  -0.65427  -0.64894
 Alpha  occ. eigenvalues --   -0.64645  -0.62015  -0.61086  -0.59637  -0.57806
 Alpha  occ. eigenvalues --   -0.55553  -0.55165  -0.52988  -0.52957  -0.52748
 Alpha  occ. eigenvalues --   -0.52540  -0.50188  -0.48835  -0.48769  -0.48102
 Alpha  occ. eigenvalues --   -0.46923  -0.46011  -0.45837  -0.44781  -0.44006
 Alpha  occ. eigenvalues --   -0.37244  -0.36233
 Alpha virt. eigenvalues --    0.05094   0.11370   0.16564   0.19782   0.22979
 Alpha virt. eigenvalues --    0.23433   0.25376   0.25572   0.27193   0.28557
 Alpha virt. eigenvalues --    0.29831   0.30569   0.31571   0.31852   0.32721

 Mulliken charges:
               1
     1  C   -0.170845
     2  C   -0.219372
     3  C   -0.169999
     4  C    0.156487
     5  C   -0.180346
     6  C   -0.228946
     7  H    0.225369
     8  H    0.222917
     9  H    0.275005
    10  H    0.294454
    11  H    0.228397
    12  N    0.490569
    13  O   -0.464720
    14  O   -0.460393
    15  C   -0.296277
    16  C   -0.310780
    17  C   -0.475968
    18  H    0.152375
    19  H    0.148859
    20  H    0.175539
    21  H    0.147422
    22  H    0.151324
    23  H    0.154994
    24  H    0.166667
    25  C   -0.311927
    26  C   -0.298044
    27  C   -0.478264
    28  H    0.152799
    29  H    0.142561
    30  H    0.157051
    31  H    0.154075
    32  H    0.146472
    33  H    0.157970
    34  H    0.164576
 Sum of Mulliken charges =  -0.00000

 Dipole moment (field-independent basis, Debye):
    X=             -0.1625    Y=              4.6759    Z=              1.7770  Tot=              5.0048
 Quadrupole moment (field-independent basis, Debye-Ang):
   XX=            -88.1549   YY=            -98.0473   ZZ=            -95.2404
   XY=            -10.4540   XZ=             -5.4413   YZ=             -0.4206

 Normal termination of Gaussian 16 at Thu May  6 12:39:09 2021.
