 Gaussian 16, Revision A.03,
 Gaussian 16:  EM64L-G16RevA.03 25-Dec-2016

 -------------
 #p 6-31g* mp2
 -------------

 ------------------------------------------------------
 Input file generated by CHIRIPA (05-May-2021 14:57:24)
 ------------------------------------------------------
 Symbolic Z-matrix:
 Charge =  0 Multiplicity = 1

                         Standard orientation:
 ---------------------------------------------------------------------
 Center     Atomic      Atomic             Coordinates (Angstroms)
 Number     Number       Type             X           Y           Z
 ---------------------------------------------------------------------
      1          6           0       -4.851018    1.933481    0.297296
      2          6           0       -3.762600    1.940054   -0.581239
      3          6           0       -2.996223    0.786250   -0.770847
      4          6           0       -3.348051   -0.361709   -0.062541
      5          6           0       -4.426649   -0.399815    0.819765
      6          6           0       -5.178991    0.765626    0.993766
      7          1           0       -5.440907    2.834303    0.438526
      8          1           0       -3.505574    2.845582   -1.123458
      9          1           0       -2.148470    0.763493   -1.444801
     10          1           0       -4.658441   -1.317697    1.346248
     11          1           0       -6.023733    0.757603    1.676695
     12          7           0       -2.544152   -1.589350   -0.255009
     13          8           0       -2.874733   -2.587865    0.380852
     14          8           0       -1.598695   -1.529814   -1.038083
     15          6           0        3.434678   -2.363278    0.026518
     16          6           0        2.359966   -1.642715   -0.504806
     17          6           0        2.374604   -0.244744   -0.507699
     18          6           0        3.484978    0.403261    0.031236
     19          6           0        4.571029   -0.286512    0.567890
     20          6           0        4.534839   -1.684074    0.560230
     21          1           0        3.414936   -3.449097    0.024667
     22          1           0        1.504248   -2.167539   -0.919957
     23          1           0        1.556089    0.337923   -0.912607
     24          1           0        5.410158    0.264632    0.974731
     25          1           0        5.370888   -2.241071    0.973537
     26          7           0        3.511883    1.883014    0.033760
     27          8           0        4.501853    2.430289    0.514474
     28          8           0        2.542491    2.467550   -0.445025
 ---------------------------------------------------------------------

 SCF Done:  E(RHF) =  -868.340887089     A.U. after   16 cycles
 E2 =    -0.2598284862D+01 EUMP2 =    -0.87093917195178D+03

 The electronic state is 1-A.
 Alpha  occ. eigenvalues --  -20.61488 -20.61441 -20.60371 -20.60356 -15.86489
 Alpha  occ. eigenvalues --  -15.85406 -11.31508 -11.30513 -11.28036 -11.28028
 Alpha  occ. eigenvalues --  -11.27702 -11.27069 -11.26981 -11.26949 -11.26937
 Alpha  occ. eigenvalues --  -11.26673 -11.26062 -11.25763  -1.60520  -1.59443
 Alpha  occ. eigenvalues --   -1.40087  -1.39006  -1.19643  -1.18633  -1.09102
 Alpha  occ. eigenvalues --   -1.08076  -1.04992  -1.03966  -0.95997  -0.94963
 Alpha  occ. eigenvalues --   -0.86409  -0.85382  -0.82847  -0.81783  -0.77930
 Alpha  occ. eigenvalues --   -0.76867  -0.72731  -0.71813  -0.71636  -0.70760
 Alpha  occ. eigenvalues --   -0.70751  -0.69744  -0.65302  -0.64989  -0.64269
 Alpha  occ. eigenvalues --   -0.63923  -0.62346  -0.61296  -0.55506  -0.54487
 Alpha  occ. eigenvalues --   -0.53339  -0.53080  -0.52349  -0.52020  -0.49491
 Alpha  occ. eigenvalues --   -0.49439  -0.48403  -0.48359  -0.45565  -0.44469
 Alpha  occ. eigenvalues --   -0.37600  -0.36614  -0.36575  -0.35566
 Alpha virt. eigenvalues --    0.04561   0.05612   0.11078   0.12078   0.16120
 Alpha virt. eigenvalues --    0.17189   0.21018   0.22342   0.26495   0.27528
 Alpha virt. eigenvalues --    0.28722   0.29168   0.30973   0.31772   0.32122

 Mulliken charges:
               1
     1  C   -0.169631
     2  C   -0.217635
     3  C   -0.169841
     4  C    0.157882
     5  C   -0.170564
     6  C   -0.218482
     7  H    0.227927
     8  H    0.228041
     9  H    0.274303
    10  H    0.275302
    11  H    0.224584
    12  N    0.491001
    13  O   -0.457513
    14  O   -0.472633
    15  C   -0.171953
    16  C   -0.223734
    17  C   -0.173258
    18  C    0.158277
    19  C   -0.173262
    20  C   -0.218544
    21  H    0.226121
    22  H    0.246454
    23  H    0.273159
    24  H    0.272396
    25  H    0.220696
    26  N    0.488460
    27  O   -0.462286
    28  O   -0.465271
 Sum of Mulliken charges =  -0.00000

 Dipole moment (field-independent basis, Debye):
    X=             -3.3453    Y=             -0.9547    Z=              0.6600  Tot=              3.5409
 Quadrupole moment (field-independent basis, Debye-Ang):
   XX=            -81.5207   YY=           -111.7848   ZZ=           -103.0508
   XY=            -31.2422   XZ=             -2.4023   YZ=             -2.5518

 Normal termination of Gaussian 16 at Thu May  6 00:18:49 2021.
