 Gaussian 16, Revision A.03,
 Gaussian 16:  EM64L-G16RevA.03 25-Dec-2016

 -------------
 #p 6-31g* mp2
 -------------

 ------------------------------------------------------
 Input file generated by CHIRIPA (05-May-2021 14:55:22)
 ------------------------------------------------------
 Symbolic Z-matrix:
 Charge =  0 Multiplicity = 1

                         Standard orientation:
 ---------------------------------------------------------------------
 Center     Atomic      Atomic             Coordinates (Angstroms)
 Number     Number       Type             X           Y           Z
 ---------------------------------------------------------------------
      1          6           0       -0.946850    0.571803    0.001118
      2          6           0       -1.604757    0.333371    1.212246
      3          6           0       -2.958580   -0.015136    1.228221
      4          6           0       -3.626806   -0.116721    0.009023
      5          6           0       -2.999123    0.114634   -1.213998
      6          6           0       -1.644903    0.461868   -1.206010
      7          1           0        0.104986    0.842037   -0.001984
      8          1           0       -1.065162    0.418013    2.151244
      9          1           0       -3.492444   -0.205194    2.151414
     10          1           0       -3.563585    0.022514   -2.133951
     11          1           0       -1.136535    0.646464   -2.148099
     12          7           0       -5.060248   -0.484996    0.013251
     13          8           0       -5.626526   -0.567954   -1.074446
     14          8           0       -5.590359   -0.683718    1.104181
     15          6           0        4.358986   -0.623701   -0.326045
     16          6           0        5.259799   -1.605303    0.424272
     17          6           0        5.287560   -2.992207   -0.218785
     18          1           0        3.339289   -1.030381   -0.368162
     19          1           0        4.705318   -0.540062   -1.365493
     20          1           0        4.912711   -1.686010    1.462363
     21          1           0        6.277428   -1.196150    0.464774
     22          1           0        5.654655   -2.932137   -1.248461
     23          1           0        4.282183   -3.424781   -0.245205
     24          1           0        5.937523   -3.677935    0.333651
     25          6           0        4.320841    0.767124    0.304732
     26          6           0        3.420027    1.748728   -0.445586
     27          6           0        3.392267    3.135631    0.197470
     28          1           0        3.974507    0.683486    1.344180
     29          1           0        5.340538    1.173805    0.346848
     30          1           0        2.402398    1.339574   -0.486088
     31          1           0        3.767115    1.829435   -1.483676
     32          1           0        4.397643    3.568206    0.223891
     33          1           0        3.025172    3.075561    1.227147
     34          1           0        2.742304    3.821358   -0.354965
 ---------------------------------------------------------------------

 SCF Done:  E(RHF) =  -669.535487211     A.U. after   15 cycles
 E2 =    -0.2091011382D+01 EUMP2 =    -0.67162649859311D+03

 The electronic state is 1-A.
 Alpha  occ. eigenvalues --  -20.60748 -20.60743 -15.85802 -11.31167 -11.27739
 Alpha  occ. eigenvalues --  -11.27734 -11.27463 -11.26755 -11.26741 -11.22795
 Alpha  occ. eigenvalues --  -11.22330 -11.22270 -11.22189 -11.22068 -11.21616
 Alpha  occ. eigenvalues --   -1.59824  -1.39377  -1.19340  -1.09329  -1.08735
 Alpha  occ. eigenvalues --   -1.04745  -1.04391  -0.96806  -0.95571  -0.87822
 Alpha  occ. eigenvalues --   -0.86141  -0.82407  -0.80480  -0.79121  -0.77450
 Alpha  occ. eigenvalues --   -0.72020  -0.71147  -0.70472  -0.65969  -0.64992
 Alpha  occ. eigenvalues --   -0.64748  -0.62093  -0.61802  -0.60194  -0.58420
 Alpha  occ. eigenvalues --   -0.56097  -0.55256  -0.53499  -0.53218  -0.53074
 Alpha  occ. eigenvalues --   -0.52836  -0.50751  -0.48804  -0.48775  -0.48749
 Alpha  occ. eigenvalues --   -0.47527  -0.46656  -0.46571  -0.44783  -0.44638
 Alpha  occ. eigenvalues --   -0.37319  -0.36351
 Alpha virt. eigenvalues --    0.05085   0.11304   0.16571   0.18938   0.22580
 Alpha virt. eigenvalues --    0.23606   0.25067   0.26276   0.27239   0.27357
 Alpha virt. eigenvalues --    0.28958   0.30450   0.30958   0.31054   0.32198

 Mulliken charges:
               1
     1  C   -0.178830
     2  C   -0.221627
     3  C   -0.170569
     4  C    0.158255
     5  C   -0.170757
     6  C   -0.222275
     7  H    0.239376
     8  H    0.223754
     9  H    0.275479
    10  H    0.275610
    11  H    0.223763
    12  N    0.487960
    13  O   -0.460458
    14  O   -0.460493
    15  C   -0.298535
    16  C   -0.300142
    17  C   -0.476278
    18  H    0.146301
    19  H    0.151425
    20  H    0.152186
    21  H    0.153756
    22  H    0.156156
    23  H    0.155696
    24  H    0.162528
    25  C   -0.298187
    26  C   -0.305829
    27  C   -0.476185
    28  H    0.148653
    29  H    0.153981
    30  H    0.142326
    31  H    0.156614
    32  H    0.160345
    33  H    0.154386
    34  H    0.161614
 Sum of Mulliken charges =  -0.00000

 Dipole moment (field-independent basis, Debye):
    X=              5.2963    Y=              1.3092    Z=             -0.0225  Tot=              5.4558
 Quadrupole moment (field-independent basis, Debye-Ang):
   XX=           -130.3777   YY=            -96.6022   ZZ=            -89.5085
   XY=             -4.8470   XZ=             -0.2485   YZ=             -0.8477

 Normal termination of Gaussian 16 at Thu May  6 01:28:44 2021.
