 Gaussian 16, Revision A.03,
 Gaussian 16:  EM64L-G16RevA.03 25-Dec-2016

 -------------
 #p 6-31g* mp2
 -------------

 ------------------------------------------------------
 Input file generated by CHIRIPA (05-May-2021 14:51:12)
 ------------------------------------------------------
 Symbolic Z-matrix:
 Charge =  0 Multiplicity = 1

                         Standard orientation:
 ---------------------------------------------------------------------
 Center     Atomic      Atomic             Coordinates (Angstroms)
 Number     Number       Type             X           Y           Z
 ---------------------------------------------------------------------
      1          6           0        3.333323    0.030598   -0.139039
      2          6           0        4.191287   -0.633572    0.938348
      3          6           0        4.791388   -1.963035    0.479871
      4          1           0        2.526973   -0.655860   -0.431474
      5          1           0        3.945751    0.193827   -1.036638
      6          1           0        3.577791   -0.794241    1.834130
      7          1           0        4.995575    0.054622    1.228390
      8          1           0        5.426157   -1.816145   -0.399954
      9          1           0        4.000318   -2.669831    0.209228
     10          1           0        5.400908   -2.420518    1.265400
     11          6           0        2.726458    1.360583    0.304339
     12          6           0        1.868495    2.024753   -0.773048
     13          6           0        1.268393    3.354216   -0.314572
     14          1           0        2.114031    1.197354    1.201938
     15          1           0        3.532809    2.047041    0.596774
     16          1           0        1.064207    1.336559   -1.063090
     17          1           0        2.481990    2.185422   -1.668830
     18          1           0        2.059464    4.061012   -0.043928
     19          1           0        0.633625    3.207326    0.565254
     20          1           0        0.658874    3.811699   -1.100100
     21          6           0       -2.287154   -0.678176   -0.260049
     22          6           0       -1.694105   -2.062631   -0.523793
     23          6           0       -0.207464   -2.011332   -0.877434
     24          1           0       -2.141662   -0.048627   -1.148557
     25          1           0       -1.731200   -0.198455    0.557372
     26          1           0       -2.251899   -2.540153   -1.339547
     27          1           0       -1.841196   -2.689017    0.365376
     28          1           0        0.366936   -1.558714   -0.062694
     29          1           0       -0.046101   -1.409004   -1.777304
     30          1           0        0.196057   -3.011816   -1.061996
     31          6           0       -3.772628   -0.713005    0.094749
     32          6           0       -4.365677    0.671451    0.358493
     33          6           0       -5.852318    0.620151    0.712134
     34          1           0       -4.328582   -1.192726   -0.722672
     35          1           0       -3.918119   -1.342554    0.983257
     36          1           0       -4.218586    1.297836   -0.530676
     37          1           0       -3.807883    1.148972    1.174247
     38          1           0       -6.013681    0.017823    1.612004
     39          1           0       -6.426718    0.167533   -0.102606
     40          1           0       -6.255838    1.620635    0.896696
 ---------------------------------------------------------------------

 SCF Done:  E(RHF) =  -470.733118331     A.U. after   11 cycles
 E2 =    -0.1583412356D+01 EUMP2 =    -0.47231653068675D+03

 The electronic state is 1-A.
 Alpha  occ. eigenvalues --  -11.21690 -11.21638 -11.21536 -11.21519 -11.21478
 Alpha  occ. eigenvalues --  -11.21412 -11.21320 -11.21217 -11.21187 -11.21099
 Alpha  occ. eigenvalues --  -11.21017 -11.21013  -1.08501  -1.08350  -1.03602
 Alpha  occ. eigenvalues --   -1.03460  -0.96065  -0.95904  -0.87084  -0.86922
 Alpha  occ. eigenvalues --   -0.79682  -0.79522  -0.78338  -0.78127  -0.65156
 Alpha  occ. eigenvalues --   -0.64979  -0.61012  -0.60848  -0.59424  -0.59272
 Alpha  occ. eigenvalues --   -0.57696  -0.57500  -0.55411  -0.55146  -0.52756
 Alpha  occ. eigenvalues --   -0.52626  -0.52505  -0.52301  -0.50050  -0.49807
 Alpha  occ. eigenvalues --   -0.48046  -0.47843  -0.46746  -0.46517  -0.46020
 Alpha  occ. eigenvalues --   -0.45774  -0.45675  -0.45328  -0.43853  -0.43707
 Alpha virt. eigenvalues --    0.20604   0.22991   0.23838   0.24571   0.25761
 Alpha virt. eigenvalues --    0.26244   0.27248   0.27677   0.27952   0.29620
 Alpha virt. eigenvalues --    0.30725   0.31514   0.31684   0.32027   0.32158

 Mulliken charges:
               1
     1  C   -0.307658
     2  C   -0.299147
     3  C   -0.475721
     4  H    0.160856
     5  H    0.148976
     6  H    0.150842
     7  H    0.151658
     8  H    0.155095
     9  H    0.155425
    10  H    0.159820
    11  C   -0.297606
    12  C   -0.302718
    13  C   -0.475313
    14  H    0.148046
    15  H    0.149414
    16  H    0.155328
    17  H    0.151463
    18  H    0.154875
    19  H    0.154925
    20  H    0.159876
    21  C   -0.298919
    22  C   -0.300232
    23  C   -0.479887
    24  H    0.150171
    25  H    0.149314
    26  H    0.152413
    27  H    0.152222
    28  H    0.157695
    29  H    0.157100
    30  H    0.160824
    31  C   -0.298368
    32  C   -0.299681
    33  C   -0.475772
    34  H    0.149777
    35  H    0.149800
    36  H    0.152218
    37  H    0.151959
    38  H    0.155203
    39  H    0.155247
    40  H    0.160481
 Sum of Mulliken charges =  -0.00000

 Dipole moment (field-independent basis, Debye):
    X=             -0.0603    Y=             -0.0395    Z=             -0.0278  Tot=              0.0773
 Quadrupole moment (field-independent basis, Debye-Ang):
   XX=            -85.5707   YY=            -85.5396   ZZ=            -83.7804
   XY=              0.9855   XZ=              0.2803   YZ=             -0.4502

 Normal termination of Gaussian 16 at Thu May  6 00:45:43 2021.
