 Gaussian 16, Revision A.03,
 Gaussian 16:  EM64L-G16RevA.03 25-Dec-2016

 -------------
 #p 6-31g* mp2
 -------------

 ------------------------------------------------------
 Input file generated by CHIRIPA (05-May-2021 14:55:25)
 ------------------------------------------------------
 Symbolic Z-matrix:
 Charge =  0 Multiplicity = 1

                         Standard orientation:
 ---------------------------------------------------------------------
 Center     Atomic      Atomic             Coordinates (Angstroms)
 Number     Number       Type             X           Y           Z
 ---------------------------------------------------------------------
      1          6           0       -2.788626   -2.195943    0.739448
      2          6           0       -2.106406   -1.297361    1.566279
      3          6           0       -2.093725    0.069253    1.271739
      4          6           0       -2.776848    0.504712    0.137275
      5          6           0       -3.465666   -0.365747   -0.706004
      6          6           0       -3.464887   -1.728092   -0.392059
      7          1           0       -2.793249   -3.255903    0.975791
      8          1           0       -1.580349   -1.657863    2.445680
      9          1           0       -1.573608    0.786805    1.894648
     10          1           0       -3.980956    0.023511   -1.575701
     11          1           0       -3.995550   -2.423647   -1.035989
     12          7           0       -2.770548    1.949226   -0.184812
     13          8           0       -3.380071    2.307630   -1.190130
     14          8           0       -2.156205    2.695680    0.574153
     15          6           0        2.797394   -0.346161   -0.335250
     16          6           0        2.240090   -1.721177   -0.705022
     17          6           0        0.721732   -1.714787   -0.884859
     18          1           0        2.318468   -0.000463    0.591068
     19          1           0        2.522879    0.375396   -1.117167
     20          1           0        2.516757   -2.440219    0.076674
     21          1           0        2.720539   -2.063726   -1.630465
     22          1           0        0.430737   -1.019136   -1.678579
     23          1           0        0.225798   -1.397768    0.038260
     24          1           0        0.344548   -2.707710   -1.148862
     25          6           0        4.313995   -0.336435   -0.152070
     26          6           0        4.871298    1.038580    0.217703
     27          6           0        6.389656    1.032191    0.397539
     28          1           0        4.588510   -1.057991    0.629847
     29          1           0        4.792920   -0.682133   -1.078389
     30          1           0        4.390850    1.381130    1.143146
     31          1           0        4.594630    1.757623   -0.563994
     32          1           0        6.885589    0.715171   -0.525580
     33          1           0        6.680652    0.336539    1.191259
     34          1           0        6.766841    2.025113    0.661543
 ---------------------------------------------------------------------

 SCF Done:  E(RHF) =  -669.534356722     A.U. after   15 cycles
 E2 =    -0.2092984712D+01 EUMP2 =    -0.67162734143405D+03

 The electronic state is 1-A.
 Alpha  occ. eigenvalues --  -20.60778 -20.60773 -15.85832 -11.31209 -11.27787
 Alpha  occ. eigenvalues --  -11.27771 -11.27514 -11.26803 -11.26775 -11.21689
 Alpha  occ. eigenvalues --  -11.21555 -11.21438 -11.21376 -11.21048 -11.21036
 Alpha  occ. eigenvalues --   -1.59853  -1.39407  -1.19391  -1.08780  -1.08457
 Alpha  occ. eigenvalues --   -1.04808  -1.03550  -0.96001  -0.95611  -0.87021
 Alpha  occ. eigenvalues --   -0.86193  -0.82449  -0.79617  -0.78267  -0.77492
 Alpha  occ. eigenvalues --   -0.72051  -0.71175  -0.70493  -0.65100  -0.65043
 Alpha  occ. eigenvalues --   -0.64804  -0.62148  -0.60973  -0.59377  -0.57635
 Alpha  occ. eigenvalues --   -0.55384  -0.55292  -0.53419  -0.52891  -0.52652
 Alpha  occ. eigenvalues --   -0.52167  -0.49906  -0.48811  -0.48805  -0.47899
 Alpha  occ. eigenvalues --   -0.46653  -0.45799  -0.45739  -0.44809  -0.43815
 Alpha  occ. eigenvalues --   -0.37326  -0.36317
 Alpha virt. eigenvalues --    0.05030   0.11208   0.16471   0.21281   0.22866
 Alpha virt. eigenvalues --    0.24310   0.26533   0.27163   0.27613   0.27968
 Alpha virt. eigenvalues --    0.28399   0.30862   0.31498   0.31892   0.31996

 Mulliken charges:
               1
     1  C   -0.165793
     2  C   -0.222002
     3  C   -0.170974
     4  C    0.161365
     5  C   -0.170588
     6  C   -0.217596
     7  H    0.225806
     8  H    0.223662
     9  H    0.275617
    10  H    0.275754
    11  H    0.223650
    12  N    0.487961
    13  O   -0.460499
    14  O   -0.460379
    15  C   -0.297706
    16  C   -0.299563
    17  C   -0.479147
    18  H    0.146918
    19  H    0.153135
    20  H    0.147855
    21  H    0.151779
    22  H    0.156601
    23  H    0.160270
    24  H    0.153439
    25  C   -0.298206
    26  C   -0.299823
    27  C   -0.475779
    28  H    0.147659
    29  H    0.149875
    30  H    0.152056
    31  H    0.154294
    32  H    0.155113
    33  H    0.154078
    34  H    0.161166
 Sum of Mulliken charges =  -0.00000

 Dipole moment (field-independent basis, Debye):
    X=             -0.1192    Y=             -5.0372    Z=              1.1301  Tot=              5.1638
 Quadrupole moment (field-independent basis, Debye-Ang):
   XX=            -94.7699   YY=           -100.5312   ZZ=            -90.4979
   XY=             15.0802   XZ=             -0.8734   YZ=              0.3310

 Normal termination of Gaussian 16 at Thu May  6 14:23:50 2021.
