 Gaussian 16, Revision A.03,
 Gaussian 16:  EM64L-G16RevA.03 25-Dec-2016

 -------------
 #p 6-31g* mp2
 -------------

 ------------------------------------------------------
 Input file generated by CHIRIPA (05-May-2021 14:55:20)
 ------------------------------------------------------
 Symbolic Z-matrix:
 Charge =  0 Multiplicity = 1

                         Standard orientation:
 ---------------------------------------------------------------------
 Center     Atomic      Atomic             Coordinates (Angstroms)
 Number     Number       Type             X           Y           Z
 ---------------------------------------------------------------------
      1          6           0        1.695567    2.333953    0.201473
      2          6           0        1.188364    1.030858    0.236257
      3          6           0        2.045633   -0.067915    0.125190
      4          6           0        3.410780    0.174040   -0.020140
      5          6           0        3.946526    1.460435   -0.058308
      6          6           0        3.070605    2.544211    0.054561
      7          1           0        1.022375    3.181681    0.288452
      8          1           0        0.120939    0.864565    0.350255
      9          1           0        1.679803   -1.087238    0.149021
     10          1           0        5.015302    1.594560   -0.172962
     11          1           0        3.467318    3.555110    0.027222
     12          7           0        4.328206   -0.981243   -0.138675
     13          8           0        5.526922   -0.741365   -0.265853
     14          8           0        3.831195   -2.104758   -0.102161
     15          6           0       -4.545468    0.196742   -0.064578
     16          6           0       -6.065507    0.035826   -0.104223
     17          6           0       -6.798140    1.371451   -0.235175
     18          1           0       -4.274036    0.849462    0.776389
     19          1           0       -4.214099    0.709756   -0.978037
     20          1           0       -6.393763   -0.477966    0.808401
     21          1           0       -6.333338   -0.616742   -0.945078
     22          1           0       -6.499182    1.886369   -1.153916
     23          1           0       -6.559950    2.025933    0.609527
     24          1           0       -7.883505    1.233086   -0.261626
     25          6           0       -3.799051   -1.129722    0.066124
     26          6           0       -2.279012   -0.968806    0.105769
     27          6           0       -1.546378   -2.304431    0.236721
     28          1           0       -4.130421   -1.642735    0.979582
     29          1           0       -4.070483   -1.782442   -0.774843
     30          1           0       -2.011180   -0.316238    0.946624
     31          1           0       -1.950756   -0.455014   -0.806855
     32          1           0       -1.784569   -2.958912   -0.607980
     33          1           0       -1.845337   -2.819348    1.155463
     34          1           0       -0.461014   -2.166066    0.263172
 ---------------------------------------------------------------------

 SCF Done:  E(RHF) =  -669.535100190     A.U. after   15 cycles
 E2 =    -0.2092131848D+01 EUMP2 =    -0.67162723203791D+03

 The electronic state is 1-A.
 Alpha  occ. eigenvalues --  -20.60710 -20.60704 -15.85759 -11.31105 -11.27674
 Alpha  occ. eigenvalues --  -11.27652 -11.27400 -11.26692 -11.26603 -11.22638
 Alpha  occ. eigenvalues --  -11.22151 -11.22131 -11.22045 -11.21926 -11.21550
 Alpha  occ. eigenvalues --   -1.59784  -1.39338  -1.19272  -1.09175  -1.08670
 Alpha  occ. eigenvalues --   -1.04682  -1.04260  -0.96682  -0.95512  -0.87696
 Alpha  occ. eigenvalues --   -0.86073  -0.82348  -0.80370  -0.78989  -0.77392
 Alpha  occ. eigenvalues --   -0.71979  -0.71106  -0.70400  -0.65793  -0.64925
 Alpha  occ. eigenvalues --   -0.64679  -0.62168  -0.61643  -0.59997  -0.58282
 Alpha  occ. eigenvalues --   -0.55930  -0.55170  -0.53404  -0.53171  -0.53004
 Alpha  occ. eigenvalues --   -0.52709  -0.50598  -0.48777  -0.48734  -0.48589
 Alpha  occ. eigenvalues --   -0.47386  -0.46502  -0.46418  -0.44747  -0.44509
 Alpha  occ. eigenvalues --   -0.37255  -0.36271
 Alpha virt. eigenvalues --    0.05132   0.11365   0.16611   0.19530   0.22440
 Alpha virt. eigenvalues --    0.23733   0.25594   0.25722   0.26111   0.28150
 Alpha virt. eigenvalues --    0.28788   0.29816   0.30755   0.31531   0.32319

 Mulliken charges:
               1
     1  C   -0.172497
     2  C   -0.228712
     3  C   -0.183527
     4  C    0.161065
     5  C   -0.170765
     6  C   -0.218640
     7  H    0.225727
     8  H    0.236813
     9  H    0.283737
    10  H    0.275258
    11  H    0.223010
    12  N    0.487698
    13  O   -0.460706
    14  O   -0.460427
    15  C   -0.299108
    16  C   -0.300240
    17  C   -0.476121
    18  H    0.147851
    19  H    0.149147
    20  H    0.153476
    21  H    0.153810
    22  H    0.155307
    23  H    0.154872
    24  H    0.162373
    25  C   -0.297301
    26  C   -0.308808
    27  C   -0.479276
    28  H    0.152796
    29  H    0.153640
    30  H    0.146872
    31  H    0.151781
    32  H    0.162668
    33  H    0.161261
    34  H    0.156966
 Sum of Mulliken charges =  -0.00000

 Dipole moment (field-independent basis, Debye):
    X=             -3.4964    Y=              3.9586    Z=              0.3977  Tot=              5.2965
 Quadrupole moment (field-independent basis, Debye-Ang):
   XX=           -113.6939   YY=            -92.1795   ZZ=            -94.6027
   XY=             17.1388   XZ=              1.1081   YZ=             -0.1069

 Normal termination of Gaussian 16 at Thu May  6 02:57:07 2021.
