 Gaussian 16, Revision A.03,
 Gaussian 16:  EM64L-G16RevA.03 25-Dec-2016

 -------------
 #p 6-31g* mp2
 -------------

 ------------------------------------------------------
 Input file generated by CHIRIPA (05-May-2021 14:53:12)
 ------------------------------------------------------
 Symbolic Z-matrix:
 Charge =  0 Multiplicity = 1

                         Standard orientation:
 ---------------------------------------------------------------------
 Center     Atomic      Atomic             Coordinates (Angstroms)
 Number     Number       Type             X           Y           Z
 ---------------------------------------------------------------------
      1          6           0        3.023465   -0.728859   -0.142121
      2          6           0        2.001979   -0.424303   -1.238386
      3          6           0        0.637332   -1.058472   -0.967531
      4          1           0        3.135897   -1.817532   -0.046751
      5          1           0        2.635589   -0.369127    0.820968
      6          1           0        2.392273   -0.783263   -2.199341
      7          1           0        1.892107    0.663775   -1.331288
      8          1           0        0.222950   -0.692061   -0.022739
      9          1           0        0.725958   -2.147320   -0.895724
     10          1           0       -0.077563   -0.828041   -1.763575
     11          6           0        4.392621   -0.101708   -0.398679
     12          6           0        5.414107   -0.406264    0.697587
     13          6           0        6.778754    0.227905    0.426732
     14          1           0        4.780496   -0.461440   -1.361768
     15          1           0        4.280188    0.986965   -0.494048
     16          1           0        5.523978   -1.494342    0.790489
     17          1           0        5.023813   -0.047304    1.658541
     18          1           0        6.690128    1.316753    0.354925
     19          1           0        7.193136   -0.138506   -0.518060
     20          1           0        7.493648   -0.002526    1.222776
     21          6           0       -1.158472    2.151029    0.296904
     22          6           0       -1.261310    1.232747    1.347001
     23          6           0       -2.220792    0.216583    1.310182
     24          6           0       -3.064974    0.147852    0.202969
     25          6           0       -2.987256    1.047770   -0.858821
     26          6           0       -2.020254    2.055777   -0.800720
     27          1           0       -0.410203    2.937241    0.333771
     28          1           0       -0.593373    1.304300    2.200691
     29          1           0       -2.322236   -0.507546    2.109409
     30          1           0       -3.667153    0.950937   -1.696546
     31          1           0       -1.942677    2.767540   -1.617679
     32          7           0       -4.084715   -0.923597    0.152726
     33          8           0       -4.816567   -0.962617   -0.833940
     34          8           0       -4.132827   -1.704092    1.100961
 ---------------------------------------------------------------------

 SCF Done:  E(RHF) =  -669.534346154     A.U. after   15 cycles
 E2 =    -0.2093671423D+01 EUMP2 =    -0.67162801757740D+03

 The electronic state is 1-A.
 Alpha  occ. eigenvalues --  -20.60802 -20.60797 -15.85858 -11.31263 -11.27846
 Alpha  occ. eigenvalues --  -11.27815 -11.27584 -11.26871 -11.26835 -11.21950
 Alpha  occ. eigenvalues --  -11.21865 -11.21766 -11.21706 -11.21391 -11.20971
 Alpha  occ. eigenvalues --   -1.59876  -1.39429  -1.19449  -1.08838  -1.08745
 Alpha  occ. eigenvalues --   -1.04867  -1.03784  -0.96218  -0.95658  -0.87235
 Alpha  occ. eigenvalues --   -0.86251  -0.82493  -0.79861  -0.78579  -0.77531
 Alpha  occ. eigenvalues --   -0.72076  -0.71197  -0.70548  -0.65403  -0.65099
 Alpha  occ. eigenvalues --   -0.64857  -0.62201  -0.61230  -0.59601  -0.57845
 Alpha  occ. eigenvalues --   -0.55696  -0.55352  -0.53380  -0.52946  -0.52767
 Alpha  occ. eigenvalues --   -0.52501  -0.50044  -0.48839  -0.48828  -0.48169
 Alpha  occ. eigenvalues --   -0.46885  -0.46106  -0.46057  -0.44825  -0.44056
 Alpha  occ. eigenvalues --   -0.37406  -0.36368
 Alpha virt. eigenvalues --    0.04984   0.11144   0.16414   0.21040   0.22655
 Alpha virt. eigenvalues --    0.24126   0.26183   0.26732   0.27610   0.27791
 Alpha virt. eigenvalues --    0.28338   0.30712   0.31315   0.31663   0.31894

 Mulliken charges:
               1
     1  C   -0.297102
     2  C   -0.298660
     3  C   -0.480815
     4  H    0.152368
     5  H    0.143507
     6  H    0.152777
     7  H    0.144379
     8  H    0.160753
     9  H    0.155318
    10  H    0.159736
    11  C   -0.297821
    12  C   -0.299506
    13  C   -0.475710
    14  H    0.151183
    15  H    0.146396
    16  H    0.153595
    17  H    0.149928
    18  H    0.154087
    19  H    0.156232
    20  H    0.161099
    21  C   -0.166911
    22  C   -0.222393
    23  C   -0.171121
    24  C    0.163449
    25  C   -0.171228
    26  C   -0.217397
    27  H    0.225899
    28  H    0.223994
    29  H    0.276265
    30  H    0.276075
    31  H    0.224004
    32  N    0.487995
    33  O   -0.460297
    34  O   -0.460079
 Sum of Mulliken charges =  -0.00000

 Dipole moment (field-independent basis, Debye):
    X=              3.4910    Y=              3.7780    Z=              0.1895  Tot=              5.1475
 Quadrupole moment (field-independent basis, Debye-Ang):
   XX=           -117.8859   YY=            -93.0817   ZZ=            -90.7215
   XY=            -12.5368   XZ=              1.7164   YZ=             -0.5241

 Normal termination of Gaussian 16 at Wed May  5 23:21:25 2021.
