 Gaussian 16, Revision A.03,
 Gaussian 16:  EM64L-G16RevA.03 25-Dec-2016

 -------------
 #p 6-31g* mp2
 -------------

 ------------------------------------------------------
 Input file generated by CHIRIPA (05-May-2021 14:57:21)
 ------------------------------------------------------
 Symbolic Z-matrix:
 Charge =  0 Multiplicity = 1

                         Standard orientation:
 ---------------------------------------------------------------------
 Center     Atomic      Atomic             Coordinates (Angstroms)
 Number     Number       Type             X           Y           Z
 ---------------------------------------------------------------------
      1          6           0       -2.587506    2.359432    0.071353
      2          6           0       -2.215942    1.654588    1.220985
      3          6           0       -2.307201    0.260045    1.259350
      4          6           0       -2.776354   -0.400594    0.125004
      5          6           0       -3.154189    0.273394   -1.035285
      6          6           0       -3.054620    1.667805   -1.051135
      7          1           0       -2.513386    3.442695    0.050295
      8          1           0       -1.852828    2.189084    2.094202
      9          1           0       -2.026287   -0.310563    2.136226
     10          1           0       -3.512498   -0.287140   -1.890173
     11          1           0       -3.343887    2.212582   -1.945331
     12          7           0       -2.877364   -1.876865    0.153701
     13          8           0       -3.293780   -2.435484   -0.858810
     14          8           0       -2.538208   -2.447392    1.188162
     15          6           0        1.130548    2.081902   -0.207605
     16          6           0        0.699699    0.785832   -0.509419
     17          6           0        1.593643   -0.288121   -0.464262
     18          6           0        2.917207   -0.028777   -0.111832
     19          6           0        3.376822    1.251198    0.194287
     20          6           0        2.465382    2.310046    0.142668
     21          1           0        0.429316    2.910307   -0.245194
     22          1           0       -0.336362    0.605690   -0.781764
     23          1           0        1.286872   -1.301492   -0.693141
     24          1           0        4.415821    1.399550    0.462417
     25          1           0        2.802792    3.315542    0.377563
     26          7           0        3.872847   -1.157728   -0.060606
     27          8           0        5.033674   -0.902887    0.252720
     28          8           0        3.442955   -2.276063   -0.334750
 ---------------------------------------------------------------------

 SCF Done:  E(RHF) =  -868.334342464     A.U. after   16 cycles
 E2 =    -0.2606227417D+01 EUMP2 =    -0.87094056988174D+03

 The electronic state is 1-A.
 Alpha  occ. eigenvalues --  -20.61674 -20.61661 -20.60661 -20.60636 -15.86733
 Alpha  occ. eigenvalues --  -15.85701 -11.32418 -11.31152 -11.29011 -11.28904
 Alpha  occ. eigenvalues --  -11.28791 -11.28127 -11.28012 -11.27724 -11.27611
 Alpha  occ. eigenvalues --  -11.27475 -11.26830 -11.26553  -1.60747  -1.59725
 Alpha  occ. eigenvalues --   -1.40284  -1.39275  -1.20697  -1.19314  -1.09995
 Alpha  occ. eigenvalues --   -1.08713  -1.06050  -1.04720  -0.96753  -0.95537
 Alpha  occ. eigenvalues --   -0.87410  -0.86130  -0.83532  -0.82367  -0.78532
 Alpha  occ. eigenvalues --   -0.77399  -0.72927  -0.72109  -0.71919  -0.71706
 Alpha  occ. eigenvalues --   -0.71051  -0.70474  -0.66241  -0.65977  -0.64967
 Alpha  occ. eigenvalues --   -0.64863  -0.63325  -0.62167  -0.56536  -0.55327
 Alpha  occ. eigenvalues --   -0.54647  -0.54067  -0.53065  -0.52256  -0.49718
 Alpha  occ. eigenvalues --   -0.49670  -0.48672  -0.48670  -0.45608  -0.44662
 Alpha  occ. eigenvalues --   -0.38757  -0.38202  -0.37051  -0.36046
 Alpha virt. eigenvalues --    0.03910   0.05073   0.09947   0.11341   0.15223
 Alpha virt. eigenvalues --    0.16630   0.19880   0.21933   0.26069   0.26451
 Alpha virt. eigenvalues --    0.27663   0.29058   0.30182   0.31282   0.31731

 Mulliken charges:
               1
     1  C   -0.183636
     2  C   -0.214354
     3  C   -0.169191
     4  C    0.152419
     5  C   -0.180554
     6  C   -0.218861
     7  H    0.227332
     8  H    0.228893
     9  H    0.282198
    10  H    0.281123
    11  H    0.229278
    12  N    0.487296
    13  O   -0.456636
    14  O   -0.454084
    15  C   -0.176045
    16  C   -0.218586
    17  C   -0.178049
    18  C    0.159406
    19  C   -0.172577
    20  C   -0.218956
    21  H    0.215018
    22  H    0.234640
    23  H    0.279500
    24  H    0.274964
    25  H    0.220399
    26  N    0.487722
    27  O   -0.461639
    28  O   -0.457019
 Sum of Mulliken charges =  -0.00000

 Dipole moment (field-independent basis, Debye):
    X=             -3.3724    Y=              8.9170    Z=             -0.1775  Tot=              9.5351
 Quadrupole moment (field-independent basis, Debye-Ang):
   XX=           -123.6725   YY=           -108.3639   ZZ=           -100.6027
   XY=             -0.4760   XZ=              3.0756   YZ=              1.2312

 Normal termination of Gaussian 16 at Thu May  6 17:50:00 2021.
