 Gaussian 16, Revision A.03,
 Gaussian 16:  EM64L-G16RevA.03 25-Dec-2016

 -------------
 #p 6-31g* mp2
 -------------

 ------------------------------------------------------
 Input file generated by CHIRIPA (05-May-2021 14:55:20)
 ------------------------------------------------------
 Symbolic Z-matrix:
 Charge =  0 Multiplicity = 1

                         Standard orientation:
 ---------------------------------------------------------------------
 Center     Atomic      Atomic             Coordinates (Angstroms)
 Number     Number       Type             X           Y           Z
 ---------------------------------------------------------------------
      1          6           0       -2.467493   -2.507901    1.104138
      2          6           0       -1.787913   -1.418388    1.658803
      3          6           0       -1.832144   -0.164887    1.041286
      4          6           0       -2.568870   -0.036005   -0.135113
      5          6           0       -3.256574   -1.102424   -0.712265
      6          6           0       -3.198366   -2.346726   -0.077543
      7          1           0       -2.427705   -3.478078    1.590523
      8          1           0       -1.219518   -1.540627    2.576425
      9          1           0       -1.315408    0.695422    1.449049
     10          1           0       -3.814857   -0.949675   -1.627910
     11          1           0       -3.727119   -3.191090   -0.510571
     12          7           0       -2.623093    1.286151   -0.797958
     13          8           0       -3.279174    1.373613   -1.833595
     14          8           0       -2.008486    2.209960   -0.269307
     15          6           0        3.646150   -0.331332    0.160263
     16          6           0        4.231169   -0.953425   -1.108097
     17          6           0        4.967211   -2.265982   -0.837486
     18          1           0        4.455419   -0.157377    0.882599
     19          1           0        2.958129   -1.048821    0.628483
     20          1           0        4.916826   -0.234446   -1.574532
     21          1           0        3.420442   -1.125741   -1.827572
     22          1           0        4.290137   -3.002878   -0.393463
     23          1           0        5.795022   -2.106518   -0.138986
     24          1           0        5.377398   -2.693364   -1.757786
     25          6           0        2.907278    0.981348   -0.094040
     26          6           0        2.322259    1.603441    1.174319
     27          6           0        1.586217    2.915999    0.903708
     28          1           0        3.595300    1.698837   -0.562261
     29          1           0        2.098010    0.807394   -0.816376
     30          1           0        3.132986    1.775757    1.893794
     31          1           0        1.636603    0.884462    1.640755
     32          1           0        0.758406    2.756535    0.205209
     33          1           0        2.263292    3.652894    0.459686
     34          1           0        1.176031    3.343381    1.824008
 ---------------------------------------------------------------------

 SCF Done:  E(RHF) =  -669.536124169     A.U. after   15 cycles
 E2 =    -0.2091729112D+01 EUMP2 =    -0.67162785328089D+03

 The electronic state is 1-A.
 Alpha  occ. eigenvalues --  -20.60939 -20.60923 -15.85965 -11.31286 -11.27853
 Alpha  occ. eigenvalues --  -11.27841 -11.27589 -11.26861 -11.26851 -11.21601
 Alpha  occ. eigenvalues --  -11.21471 -11.21382 -11.21221 -11.21140 -11.20404
 Alpha  occ. eigenvalues --   -1.59996  -1.39552  -1.19457  -1.08861  -1.08341
 Alpha  occ. eigenvalues --   -1.04853  -1.03386  -0.95807  -0.95692  -0.86802
 Alpha  occ. eigenvalues --   -0.86252  -0.82536  -0.79455  -0.78157  -0.77589
 Alpha  occ. eigenvalues --   -0.72191  -0.71312  -0.70563  -0.65114  -0.65000
 Alpha  occ. eigenvalues --   -0.64834  -0.62209  -0.60770  -0.59197  -0.57421
 Alpha  occ. eigenvalues --   -0.55359  -0.55062  -0.53185  -0.52937  -0.52481
 Alpha  occ. eigenvalues --   -0.52209  -0.49738  -0.48942  -0.48925  -0.47760
 Alpha  occ. eigenvalues --   -0.46507  -0.45698  -0.45637  -0.44895  -0.43647
 Alpha  occ. eigenvalues --   -0.37437  -0.36452
 Alpha virt. eigenvalues --    0.04887   0.11173   0.16361   0.20373   0.22913
 Alpha virt. eigenvalues --    0.23947   0.26215   0.27256   0.27644   0.27951
 Alpha virt. eigenvalues --    0.28974   0.31045   0.31539   0.31927   0.32241

 Mulliken charges:
               1
     1  C   -0.170569
     2  C   -0.219387
     3  C   -0.173630
     4  C    0.157817
     5  C   -0.170740
     6  C   -0.218610
     7  H    0.226066
     8  H    0.224198
     9  H    0.280060
    10  H    0.275797
    11  H    0.223844
    12  N    0.489584
    13  O   -0.458889
    14  O   -0.461550
    15  C   -0.297314
    16  C   -0.299637
    17  C   -0.475372
    18  H    0.149068
    19  H    0.144998
    20  H    0.153224
    21  H    0.152526
    22  H    0.152806
    23  H    0.155067
    24  H    0.160495
    25  C   -0.298140
    26  C   -0.298641
    27  C   -0.486357
    28  H    0.151409
    29  H    0.152006
    30  H    0.150271
    31  H    0.138737
    32  H    0.179859
    33  H    0.154202
    34  H    0.156801
 Sum of Mulliken charges =  -0.00000

 Dipole moment (field-independent basis, Debye):
    X=              0.0578    Y=             -4.5909    Z=              2.2089  Tot=              5.0950
 Quadrupole moment (field-independent basis, Debye-Ang):
   XX=            -94.2790   YY=            -94.6622   ZZ=            -93.3335
   XY=             14.5088   XZ=             -3.7647   YZ=              1.9690

 Normal termination of Gaussian 16 at Thu May  6 15:48:07 2021.
