 Gaussian 16, Revision A.03,
 Gaussian 16:  EM64L-G16RevA.03 25-Dec-2016

 -------------
 #p 6-31g* mp2
 -------------

 ------------------------------------------------------
 Input file generated by CHIRIPA (05-May-2021 14:57:26)
 ------------------------------------------------------
 Symbolic Z-matrix:
 Charge =  0 Multiplicity = 1

                         Standard orientation:
 ---------------------------------------------------------------------
 Center     Atomic      Atomic             Coordinates (Angstroms)
 Number     Number       Type             X           Y           Z
 ---------------------------------------------------------------------
      1          6           0       -4.676681    0.126686   -1.876462
      2          6           0       -4.441437   -1.154625   -1.367125
      3          6           0       -3.677114   -1.329259   -0.209602
      4          6           0       -3.160983   -0.195428    0.415958
      5          6           0       -3.377777    1.094164   -0.066996
      6          6           0       -4.145037    1.245019   -1.225919
      7          1           0       -5.271566    0.253110   -2.776198
      8          1           0       -4.853065   -2.024951   -1.870256
      9          1           0       -3.479480   -2.309745    0.206338
     10          1           0       -2.954232    1.942638    0.456568
     11          1           0       -4.326104    2.241303   -1.619209
     12          7           0       -2.350273   -0.367718    1.642117
     13          8           0       -1.906717    0.647322    2.174648
     14          8           0       -2.173746   -1.514538    2.047433
     15          6           0        1.750863    2.148531    0.023761
     16          6           0        1.222152    0.869926   -0.181554
     17          6           0        2.068029   -0.235216   -0.314605
     18          6           0        3.443840   -0.024532   -0.236846
     19          6           0        4.001001    1.236950   -0.033069
     20          6           0        3.136158    2.327647    0.097219
     21          1           0        1.086399    3.001420    0.126045
     22          1           0        0.146720    0.727842   -0.239025
     23          1           0        1.685537   -1.236032   -0.474245
     24          1           0        5.077326    1.347179    0.019766
     25          1           0        3.549572    3.319479    0.256596
     26          7           0        4.349371   -1.186849   -0.376239
     27          8           0        5.557849   -0.974721   -0.303972
     28          8           0        3.833505   -2.287994   -0.555121
 ---------------------------------------------------------------------

 SCF Done:  E(RHF) =  -868.338020733     A.U. after   16 cycles
 E2 =    -0.2599946506D+01 EUMP2 =    -0.87093796723859D+03

 The electronic state is 1-A.
 Alpha  occ. eigenvalues --  -20.61664 -20.61629 -20.60326 -20.60319 -15.86682
 Alpha  occ. eigenvalues --  -15.85377 -11.32050 -11.30677 -11.28636 -11.28530
 Alpha  occ. eigenvalues --  -11.28258 -11.27587 -11.27521 -11.27258 -11.27218
 Alpha  occ. eigenvalues --  -11.26987 -11.26275 -11.26230  -1.60724  -1.59401
 Alpha  occ. eigenvalues --   -1.40275  -1.38956  -1.20195  -1.18844  -1.09581
 Alpha  occ. eigenvalues --   -1.08254  -1.05575  -1.04243  -0.96417  -0.95101
 Alpha  occ. eigenvalues --   -0.86972  -0.85648  -0.83237  -0.81941  -0.78308
 Alpha  occ. eigenvalues --   -0.76996  -0.72883  -0.72079  -0.71599  -0.71260
 Alpha  occ. eigenvalues --   -0.70720  -0.69969  -0.65827  -0.65550  -0.64505
 Alpha  occ. eigenvalues --   -0.64258  -0.62915  -0.61601  -0.56036  -0.54764
 Alpha  occ. eigenvalues --   -0.53920  -0.53646  -0.52561  -0.52351  -0.49661
 Alpha  occ. eigenvalues --   -0.49639  -0.48356  -0.48353  -0.45657  -0.44377
 Alpha  occ. eigenvalues --   -0.38158  -0.37180  -0.36811  -0.35825
 Alpha virt. eigenvalues --    0.04200   0.05548   0.10386   0.11826   0.15711
 Alpha virt. eigenvalues --    0.17056   0.20599   0.21708   0.26464   0.27062
 Alpha virt. eigenvalues --    0.27698   0.28762   0.30462   0.31047   0.31814

 Mulliken charges:
               1
     1  C   -0.170232
     2  C   -0.217725
     3  C   -0.171366
     4  C    0.154083
     5  C   -0.177459
     6  C   -0.217527
     7  H    0.228949
     8  H    0.227509
     9  H    0.278966
    10  H    0.272730
    11  H    0.225143
    12  N    0.486795
    13  O   -0.462033
    14  O   -0.453908
    15  C   -0.168959
    16  C   -0.211589
    17  C   -0.170015
    18  C    0.158415
    19  C   -0.171445
    20  C   -0.218631
    21  H    0.222984
    22  H    0.219031
    23  H    0.275356
    24  H    0.274062
    25  H    0.221460
    26  N    0.488244
    27  O   -0.462025
    28  O   -0.460811
 Sum of Mulliken charges =  -0.00000

 Dipole moment (field-independent basis, Debye):
    X=             -6.3622    Y=              4.5742    Z=             -3.8288  Tot=              8.7212
 Quadrupole moment (field-independent basis, Debye-Ang):
   XX=           -105.9044   YY=            -98.8305   ZZ=           -109.8961
   XY=             16.6428   XZ=             16.2115   YZ=              0.8271

 Normal termination of Gaussian 16 at Fri May  7 09:43:01 2021.
