 Gaussian 16, Revision A.03,
 Gaussian 16:  EM64L-G16RevA.03 25-Dec-2016

 -------------
 #p 6-31g* mp2
 -------------

 ------------------------------------------------------
 Input file generated by CHIRIPA (05-May-2021 14:55:20)
 ------------------------------------------------------
 Symbolic Z-matrix:
 Charge =  0 Multiplicity = 1

                         Standard orientation:
 ---------------------------------------------------------------------
 Center     Atomic      Atomic             Coordinates (Angstroms)
 Number     Number       Type             X           Y           Z
 ---------------------------------------------------------------------
      1          6           0       -1.107451   -1.920935    0.669055
      2          6           0       -1.721790   -1.175940    1.681029
      3          6           0       -2.615165   -0.148464    1.363660
      4          6           0       -2.872377    0.108159    0.017823
      5          6           0       -2.276147   -0.616400   -1.013106
      6          6           0       -1.386099   -1.639284   -0.672417
      7          1           0       -0.414748   -2.717320    0.924653
      8          1           0       -1.507276   -1.392455    2.723694
      9          1           0       -3.104753    0.443904    2.127088
     10          1           0       -2.509879   -0.377184   -2.043428
     11          1           0       -0.910461   -2.216221   -1.460426
     12          7           0       -3.816392    1.193471   -0.330505
     13          8           0       -4.026200    1.399814   -1.523836
     14          8           0       -4.328627    1.817245    0.596403
     15          6           0        3.331686    0.838727   -0.047837
     16          6           0        4.589890    1.692497    0.113365
     17          6           0        4.281881    3.187084    0.208921
     18          1           0        2.790241    1.161239   -0.947708
     19          1           0        2.661038    1.022170    0.803030
     20          1           0        5.258578    1.506460   -0.736848
     21          1           0        5.128502    1.367789    1.012853
     22          1           0        3.634213    3.392835    1.067288
     23          1           0        3.765028    3.532295   -0.692354
     24          1           0        5.195469    3.778724    0.323728
     25          6           0        3.623301   -0.657700   -0.144756
     26          6           0        2.365096   -1.511469   -0.305959
     27          6           0        2.673105   -3.006057   -0.401515
     28          1           0        4.293948   -0.841141   -0.995624
     29          1           0        4.164746   -0.980210    0.755115
     30          1           0        1.826484   -1.186761   -1.205445
     31          1           0        1.696408   -1.325432    0.544254
     32          1           0        3.189957   -3.351266    0.499760
     33          1           0        3.320772   -3.211807   -1.259882
     34          1           0        1.759517   -3.597696   -0.516322
 ---------------------------------------------------------------------

 SCF Done:  E(RHF) =  -669.534452964     A.U. after   15 cycles
 E2 =    -0.2093014649D+01 EUMP2 =    -0.67162746761243D+03

 The electronic state is 1-A.
 Alpha  occ. eigenvalues --  -20.60745 -20.60740 -15.85800 -11.31158 -11.27747
 Alpha  occ. eigenvalues --  -11.27733 -11.27454 -11.26750 -11.26723 -11.22389
 Alpha  occ. eigenvalues --  -11.22154 -11.21984 -11.21926 -11.21788 -11.21285
 Alpha  occ. eigenvalues --   -1.59821  -1.39375  -1.19343  -1.09011  -1.08725
 Alpha  occ. eigenvalues --   -1.04748  -1.04137  -0.96594  -0.95570  -0.87596
 Alpha  occ. eigenvalues --   -0.86145  -0.82409  -0.80214  -0.78761  -0.77447
 Alpha  occ. eigenvalues --   -0.72019  -0.71145  -0.70480  -0.65626  -0.64996
 Alpha  occ. eigenvalues --   -0.64763  -0.62108  -0.61531  -0.60018  -0.58197
 Alpha  occ. eigenvalues --   -0.55883  -0.55199  -0.53319  -0.53134  -0.52950
 Alpha  occ. eigenvalues --   -0.52835  -0.50506  -0.48778  -0.48773  -0.48512
 Alpha  occ. eigenvalues --   -0.47227  -0.46306  -0.46202  -0.44783  -0.44374
 Alpha  occ. eigenvalues --   -0.37230  -0.36341
 Alpha virt. eigenvalues --    0.05063   0.11230   0.16463   0.19501   0.22669
 Alpha virt. eigenvalues --    0.24064   0.25804   0.26250   0.26947   0.27400
 Alpha virt. eigenvalues --    0.29260   0.30075   0.30835   0.31110   0.31831

 Mulliken charges:
               1
     1  C   -0.169647
     2  C   -0.221298
     3  C   -0.170352
     4  C    0.158367
     5  C   -0.172020
     6  C   -0.216138
     7  H    0.229143
     8  H    0.223195
     9  H    0.275470
    10  H    0.275363
    11  H    0.223741
    12  N    0.488115
    13  O   -0.460606
    14  O   -0.460611
    15  C   -0.298530
    16  C   -0.300191
    17  C   -0.476057
    18  H    0.151489
    19  H    0.150333
    20  H    0.152388
    21  H    0.151657
    22  H    0.155934
    23  H    0.156860
    24  H    0.161255
    25  C   -0.298407
    26  C   -0.303407
    27  C   -0.479082
    28  H    0.150790
    29  H    0.149725
    30  H    0.151860
    31  H    0.152540
    32  H    0.158054
    33  H    0.161071
    34  H    0.148996
 Sum of Mulliken charges =  -0.00000

 Dipole moment (field-independent basis, Debye):
    X=              3.4411    Y=             -3.7386    Z=              1.2189  Tot=              5.2253
 Quadrupole moment (field-independent basis, Debye-Ang):
   XX=           -114.3334   YY=            -97.4749   ZZ=            -88.9638
   XY=             11.4508   XZ=             -4.3953   YZ=              0.9311

 Normal termination of Gaussian 16 at Wed May  5 20:32:56 2021.
