 Gaussian 16, Revision A.03,
 Gaussian 16:  EM64L-G16RevA.03 25-Dec-2016

 -------------
 #p 6-31g* mp2
 -------------

 ------------------------------------------------------
 Input file generated by CHIRIPA (05-May-2021 14:53:16)
 ------------------------------------------------------
 Symbolic Z-matrix:
 Charge =  0 Multiplicity = 1

                         Standard orientation:
 ---------------------------------------------------------------------
 Center     Atomic      Atomic             Coordinates (Angstroms)
 Number     Number       Type             X           Y           Z
 ---------------------------------------------------------------------
      1          6           0       -3.777145    0.580325    0.119936
      2          6           0       -3.028214    1.512864   -0.832671
      3          6           0       -1.663927    1.940240   -0.290577
      4          1           0       -3.906785    1.082793    1.088267
      5          1           0       -3.161683   -0.309955    0.309679
      6          1           0       -3.645498    2.400480   -1.021652
      7          1           0       -2.900510    1.008191   -1.798907
      8          1           0       -1.026714    1.066675   -0.118985
      9          1           0       -1.775934    2.466875    0.662687
     10          1           0       -1.145822    2.606474   -0.987398
     11          6           0       -5.142754    0.144372   -0.408062
     12          6           0       -5.891685   -0.788167    0.544544
     13          6           0       -7.255972   -1.215543    0.002450
     14          1           0       -5.758216    1.034652   -0.597806
     15          1           0       -5.013115   -0.358095   -1.376394
     16          1           0       -6.019389   -0.283494    1.510781
     17          1           0       -5.274401   -1.675783    0.733526
     18          1           0       -7.143965   -1.742177   -0.950813
     19          1           0       -7.893185   -0.341978   -0.169142
     20          1           0       -7.774077   -1.881777    0.699271
     21          6           0        1.059241   -0.649320    0.704756
     22          6           0        1.549520   -1.076091   -0.533797
     23          6           0        2.891420   -0.878401   -0.872575
     24          6           0        3.718785   -0.247679    0.055297
     25          6           0        3.260110    0.188828    1.297219
     26          6           0        1.914593   -0.019333    1.614707
     27          1           0        0.015415   -0.806958    0.959658
     28          1           0        0.887540   -1.565629   -1.242444
     29          1           0        3.297275   -1.198818   -1.824432
     30          1           0        3.944217    0.673850    1.982908
     31          1           0        1.536592    0.313148    2.577316
     32          7           0        5.141310   -0.032850   -0.292083
     33          8           0        5.849777    0.525327    0.542870
     34          8           0        5.520880   -0.426714   -1.392734
 ---------------------------------------------------------------------

 SCF Done:  E(RHF) =  -669.534819455     A.U. after   15 cycles
 E2 =    -0.2091942294D+01 EUMP2 =    -0.67162676174900D+03

 The electronic state is 1-A.
 Alpha  occ. eigenvalues --  -20.60765 -20.60760 -15.85820 -11.31195 -11.27768
 Alpha  occ. eigenvalues --  -11.27762 -11.27504 -11.26793 -11.26773 -11.22338
 Alpha  occ. eigenvalues --  -11.22233 -11.22216 -11.22046 -11.21779 -11.21578
 Alpha  occ. eigenvalues --   -1.59841  -1.39394  -1.19375  -1.09155  -1.08774
 Alpha  occ. eigenvalues --   -1.04775  -1.04204  -0.96660  -0.95605  -0.87670
 Alpha  occ. eigenvalues --   -0.86175  -0.82437  -0.80269  -0.78976  -0.77472
 Alpha  occ. eigenvalues --   -0.72038  -0.71164  -0.70525  -0.65790  -0.65028
 Alpha  occ. eigenvalues --   -0.64779  -0.62121  -0.61609  -0.60019  -0.58278
 Alpha  occ. eigenvalues --   -0.56045  -0.55253  -0.53352  -0.53241  -0.52898
 Alpha  occ. eigenvalues --   -0.52868  -0.50582  -0.48800  -0.48792  -0.48572
 Alpha  occ. eigenvalues --   -0.47305  -0.46507  -0.46441  -0.44797  -0.44464
 Alpha  occ. eigenvalues --   -0.37295  -0.36378
 Alpha virt. eigenvalues --    0.05021   0.11256   0.16411   0.19855   0.22532
 Alpha virt. eigenvalues --    0.23829   0.25276   0.26485   0.27312   0.27434
 Alpha virt. eigenvalues --    0.29061   0.30340   0.31167   0.31382   0.31927

 Mulliken charges:
               1
     1  C   -0.297601
     2  C   -0.300301
     3  C   -0.479425
     4  H    0.150909
     5  H    0.140202
     6  H    0.155460
     7  H    0.151754
     8  H    0.150794
     9  H    0.154772
    10  H    0.165471
    11  C   -0.298483
    12  C   -0.299879
    13  C   -0.476052
    14  H    0.152280
    15  H    0.150185
    16  H    0.152608
    17  H    0.150186
    18  H    0.155757
    19  H    0.156572
    20  H    0.161612
    21  C   -0.169549
    22  C   -0.218777
    23  C   -0.170656
    24  C    0.158721
    25  C   -0.170862
    26  C   -0.219240
    27  H    0.227318
    28  H    0.223387
    29  H    0.275668
    30  H    0.275738
    31  H    0.224151
    32  N    0.488060
    33  O   -0.460343
    34  O   -0.460434
 Sum of Mulliken charges =  -0.00000

 Dipole moment (field-independent basis, Debye):
    X=             -5.1056    Y=             -0.7007    Z=              1.2076  Tot=              5.2930
 Quadrupole moment (field-independent basis, Debye-Ang):
   XX=           -132.7716   YY=            -93.5016   ZZ=            -90.6596
   XY=             -2.0718   XZ=              4.7286   YZ=              2.1540

 Normal termination of Gaussian 16 at Wed May  5 21:58:10 2021.
