 Gaussian 16, Revision A.03,
 Gaussian 16:  EM64L-G16RevA.03 25-Dec-2016

 -------------
 #p 6-31g* mp2
 -------------

 ------------------------------------------------------
 Input file generated by CHIRIPA (05-May-2021 14:57:22)
 ------------------------------------------------------
 Symbolic Z-matrix:
 Charge =  0 Multiplicity = 1

                         Standard orientation:
 ---------------------------------------------------------------------
 Center     Atomic      Atomic             Coordinates (Angstroms)
 Number     Number       Type             X           Y           Z
 ---------------------------------------------------------------------
      1          6           0        5.309872   -2.086466    0.631829
      2          6           0        3.996754   -1.904453    1.078050
      3          6           0        3.285194   -0.749838    0.738793
      4          6           0        3.920373    0.206621   -0.051791
      5          6           0        5.227453    0.054244   -0.511807
      6          6           0        5.919955   -1.108261   -0.160279
      7          1           0        5.855226   -2.986463    0.900138
      8          1           0        3.520427   -2.662461    1.693340
      9          1           0        2.267553   -0.583371    1.070625
     10          1           0        5.675636    0.827553   -1.123806
     11          1           0        6.939627   -1.246935   -0.508248
     12          7           0        3.177165    1.433137   -0.417442
     13          8           0        3.759252    2.260844   -1.115090
     14          8           0        2.026624    1.543548    0.000532
     15          6           0       -2.773641    2.083183    0.621349
     16          6           0       -4.113608    1.938881    0.995763
     17          6           0       -4.826654    0.786449    0.652229
     18          6           0       -4.165567   -0.206304   -0.069362
     19          6           0       -2.831405   -0.091961   -0.456955
     20          6           0       -2.137937    1.069090   -0.102539
     21          1           0       -2.227334    2.981768    0.892441
     22          1           0       -4.609869    2.724811    1.557978
     23          1           0       -5.864789    0.648768    0.929244
     24          1           0       -2.363723   -0.892581   -1.017045
     25          1           0       -1.097382    1.178434   -0.394661
     26          7           0       -4.910073   -1.430894   -0.438806
     27          8           0       -4.304847   -2.291019   -1.074828
     28          8           0       -6.084746   -1.507416   -0.085359
 ---------------------------------------------------------------------

 SCF Done:  E(RHF) =  -868.340177478     A.U. after   16 cycles
 E2 =    -0.2598128144D+01 EUMP2 =    -0.87093830562198D+03

 The electronic state is 1-A.
 Alpha  occ. eigenvalues --  -20.61671 -20.61599 -20.60364 -20.60359 -15.86675
 Alpha  occ. eigenvalues --  -15.85408 -11.31771 -11.30608 -11.28321 -11.28291
 Alpha  occ. eigenvalues --  -11.27983 -11.27254 -11.27244 -11.27163 -11.27098
 Alpha  occ. eigenvalues --  -11.26750 -11.26144 -11.25915  -1.60697  -1.59443
 Alpha  occ. eigenvalues --   -1.40262  -1.39002  -1.19915  -1.18735  -1.09355
 Alpha  occ. eigenvalues --   -1.08143  -1.05277  -1.04100  -0.96237  -0.95018
 Alpha  occ. eigenvalues --   -0.86687  -0.85487  -0.83083  -0.81851  -0.78162
 Alpha  occ. eigenvalues --   -0.76935  -0.72911  -0.71999  -0.71630  -0.71017
 Alpha  occ. eigenvalues --   -0.70765  -0.69812  -0.65572  -0.65272  -0.64369
 Alpha  occ. eigenvalues --   -0.64042  -0.62630  -0.61433  -0.55778  -0.54552
 Alpha  occ. eigenvalues --   -0.53619  -0.53363  -0.52459  -0.52147  -0.49671
 Alpha  occ. eigenvalues --   -0.49622  -0.48398  -0.48367  -0.45722  -0.44445
 Alpha  occ. eigenvalues --   -0.37873  -0.36868  -0.36690  -0.35715
 Alpha virt. eigenvalues --    0.04337   0.05566   0.10790   0.11946   0.15872
 Alpha virt. eigenvalues --    0.17124   0.20892   0.22246   0.26805   0.27395
 Alpha virt. eigenvalues --    0.28460   0.29040   0.30494   0.31527   0.32420

 Mulliken charges:
               1
     1  C   -0.169803
     2  C   -0.218201
     3  C   -0.171001
     4  C    0.157813
     5  C   -0.170450
     6  C   -0.218386
     7  H    0.228207
     8  H    0.226212
     9  H    0.273221
    10  H    0.276426
    11  H    0.225511
    12  N    0.492051
    13  O   -0.455716
    14  O   -0.473605
    15  C   -0.172620
    16  C   -0.218904
    17  C   -0.172907
    18  C    0.158300
    19  C   -0.174528
    20  C   -0.227341
    21  H    0.230424
    22  H    0.221432
    23  H    0.273078
    24  H    0.272515
    25  H    0.245207
    26  N    0.488131
    27  O   -0.462878
    28  O   -0.462188
 Sum of Mulliken charges =  -0.00000

 Dipole moment (field-independent basis, Debye):
    X=              5.7318    Y=              0.0348    Z=              2.5873  Tot=              6.2888
 Quadrupole moment (field-independent basis, Debye-Ang):
   XX=           -100.0279   YY=           -108.0883   ZZ=           -104.1044
   XY=            -35.9971   XZ=             -5.1866   YZ=             -0.3165

 Normal termination of Gaussian 16 at Fri May  7 03:16:26 2021.
