 Gaussian 16, Revision A.03,
 Gaussian 16:  EM64L-G16RevA.03 25-Dec-2016

 -------------
 #p 6-31g* mp2
 -------------

 ------------------------------------------------------
 Input file generated by CHIRIPA (05-May-2021 14:53:11)
 ------------------------------------------------------
 Symbolic Z-matrix:
 Charge =  0 Multiplicity = 1

                         Standard orientation:
 ---------------------------------------------------------------------
 Center     Atomic      Atomic             Coordinates (Angstroms)
 Number     Number       Type             X           Y           Z
 ---------------------------------------------------------------------
      1          6           0        3.963987    0.405078   -0.403534
      2          6           0        4.393202   -0.920209    0.226841
      3          6           0        5.691560   -1.465183   -0.369032
      4          1           0        3.842159    0.266234   -1.486505
      5          1           0        4.767275    1.143098   -0.271436
      6          1           0        3.588778   -1.655114    0.094808
      7          1           0        4.513837   -0.778242    1.308464
      8          1           0        6.510517   -0.753173   -0.224284
      9          1           0        5.580202   -1.635027   -1.444836
     10          1           0        5.979913   -2.413045    0.096018
     11          6           0        2.667686    0.962581    0.181719
     12          6           0        2.238470    2.287869   -0.448656
     13          6           0        0.940112    2.832843    0.147216
     14          1           0        1.864397    0.224562    0.049620
     15          1           0        2.789513    1.101425    1.264689
     16          1           0        2.117836    2.145901   -1.530279
     17          1           0        3.042895    3.022773   -0.316623
     18          1           0        1.051470    3.002687    1.223020
     19          1           0        0.121156    2.120832    0.002468
     20          1           0        0.651760    3.780704   -0.317833
     21          6           0       -0.880756   -2.356541    0.435838
     22          6           0       -0.691996   -1.098718    1.017881
     23          6           0       -1.632768   -0.081555    0.831126
     24          6           0       -2.755789   -0.358069    0.052888
     25          6           0       -2.972126   -1.600956   -0.540172
     26          6           0       -2.018212   -2.603210   -0.339963
     27          1           0       -0.144838   -3.140907    0.586139
     28          1           0        0.190419   -0.904307    1.620867
     29          1           0       -1.511583    0.901309    1.270114
     30          1           0       -3.861756   -1.764785   -1.136104
     31          1           0       -2.167421   -3.579098   -0.793202
     32          7           0       -3.758698    0.710865   -0.151942
     33          8           0       -4.739642    0.441955   -0.841922
     34          8           0       -3.544842    1.797364    0.381370
 ---------------------------------------------------------------------

 SCF Done:  E(RHF) =  -669.534876690     A.U. after   15 cycles
 E2 =    -0.2093290866D+01 EUMP2 =    -0.67162816755579D+03

 The electronic state is 1-A.
 Alpha  occ. eigenvalues --  -20.60779 -20.60773 -15.85831 -11.31221 -11.27792
 Alpha  occ. eigenvalues --  -11.27749 -11.27532 -11.26813 -11.26768 -11.22265
 Alpha  occ. eigenvalues --  -11.21984 -11.21935 -11.21890 -11.21610 -11.21322
 Alpha  occ. eigenvalues --   -1.59853  -1.39405  -1.19400  -1.08966  -1.08784
 Alpha  occ. eigenvalues --   -1.04808  -1.04005  -0.96452  -0.95615  -0.87475
 Alpha  occ. eigenvalues --   -0.86189  -0.82449  -0.80091  -0.78834  -0.77469
 Alpha  occ. eigenvalues --   -0.72048  -0.71178  -0.70506  -0.65605  -0.65044
 Alpha  occ. eigenvalues --   -0.64804  -0.62194  -0.61366  -0.59812  -0.58075
 Alpha  occ. eigenvalues --   -0.55753  -0.55293  -0.53187  -0.53163  -0.53080
 Alpha  occ. eigenvalues --   -0.52583  -0.50375  -0.48814  -0.48802  -0.48390
 Alpha  occ. eigenvalues --   -0.47120  -0.46326  -0.46255  -0.44800  -0.44262
 Alpha  occ. eigenvalues --   -0.37373  -0.36340
 Alpha virt. eigenvalues --    0.04998   0.11074   0.16429   0.20731   0.22636
 Alpha virt. eigenvalues --    0.23843   0.25791   0.26185   0.26513   0.28703
 Alpha virt. eigenvalues --    0.29203   0.30351   0.31053   0.31446   0.31744

 Mulliken charges:
               1
     1  C   -0.297599
     2  C   -0.299258
     3  C   -0.475816
     4  H    0.151832
     5  H    0.152099
     6  H    0.145174
     7  H    0.151291
     8  H    0.157551
     9  H    0.156473
    10  H    0.160119
    11  C   -0.306345
    12  C   -0.298971
    13  C   -0.482123
    14  H    0.150145
    15  H    0.145996
    16  H    0.154680
    17  H    0.153606
    18  H    0.152065
    19  H    0.157126
    20  H    0.168117
    21  C   -0.172962
    22  C   -0.219072
    23  C   -0.174066
    24  C    0.157739
    25  C   -0.170890
    26  C   -0.218127
    27  H    0.226055
    28  H    0.228260
    29  H    0.279660
    30  H    0.275754
    31  H    0.223612
    32  N    0.488315
    33  O   -0.460400
    34  O   -0.460039
 Sum of Mulliken charges =  -0.00000

 Dipole moment (field-independent basis, Debye):
    X=              3.5543    Y=             -3.6978    Z=              0.6511  Tot=              5.1702
 Quadrupole moment (field-independent basis, Debye-Ang):
   XX=           -113.5409   YY=            -90.2081   ZZ=            -93.3076
   XY=             11.9924   XZ=              0.4229   YZ=              1.6212

 Normal termination of Gaussian 16 at Wed May  5 18:30:29 2021.
