 Gaussian 16, Revision A.03,
 Gaussian 16:  EM64L-G16RevA.03 25-Dec-2016

 -------------
 #p 6-31g* mp2
 -------------

 ------------------------------------------------------
 Input file generated by CHIRIPA (05-May-2021 14:51:13)
 ------------------------------------------------------
 Symbolic Z-matrix:
 Charge =  0 Multiplicity = 1

                         Standard orientation:
 ---------------------------------------------------------------------
 Center     Atomic      Atomic             Coordinates (Angstroms)
 Number     Number       Type             X           Y           Z
 ---------------------------------------------------------------------
      1          6           0       -2.491645    0.602682    0.322072
      2          6           0       -3.306271    0.527233   -0.969701
      3          6           0       -3.861150    1.885806   -1.398866
      4          1           0       -3.122794    1.012075    1.122693
      5          1           0       -1.663149    1.311152    0.184018
      6          1           0       -4.132170   -0.181926   -0.829703
      7          1           0       -2.673167    0.117793   -1.767294
      8          1           0       -3.047431    2.598933   -1.565936
      9          1           0       -4.514724    2.297512   -0.623018
     10          1           0       -4.440129    1.808771   -2.324452
     11          6           0       -1.930263   -0.747604    0.764005
     12          6           0       -1.115638   -0.672155    2.055778
     13          6           0       -0.560759   -2.030729    2.484943
     14          1           0       -2.758760   -1.456074    0.902059
     15          1           0       -1.299115   -1.156997   -0.036616
     16          1           0       -1.748742   -0.262715    2.853371
     17          1           0       -0.289738    0.037004    1.915780
     18          1           0        0.092816   -2.442434    1.709095
     19          1           0       -1.374478   -2.743855    2.652013
     20          1           0        0.018220   -1.953693    3.410529
     21          6           0        2.646946    0.464530   -0.053523
     22          6           0        2.355345    1.965510   -0.049837
     23          6           0        3.235533    2.736296    0.934516
     24          1           0        2.501208    0.066662    0.960087
     25          1           0        3.704969    0.304239   -0.303098
     26          1           0        1.297855    2.122861    0.198301
     27          1           0        2.501608    2.359816   -1.063615
     28          1           0        4.294140    2.608874    0.686090
     29          1           0        3.083549    2.370572    1.955176
     30          1           0        3.010372    3.807266    0.920833
     31          6           0        1.774964   -0.319608   -1.032554
     32          6           0        2.066563   -1.820588   -1.036240
     33          6           0        1.186375   -2.591374   -2.020593
     34          1           0        0.716940   -0.159318   -0.782979
     35          1           0        1.920701    0.078259   -2.046165
     36          1           0        1.920300   -2.214894   -0.022462
     37          1           0        3.124053   -1.977939   -1.284378
     38          1           0        1.338360   -2.225651   -3.041254
     39          1           0        0.127767   -2.463952   -1.772168
     40          1           0        1.411536   -3.662343   -2.006910
 ---------------------------------------------------------------------

 SCF Done:  E(RHF) =  -470.732571833     A.U. after   11 cycles
 E2 =    -0.1585970181D+01 EUMP2 =    -0.47231854201390D+03

 The electronic state is 1-A.
 Alpha  occ. eigenvalues --  -11.21682 -11.21668 -11.21659 -11.21636 -11.21466
 Alpha  occ. eigenvalues --  -11.21448 -11.21406 -11.21387 -11.21136 -11.21132
 Alpha  occ. eigenvalues --  -11.21111 -11.21087  -1.08577  -1.08420  -1.03619
 Alpha  occ. eigenvalues --   -1.03560  -0.96046  -0.96027  -0.87056  -0.87050
 Alpha  occ. eigenvalues --   -0.79670  -0.79636  -0.78362  -0.78271  -0.65731
 Alpha  occ. eigenvalues --   -0.64613  -0.61169  -0.60785  -0.59413  -0.59391
 Alpha  occ. eigenvalues --   -0.57686  -0.57606  -0.55404  -0.55284  -0.52729
 Alpha  occ. eigenvalues --   -0.52722  -0.52473  -0.52454  -0.50059  -0.49951
 Alpha  occ. eigenvalues --   -0.48076  -0.47911  -0.46765  -0.46611  -0.46198
 Alpha  occ. eigenvalues --   -0.45794  -0.45715  -0.45334  -0.43845  -0.43832
 Alpha virt. eigenvalues --    0.18260   0.21736   0.22709   0.24722   0.25303
 Alpha virt. eigenvalues --    0.26189   0.26619   0.28594   0.28871   0.29792
 Alpha virt. eigenvalues --    0.30967   0.31128   0.31711   0.31891   0.32329

 Mulliken charges:
               1
     1  C   -0.301408
     2  C   -0.299889
     3  C   -0.475832
     4  H    0.150341
     5  H    0.151326
     6  H    0.152181
     7  H    0.152264
     8  H    0.155561
     9  H    0.155164
    10  H    0.160479
    11  C   -0.307269
    12  C   -0.302750
    13  C   -0.480866
    14  H    0.150913
    15  H    0.156590
    16  H    0.152792
    17  H    0.154182
    18  H    0.159713
    19  H    0.155879
    20  H    0.160362
    21  C   -0.299240
    22  C   -0.302790
    23  C   -0.475632
    24  H    0.151042
    25  H    0.150071
    26  H    0.153273
    27  H    0.152282
    28  H    0.155469
    29  H    0.155370
    30  H    0.160492
    31  C   -0.306183
    32  C   -0.304293
    33  C   -0.479989
    34  H    0.157285
    35  H    0.149853
    36  H    0.155750
    37  H    0.152893
    38  H    0.155662
    39  H    0.157988
    40  H    0.160964
 Sum of Mulliken charges =  -0.00000

 Dipole moment (field-independent basis, Debye):
    X=             -0.0032    Y=             -0.0048    Z=             -0.0033  Tot=              0.0066
 Quadrupole moment (field-independent basis, Debye-Ang):
   XX=            -84.0062   YY=            -86.0038   ZZ=            -84.5580
   XY=              0.2820   XZ=             -1.5597   YZ=             -0.2617

 Normal termination of Gaussian 16 at Wed May  5 21:37:22 2021.
