 Gaussian 16, Revision A.03,
 Gaussian 16:  EM64L-G16RevA.03 25-Dec-2016

 -------------
 #p 6-31g* mp2
 -------------

 ------------------------------------------------------
 Input file generated by CHIRIPA (05-May-2021 14:57:25)
 ------------------------------------------------------
 Symbolic Z-matrix:
 Charge =  0 Multiplicity = 1

                         Standard orientation:
 ---------------------------------------------------------------------
 Center     Atomic      Atomic             Coordinates (Angstroms)
 Number     Number       Type             X           Y           Z
 ---------------------------------------------------------------------
      1          6           0        2.156979    2.405791    0.916383
      2          6           0        2.646427    1.513274    1.875745
      3          6           0        3.001206    0.209450    1.516967
      4          6           0        2.853033   -0.170087    0.183818
      5          6           0        2.368278    0.695958   -0.795095
      6          6           0        2.019708    1.995008   -0.413630
      7          1           0        1.883790    3.416778    1.203903
      8          1           0        2.754088    1.829543    2.909393
      9          1           0        3.382675   -0.501970    2.239311
     10          1           0        2.272074    0.351705   -1.817667
     11          1           0        1.639864    2.686003   -1.160818
     12          7           0        3.225335   -1.547860   -0.208014
     13          8           0        3.085407   -1.857767   -1.389121
     14          8           0        3.650023   -2.291765    0.673396
     15          6           0       -4.478925   -1.078975    1.324704
     16          6           0       -4.453520    0.305770    1.128849
     17          6           0       -3.523026    0.882950    0.259602
     18          6           0       -2.628555    0.041816   -0.400478
     19          6           0       -2.628843   -1.341285   -0.226335
     20          6           0       -3.568111   -1.896641    0.647680
     21          1           0       -5.205164   -1.518865    2.001808
     22          1           0       -5.159669    0.943229    1.653298
     23          1           0       -3.481277    1.951933    0.089455
     24          1           0       -1.912254   -1.950934   -0.763220
     25          1           0       -3.585526   -2.972370    0.797841
     26          7           0       -1.638839    0.641298   -1.323234
     27          8           0       -0.861502   -0.121525   -1.892872
     28          8           0       -1.659175    1.862645   -1.459381
 ---------------------------------------------------------------------

 SCF Done:  E(RHF) =  -868.340134669     A.U. after   16 cycles
 E2 =    -0.2599951428D+01 EUMP2 =    -0.87094008609695D+03

 The electronic state is 1-A.
 Alpha  occ. eigenvalues --  -20.61324 -20.61280 -20.60008 -20.59969 -15.86301
 Alpha  occ. eigenvalues --  -15.85035 -11.31456 -11.30209 -11.28036 -11.27950
 Alpha  occ. eigenvalues --  -11.27715 -11.27000 -11.26934 -11.26885 -11.26612
 Alpha  occ. eigenvalues --  -11.26542 -11.25884 -11.25583  -1.60353  -1.59073
 Alpha  occ. eigenvalues --   -1.39914  -1.38627  -1.19611  -1.18394  -1.09052
 Alpha  occ. eigenvalues --   -1.07835  -1.04980  -1.03738  -0.95923  -0.94689
 Alpha  occ. eigenvalues --   -0.86389  -0.85152  -0.82761  -0.81507  -0.77828
 Alpha  occ. eigenvalues --   -0.76562  -0.72556  -0.71650  -0.71260  -0.70719
 Alpha  occ. eigenvalues --   -0.70395  -0.69506  -0.65269  -0.64983  -0.64035
 Alpha  occ. eigenvalues --   -0.63721  -0.62324  -0.61058  -0.55498  -0.54301
 Alpha  occ. eigenvalues --   -0.53328  -0.53067  -0.52132  -0.51807  -0.49316
 Alpha  occ. eigenvalues --   -0.49296  -0.48025  -0.47998  -0.45362  -0.44071
 Alpha  occ. eigenvalues --   -0.37591  -0.36574  -0.36416  -0.35300
 Alpha virt. eigenvalues --    0.04653   0.05956   0.11083   0.12324   0.16211
 Alpha virt. eigenvalues --    0.17442   0.21245   0.22462   0.27180   0.28094
 Alpha virt. eigenvalues --    0.28516   0.29303   0.30825   0.31927   0.32378

 Mulliken charges:
               1
     1  C   -0.173322
     2  C   -0.220757
     3  C   -0.173925
     4  C    0.152668
     5  C   -0.161742
     6  C   -0.219814
     7  H    0.222597
     8  H    0.217958
     9  H    0.270793
    10  H    0.285047
    11  H    0.234744
    12  N    0.487740
    13  O   -0.457756
    14  O   -0.467050
    15  C   -0.170207
    16  C   -0.218888
    17  C   -0.171278
    18  C    0.158397
    19  C   -0.170610
    20  C   -0.218742
    21  H    0.226730
    22  H    0.223283
    23  H    0.273351
    24  H    0.280561
    25  H    0.226527
    26  N    0.490167
    27  O   -0.459036
    28  O   -0.467435
 Sum of Mulliken charges =  -0.00000

 Dipole moment (field-independent basis, Debye):
    X=             -5.0732    Y=              2.6935    Z=              4.3352  Tot=              7.1962
 Quadrupole moment (field-independent basis, Debye-Ang):
   XX=            -94.8866   YY=           -103.0832   ZZ=           -103.2064
   XY=             18.0003   XZ=             -3.5761   YZ=              1.3994

 Normal termination of Gaussian 16 at Fri May  7 06:36:01 2021.
