 Gaussian 16, Revision A.03,
 Gaussian 16:  EM64L-G16RevA.03 25-Dec-2016

 -------------
 #p 6-31g* mp2
 -------------

 ------------------------------------------------------
 Input file generated by CHIRIPA (05-May-2021 14:51:09)
 ------------------------------------------------------
 Symbolic Z-matrix:
 Charge =  0 Multiplicity = 1

                         Standard orientation:
 ---------------------------------------------------------------------
 Center     Atomic      Atomic             Coordinates (Angstroms)
 Number     Number       Type             X           Y           Z
 ---------------------------------------------------------------------
      1          6           0       -2.045624   -1.434494    0.314294
      2          6           0       -0.967759   -1.906756   -0.662006
      3          6           0        0.027832   -2.873958   -0.020823
      4          1           0       -1.564769   -0.950555    1.175413
      5          1           0       -2.583235   -2.308653    0.706994
      6          1           0       -0.433255   -1.031874   -1.053801
      7          1           0       -1.451244   -2.389457   -1.520993
      8          1           0       -0.487105   -3.764280    0.354366
      9          1           0        0.536668   -2.398984    0.824213
     10          1           0        0.789562   -3.198891   -0.736397
     11          6           0       -3.048394   -0.467040   -0.311976
     12          6           0       -4.126259    0.005222    0.664324
     13          6           0       -5.121849    0.972424    0.023141
     14          1           0       -2.510782    0.407119   -0.704676
     15          1           0       -3.529249   -0.950979   -1.173095
     16          1           0       -3.642773    0.487923    1.523310
     17          1           0       -4.660762   -0.869660    1.056118
     18          1           0       -5.630686    0.497450   -0.821895
     19          1           0       -4.606912    1.862746   -0.352049
     20          1           0       -5.883580    1.297356    0.738715
     21          6           0        1.872725    1.176307   -0.280272
     22          6           0        1.440478    2.555408    0.218955
     23          6           0        0.089602    2.992742   -0.348201
     24          1           0        1.921051    1.189226   -1.377743
     25          1           0        1.104385    0.438780   -0.009895
     26          1           0        2.210059    3.289880   -0.051071
     27          1           0        1.393360    2.539260    1.315375
     28          1           0       -0.694429    2.282129   -0.067267
     29          1           0        0.126910    3.037014   -1.441475
     30          1           0       -0.200067    3.981247    0.021679
     31          6           0        3.221294    0.725228    0.277954
     32          6           0        3.653539   -0.653874   -0.221273
     33          6           0        5.004415   -1.091209    0.345883
     34          1           0        3.989633    1.462755    0.007577
     35          1           0        3.172966    0.712308    1.375425
     36          1           0        3.700658   -0.637725   -1.317692
     37          1           0        2.883958   -1.388345    0.048753
     38          1           0        4.967107   -1.135479    1.439158
     39          1           0        5.788447   -0.380594    0.064949
     40          1           0        5.294084   -2.079713   -0.023996
 ---------------------------------------------------------------------

 SCF Done:  E(RHF) =  -470.732758063     A.U. after   11 cycles
 E2 =    -0.1584787608D+01 EUMP2 =    -0.47231754567144D+03

 The electronic state is 1-A.
 Alpha  occ. eigenvalues --  -11.21662 -11.21607 -11.21569 -11.21550 -11.21430
 Alpha  occ. eigenvalues --  -11.21424 -11.21367 -11.21360 -11.21157 -11.21109
 Alpha  occ. eigenvalues --  -11.21059 -11.21050  -1.08498  -1.08411  -1.03558
 Alpha  occ. eigenvalues --   -1.03540  -0.96026  -0.95984  -0.87069  -0.86974
 Alpha  occ. eigenvalues --   -0.79680  -0.79547  -0.78353  -0.78191  -0.65369
 Alpha  occ. eigenvalues --   -0.64843  -0.61008  -0.60910  -0.59404  -0.59336
 Alpha  occ. eigenvalues --   -0.57652  -0.57573  -0.55410  -0.55194  -0.52721
 Alpha  occ. eigenvalues --   -0.52671  -0.52494  -0.52370  -0.50141  -0.49767
 Alpha  occ. eigenvalues --   -0.48004  -0.47895  -0.46817  -0.46501  -0.46081
 Alpha  occ. eigenvalues --   -0.45806  -0.45712  -0.45277  -0.43809  -0.43787
 Alpha virt. eigenvalues --    0.19410   0.22009   0.23928   0.24502   0.25904
 Alpha virt. eigenvalues --    0.26603   0.27021   0.27548   0.28430   0.30108
 Alpha virt. eigenvalues --    0.31089   0.31284   0.31635   0.31858   0.32068

 Mulliken charges:
               1
     1  C   -0.299099
     2  C   -0.305763
     3  C   -0.478134
     4  H    0.148622
     5  H    0.149941
     6  H    0.157800
     7  H    0.152670
     8  H    0.155599
     9  H    0.155082
    10  H    0.161901
    11  C   -0.303180
    12  C   -0.299543
    13  C   -0.475882
    14  H    0.154072
    15  H    0.150084
    16  H    0.151616
    17  H    0.151964
    18  H    0.155174
    19  H    0.155791
    20  H    0.160218
    21  C   -0.306223
    22  C   -0.299021
    23  C   -0.480513
    24  H    0.149456
    25  H    0.157734
    26  H    0.152447
    27  H    0.151754
    28  H    0.158106
    29  H    0.155619
    30  H    0.160913
    31  C   -0.297453
    32  C   -0.306617
    33  C   -0.475361
    34  H    0.149603
    35  H    0.149047
    36  H    0.151339
    37  H    0.160100
    38  H    0.154927
    39  H    0.154949
    40  H    0.160260
 Sum of Mulliken charges =  -0.00000

 Dipole moment (field-independent basis, Debye):
    X=             -0.0038    Y=             -0.0054    Z=             -0.0198  Tot=              0.0209
 Quadrupole moment (field-independent basis, Debye-Ang):
   XX=            -85.8550   YY=            -84.6369   ZZ=            -84.2866
   XY=              1.6541   XZ=             -0.7609   YZ=              0.2574

 Normal termination of Gaussian 16 at Thu May  6 02:09:29 2021.
