 Gaussian 16, Revision A.03,
 Gaussian 16:  EM64L-G16RevA.03 25-Dec-2016

 -------------
 #p 6-31g* mp2
 -------------

 ------------------------------------------------------
 Input file generated by CHIRIPA (05-May-2021 14:51:11)
 ------------------------------------------------------
 Symbolic Z-matrix:
 Charge =  0 Multiplicity = 1

                         Standard orientation:
 ---------------------------------------------------------------------
 Center     Atomic      Atomic             Coordinates (Angstroms)
 Number     Number       Type             X           Y           Z
 ---------------------------------------------------------------------
      1          6           0       -4.198292   -0.605367   -0.203166
      2          6           0       -3.149503   -1.647103    0.187747
      3          6           0       -3.555818   -3.069265   -0.199754
      4          1           0       -5.153857   -0.858678    0.276078
      5          1           0       -4.369209   -0.656309   -1.287411
      6          1           0       -2.979604   -1.593267    1.270730
      7          1           0       -2.196275   -1.391175   -0.292330
      8          1           0       -3.706153   -3.145742   -1.281489
      9          1           0       -4.493932   -3.348983    0.290451
     10          1           0       -2.791804   -3.797826    0.088935
     11          6           0       -3.806457    0.821228    0.177651
     12          6           0       -4.855247    1.862963   -0.213262
     13          6           0       -4.448931    3.285125    0.174239
     14          1           0       -3.635540    0.872170    1.261896
     15          1           0       -2.850893    1.074539   -0.301593
     16          1           0       -5.808475    1.607035    0.266815
     17          1           0       -5.025146    1.809128   -1.296245
     18          1           0       -3.510818    3.564844   -0.315966
     19          1           0       -4.298597    3.361603    1.255974
     20          1           0       -5.212946    4.013686   -0.114450
     21          6           0        4.535623    0.302789   -0.348337
     22          6           0        5.847901    0.410182    0.429079
     23          6           0        6.904809    1.234859   -0.306209
     24          1           0        4.734705   -0.146126   -1.331081
     25          1           0        4.146782    1.312664   -0.538994
     26          1           0        6.233441   -0.599643    0.619416
     27          1           0        5.645642    0.858716    1.410162
     28          1           0        6.544435    2.253447   -0.482872
     29          1           0        7.135573    0.786800   -1.278111
     30          1           0        7.834778    1.298708    0.267325
     31          6           0        3.469127   -0.518649    0.373852
     32          6           0        2.156848   -0.626042   -0.403563
     33          6           0        1.099941   -1.450720    0.331724
     34          1           0        3.857968   -1.528524    0.564509
     35          1           0        3.270045   -0.069735    1.356596
     36          1           0        2.359107   -1.074578   -1.384647
     37          1           0        1.771308    0.383782   -0.593901
     38          1           0        0.869177   -1.002661    1.303626
     39          1           0        1.460315   -2.469307    0.508387
     40          1           0        0.169972   -1.514568   -0.241810
 ---------------------------------------------------------------------

 SCF Done:  E(RHF) =  -470.733227130     A.U. after   11 cycles
 E2 =    -0.1582384397D+01 EUMP2 =    -0.47231561152710D+03

 The electronic state is 1-A.
 Alpha  occ. eigenvalues --  -11.21601 -11.21600 -11.21595 -11.21554 -11.21403
 Alpha  occ. eigenvalues --  -11.21389 -11.21344 -11.21329 -11.21071 -11.21071
 Alpha  occ. eigenvalues --  -11.21042 -11.21036  -1.08430  -1.08411  -1.03539
 Alpha  occ. eigenvalues --   -1.03500  -0.95985  -0.95952  -0.87009  -0.86961
 Alpha  occ. eigenvalues --   -0.79646  -0.79522  -0.78250  -0.78217  -0.65061
 Alpha  occ. eigenvalues --   -0.65048  -0.60941  -0.60916  -0.59463  -0.59223
 Alpha  occ. eigenvalues --   -0.57646  -0.57510  -0.55257  -0.55252  -0.52733
 Alpha  occ. eigenvalues --   -0.52622  -0.52415  -0.52367  -0.49918  -0.49897
 Alpha  occ. eigenvalues --   -0.47988  -0.47817  -0.46627  -0.46594  -0.45785
 Alpha  occ. eigenvalues --   -0.45769  -0.45705  -0.45691  -0.43795  -0.43695
 Alpha virt. eigenvalues --    0.21924   0.23054   0.23616   0.24713   0.26191
 Alpha virt. eigenvalues --    0.26637   0.26992   0.27530   0.27990   0.28820
 Alpha virt. eigenvalues --    0.30244   0.31359   0.31592   0.31902   0.32045

 Mulliken charges:
               1
     1  C   -0.297717
     2  C   -0.305511
     3  C   -0.475813
     4  H    0.149575
     5  H    0.149213
     6  H    0.152309
     7  H    0.157457
     8  H    0.154730
     9  H    0.155139
    10  H    0.160829
    11  C   -0.298202
    12  C   -0.299628
    13  C   -0.475682
    14  H    0.149529
    15  H    0.149415
    16  H    0.151970
    17  H    0.151897
    18  H    0.155064
    19  H    0.155128
    20  H    0.160240
    21  C   -0.298228
    22  C   -0.299638
    23  C   -0.475701
    24  H    0.149586
    25  H    0.149484
    26  H    0.151927
    27  H    0.151970
    28  H    0.155179
    29  H    0.155155
    30  H    0.160259
    31  C   -0.298552
    32  C   -0.299161
    33  C   -0.481349
    34  H    0.149536
    35  H    0.149730
    36  H    0.151645
    37  H    0.151604
    38  H    0.155619
    39  H    0.154946
    40  H    0.166048
 Sum of Mulliken charges =  -0.00000

 Dipole moment (field-independent basis, Debye):
    X=              0.0005    Y=             -0.0075    Z=              0.0089  Tot=              0.0117
 Quadrupole moment (field-independent basis, Debye-Ang):
   XX=            -85.3303   YY=            -85.5581   ZZ=            -83.9485
   XY=             -0.8928   XZ=             -0.2819   YZ=              0.2815

 Normal termination of Gaussian 16 at Wed May  5 16:44:57 2021.
