 Gaussian 16, Revision A.03,
 Gaussian 16:  EM64L-G16RevA.03 25-Dec-2016

 -------------
 #p 6-31g* mp2
 -------------

 ------------------------------------------------------
 Input file generated by CHIRIPA (05-May-2021 14:55:21)
 ------------------------------------------------------
 Symbolic Z-matrix:
 Charge =  0 Multiplicity = 1

                         Standard orientation:
 ---------------------------------------------------------------------
 Center     Atomic      Atomic             Coordinates (Angstroms)
 Number     Number       Type             X           Y           Z
 ---------------------------------------------------------------------
      1          6           0       -0.831818    0.525440    0.053747
      2          6           0       -1.461725    0.052047    1.209445
      3          6           0       -2.824799   -0.258531    1.198626
      4          6           0       -3.530729   -0.083007    0.009448
      5          6           0       -2.931584    0.386736   -1.158309
      6          6           0       -1.567461    0.690982   -1.124364
      7          1           0        0.227458    0.764246    0.071134
      8          1           0       -0.892913   -0.077495    2.125806
      9          1           0       -3.337552   -0.626703    2.078940
     10          1           0       -3.524926    0.505547   -2.056778
     11          1           0       -1.080899    1.058449   -2.023403
     12          7           0       -4.974309   -0.408451   -0.014246
     13          8           0       -5.574011   -0.245100   -1.074582
     14          8           0       -5.478752   -0.820722    1.027966
     15          6           0        4.246085    0.705996    0.351271
     16          6           0        3.485151    1.826007   -0.359040
     17          6           0        3.557018    3.156968    0.390075
     18          1           0        3.839927    0.580603    1.364314
     19          1           0        5.296854    1.004420    0.470522
     20          1           0        2.436432    1.524981   -0.478152
     21          1           0        3.893040    1.948620   -1.370578
     22          1           0        4.596563    3.483508    0.496464
     23          1           0        3.131680    3.057462    1.393961
     24          1           0        3.006401    3.943561   -0.135236
     25          6           0        4.183507   -0.630809   -0.385455
     26          6           0        4.944441   -1.750820    0.324856
     27          6           0        4.872574   -3.081780   -0.424260
     28          1           0        3.132738   -0.929233   -0.504706
     29          1           0        4.589664   -0.505416   -1.398499
     30          1           0        4.536552   -1.873432    1.336394
     31          1           0        5.993160   -1.449793    0.443968
     32          1           0        5.297912   -2.982274   -1.428145
     33          1           0        3.833028   -3.408321   -0.530648
     34          1           0        5.423191   -3.868373    0.101052
 ---------------------------------------------------------------------

 SCF Done:  E(RHF) =  -669.535471329     A.U. after   15 cycles
 E2 =    -0.2091098292D+01 EUMP2 =    -0.67162656962148D+03

 The electronic state is 1-A.
 Alpha  occ. eigenvalues --  -20.60752 -20.60747 -15.85806 -11.31173 -11.27744
 Alpha  occ. eigenvalues --  -11.27739 -11.27470 -11.26762 -11.26748 -11.22798
 Alpha  occ. eigenvalues --  -11.22372 -11.22320 -11.22246 -11.22044 -11.21652
 Alpha  occ. eigenvalues --   -1.59827  -1.39381  -1.19346  -1.09367  -1.08740
 Alpha  occ. eigenvalues --   -1.04750  -1.04413  -0.96828  -0.95577  -0.87843
 Alpha  occ. eigenvalues --   -0.86147  -0.82412  -0.80498  -0.79164  -0.77454
 Alpha  occ. eigenvalues --   -0.72024  -0.71151  -0.70481  -0.66011  -0.64998
 Alpha  occ. eigenvalues --   -0.64753  -0.62099  -0.61824  -0.60211  -0.58442
 Alpha  occ. eigenvalues --   -0.56115  -0.55271  -0.53514  -0.53239  -0.53079
 Alpha  occ. eigenvalues --   -0.52842  -0.50774  -0.48813  -0.48779  -0.48762
 Alpha  occ. eigenvalues --   -0.47549  -0.46690  -0.46622  -0.44786  -0.44667
 Alpha  occ. eigenvalues --   -0.37325  -0.36356
 Alpha virt. eigenvalues --    0.05078   0.11299   0.16555   0.18665   0.22645
 Alpha virt. eigenvalues --    0.23596   0.24983   0.26230   0.27143   0.27395
 Alpha virt. eigenvalues --    0.29206   0.30463   0.30993   0.31054   0.32261

 Mulliken charges:
               1
     1  C   -0.178823
     2  C   -0.221201
     3  C   -0.170564
     4  C    0.158286
     5  C   -0.170802
     6  C   -0.221910
     7  H    0.238688
     8  H    0.223742
     9  H    0.275490
    10  H    0.275644
    11  H    0.223617
    12  N    0.487971
    13  O   -0.460434
    14  O   -0.460472
    15  C   -0.298639
    16  C   -0.305016
    17  C   -0.475893
    18  H    0.147893
    19  H    0.154269
    20  H    0.141863
    21  H    0.156896
    22  H    0.159972
    23  H    0.154672
    24  H    0.162136
    25  C   -0.298607
    26  C   -0.300047
    27  C   -0.476317
    28  H    0.144854
    29  H    0.152173
    30  H    0.151710
    31  H    0.154089
    32  H    0.156406
    33  H    0.155679
    34  H    0.162676
 Sum of Mulliken charges =  -0.00000

 Dipole moment (field-independent basis, Debye):
    X=              5.3325    Y=              1.1542    Z=              0.0735  Tot=              5.4565
 Quadrupole moment (field-independent basis, Debye-Ang):
   XX=           -129.4984   YY=            -96.0349   ZZ=            -90.0359
   XY=             -4.1980   XZ=             -0.4614   YZ=             -2.0548

 Normal termination of Gaussian 16 at Thu May  6 03:01:29 2021.
