 Gaussian 16, Revision A.03,
 Gaussian 16:  EM64L-G16RevA.03 25-Dec-2016

 -------------
 #p 6-31g* mp2
 -------------

 ------------------------------------------------------
 Input file generated by CHIRIPA (05-May-2021 14:55:23)
 ------------------------------------------------------
 Symbolic Z-matrix:
 Charge =  0 Multiplicity = 1

                         Standard orientation:
 ---------------------------------------------------------------------
 Center     Atomic      Atomic             Coordinates (Angstroms)
 Number     Number       Type             X           Y           Z
 ---------------------------------------------------------------------
      1          6           0       -1.405064   -1.425721    0.530710
      2          6           0       -2.582215   -2.180773    0.503618
      3          6           0       -3.807061   -1.575847    0.206354
      4          6           0       -3.818234   -0.207566   -0.060051
      5          6           0       -2.662504    0.571669   -0.040790
      6          6           0       -1.448889   -0.054328    0.258899
      7          1           0       -0.457937   -1.903826    0.762574
      8          1           0       -2.551186   -3.245993    0.714303
      9          1           0       -4.733455   -2.136596    0.178558
     10          1           0       -2.725099    1.631654   -0.255106
     11          1           0       -0.536279    0.534548    0.279224
     12          7           0       -5.108979    0.443995   -0.376035
     13          8           0       -5.092090    1.651039   -0.607113
     14          8           0       -6.113114   -0.264693   -0.386643
     15          6           0        5.135389    0.132772   -0.479259
     16          6           0        6.132645   -0.829840    0.166376
     17          6           0        7.167309   -1.362215   -0.825511
     18          1           0        4.623663   -0.379270   -1.305633
     19          1           0        5.684271    0.973956   -0.924830
     20          1           0        5.581943   -1.668255    0.611800
     21          1           0        6.641920   -0.315507    0.991431
     22          1           0        7.742176   -0.538843   -1.261619
     23          1           0        6.676176   -1.899277   -1.643407
     24          1           0        7.870188   -2.048419   -0.342868
     25          6           0        4.094701    0.673503    0.499671
     26          6           0        3.097445    1.636116   -0.145964
     27          6           0        2.062780    2.168490    0.845924
     28          1           0        3.545818   -0.167680    0.945242
     29          1           0        4.606427    1.185545    1.326046
     30          1           0        2.588170    1.121782   -0.971019
     31          1           0        3.648147    2.474530   -0.591387
     32          1           0        2.553913    2.705553    1.663818
     33          1           0        1.487914    1.345119    1.282030
     34          1           0        1.359901    2.854695    0.363280
 ---------------------------------------------------------------------

 SCF Done:  E(RHF) =  -669.535462584     A.U. after   15 cycles
 E2 =    -0.2090967050D+01 EUMP2 =    -0.67162642963442D+03

 The electronic state is 1-A.
 Alpha  occ. eigenvalues --  -20.60728 -20.60723 -15.85781 -11.31141 -11.27711
 Alpha  occ. eigenvalues --  -11.27694 -11.27453 -11.26733 -11.26664 -11.22550
 Alpha  occ. eigenvalues --  -11.22229 -11.22220 -11.22197 -11.22051 -11.21567
 Alpha  occ. eigenvalues --   -1.59804  -1.39357  -1.19311  -1.09214  -1.08710
 Alpha  occ. eigenvalues --   -1.04712  -1.04326  -0.96788  -0.95546  -0.87806
 Alpha  occ. eigenvalues --   -0.86111  -0.82376  -0.80389  -0.78993  -0.77424
 Alpha  occ. eigenvalues --   -0.72000  -0.71126  -0.70429  -0.65876  -0.64962
 Alpha  occ. eigenvalues --   -0.64731  -0.62162  -0.61631  -0.60160  -0.58372
 Alpha  occ. eigenvalues --   -0.56111  -0.55209  -0.53491  -0.53211  -0.53042
 Alpha  occ. eigenvalues --   -0.52775  -0.50700  -0.48766  -0.48755  -0.48685
 Alpha  occ. eigenvalues --   -0.47421  -0.46538  -0.46455  -0.44764  -0.44567
 Alpha  occ. eigenvalues --   -0.37298  -0.36311
 Alpha virt. eigenvalues --    0.05108   0.11312   0.16597   0.19520   0.22587
 Alpha virt. eigenvalues --    0.23679   0.25697   0.26463   0.26624   0.28172
 Alpha virt. eigenvalues --    0.28997   0.30497   0.30868   0.31327   0.31370

 Mulliken charges:
               1
     1  C   -0.173170
     2  C   -0.218352
     3  C   -0.171406
     4  C    0.158984
     5  C   -0.173078
     6  C   -0.226752
     7  H    0.224670
     8  H    0.223101
     9  H    0.275400
    10  H    0.275860
    11  H    0.236655
    12  N    0.488030
    13  O   -0.460445
    14  O   -0.460639
    15  C   -0.298885
    16  C   -0.299893
    17  C   -0.476095
    18  H    0.149588
    19  H    0.151967
    20  H    0.150618
    21  H    0.153328
    22  H    0.156588
    23  H    0.155449
    24  H    0.161711
    25  C   -0.297692
    26  C   -0.301988
    27  C   -0.481319
    28  H    0.144933
    29  H    0.152638
    30  H    0.150629
    31  H    0.157433
    32  H    0.163193
    33  H    0.147495
    34  H    0.161440
 Sum of Mulliken charges =  -0.00000

 Dipole moment (field-independent basis, Debye):
    X=              4.7947    Y=             -2.2190    Z=              1.1040  Tot=              5.3974
 Quadrupole moment (field-independent basis, Debye-Ang):
   XX=           -128.2805   YY=            -89.4220   ZZ=            -96.0356
   XY=             11.3714   XZ=             -4.2107   YZ=             -0.6730

 Normal termination of Gaussian 16 at Thu May  6 07:52:22 2021.
