 Gaussian 16, Revision A.03,
 Gaussian 16:  EM64L-G16RevA.03 25-Dec-2016

 -------------
 #p 6-31g* mp2
 -------------

 ------------------------------------------------------
 Input file generated by CHIRIPA (05-May-2021 14:57:25)
 ------------------------------------------------------
 Symbolic Z-matrix:
 Charge =  0 Multiplicity = 1

                         Standard orientation:
 ---------------------------------------------------------------------
 Center     Atomic      Atomic             Coordinates (Angstroms)
 Number     Number       Type             X           Y           Z
 ---------------------------------------------------------------------
      1          6           0        6.086407    1.096839    0.765607
      2          6           0        6.125706   -0.260828    0.431365
      3          6           0        4.998068   -0.894304   -0.099378
      4          6           0        3.842619   -0.136465   -0.283518
      5          6           0        3.772168    1.217746    0.039653
      6          6           0        4.911834    1.830499    0.569031
      7          1           0        6.967056    1.580889    1.177371
      8          1           0        7.036525   -0.833084    0.582945
      9          1           0        5.000876   -1.944011   -0.366823
     10          1           0        2.849787    1.762007   -0.122865
     11          1           0        4.878420    2.885022    0.827698
     12          7           0        2.642472   -0.796129   -0.844670
     13          8           0        1.636703   -0.106359   -0.997259
     14          8           0        2.730290   -1.990452   -1.121285
     15          6           0       -6.387291    0.564433   -0.564001
     16          6           0       -6.177684   -0.115993    0.639996
     17          6           0       -4.881691   -0.418630    1.068204
     18          6           0       -3.813530   -0.024141    0.264027
     19          6           0       -3.989927    0.654958   -0.940547
     20          6           0       -5.294670    0.947062   -1.349045
     21          1           0       -7.397446    0.795438   -0.888987
     22          1           0       -7.024337   -0.414375    1.251709
     23          1           0       -4.690797   -0.944357    1.995884
     24          1           0       -3.126017    0.939470   -1.528875
     25          1           0       -5.454453    1.475598   -2.284547
     26          7           0       -2.436890   -0.338954    0.706919
     27          8           0       -1.512660    0.019508   -0.019677
     28          8           0       -2.308175   -0.938206    1.772267
 ---------------------------------------------------------------------

 SCF Done:  E(RHF) =  -868.335462679     A.U. after   16 cycles
 E2 =    -0.2600137776D+01 EUMP2 =    -0.87093560045555D+03

 The electronic state is 1-A.
 Alpha  occ. eigenvalues --  -20.59830 -20.59728 -20.59648 -20.59526 -15.84831
 Alpha  occ. eigenvalues --  -15.84641 -11.30496 -11.30332 -11.27123 -11.27078
 Alpha  occ. eigenvalues --  -11.26959 -11.26924 -11.26919 -11.26771 -11.26203
 Alpha  occ. eigenvalues --  -11.26179 -11.26051 -11.26034  -1.58862  -1.58657
 Alpha  occ. eigenvalues --   -1.38403  -1.38200  -1.18704  -1.18541  -1.08048
 Alpha  occ. eigenvalues --   -1.07881  -1.04150  -1.03995  -0.94832  -0.94652
 Alpha  occ. eigenvalues --   -0.85535  -0.85379  -0.81667  -0.81472  -0.76657
 Alpha  occ. eigenvalues --   -0.76474  -0.71148  -0.70725  -0.70207  -0.69983
 Alpha  occ. eigenvalues --   -0.69812  -0.69656  -0.64349  -0.64188  -0.64156
 Alpha  occ. eigenvalues --   -0.64010  -0.61491  -0.61339  -0.54653  -0.54502
 Alpha  occ. eigenvalues --   -0.52467  -0.52306  -0.52247  -0.52097  -0.47895
 Alpha  occ. eigenvalues --   -0.47802  -0.47617  -0.47546  -0.43742  -0.43510
 Alpha  occ. eigenvalues --   -0.36709  -0.36545  -0.35768  -0.35613
 Alpha virt. eigenvalues --    0.05886   0.06072   0.11881   0.12037   0.17320
 Alpha virt. eigenvalues --    0.17494   0.21973   0.22105   0.27865   0.27989
 Alpha virt. eigenvalues --    0.28899   0.29040   0.31502   0.31625   0.33181

 Mulliken charges:
               1
     1  C   -0.171921
     2  C   -0.218646
     3  C   -0.171368
     4  C    0.159714
     5  C   -0.170325
     6  C   -0.218707
     7  H    0.222517
     8  H    0.220682
     9  H    0.274406
    10  H    0.277564
    11  H    0.220812
    12  N    0.488124
    13  O   -0.446839
    14  O   -0.465904
    15  C   -0.171838
    16  C   -0.218681
    17  C   -0.171600
    18  C    0.158659
    19  C   -0.171440
    20  C   -0.218765
    21  H    0.223118
    22  H    0.221061
    23  H    0.274339
    24  H    0.278721
    25  H    0.221707
    26  N    0.487275
    27  O   -0.446307
    28  O   -0.466358
 Sum of Mulliken charges =  -0.00000

 Dipole moment (field-independent basis, Debye):
    X=             -0.6542    Y=              3.4654    Z=              0.3084  Tot=              3.5400
 Quadrupole moment (field-independent basis, Debye-Ang):
   XX=            -37.4694   YY=           -101.9691   ZZ=           -104.7357
   XY=              2.7131   XZ=              9.5471   YZ=             -2.4562

 Normal termination of Gaussian 16 at Wed May  5 21:06:27 2021.
