 Gaussian 16, Revision A.03,
 Gaussian 16:  EM64L-G16RevA.03 25-Dec-2016

 -------------
 #p 6-31g* mp2
 -------------

 ------------------------------------------------------
 Input file generated by CHIRIPA (05-May-2021 14:53:12)
 ------------------------------------------------------
 Symbolic Z-matrix:
 Charge =  0 Multiplicity = 1

                         Standard orientation:
 ---------------------------------------------------------------------
 Center     Atomic      Atomic             Coordinates (Angstroms)
 Number     Number       Type             X           Y           Z
 ---------------------------------------------------------------------
      1          6           0        2.099179    0.889252   -0.173295
      2          6           0        1.621251    2.341044   -0.130067
      3          6           0        0.148567    2.490253   -0.513124
      4          1           0        1.938898    0.487048   -1.182991
      5          1           0        1.479951    0.286334    0.505264
      6          1           0        2.242088    2.941307   -0.807461
      7          1           0        1.782865    2.739899    0.879592
      8          1           0       -0.486919    1.915757    0.168575
      9          1           0       -0.025087    2.118309   -1.528064
     10          1           0       -0.172064    3.536027   -0.475552
     11          6           0        3.569426    0.723878    0.207169
     12          6           0        4.047355   -0.727914    0.163941
     13          6           0        5.520039   -0.877123    0.546998
     14          1           0        4.188654    1.326796   -0.471389
     15          1           0        3.729708    1.126082    1.216865
     16          1           0        3.885740   -1.126768   -0.845718
     17          1           0        3.426518   -1.328176    0.841336
     18          1           0        5.693693   -0.505179    1.561938
     19          1           0        6.155525   -0.302627   -0.134701
     20          1           0        5.840670   -1.922897    0.509426
     21          6           0       -4.221506    0.682851    0.769793
     22          6           0       -3.389039    0.054489    1.701824
     23          6           0       -2.274145   -0.675631    1.279350
     24          6           0       -2.020250   -0.757063   -0.088932
     25          6           0       -2.830786   -0.142216   -1.041972
     26          6           0       -3.940217    0.582670   -0.596720
     27          1           0       -5.085460    1.247993    1.106829
     28          1           0       -3.605053    0.130590    2.763706
     29          1           0       -1.613025   -1.171975    1.979337
     30          1           0       -2.589764   -0.235992   -2.093890
     31          1           0       -4.584976    1.069627   -1.322808
     32          7           0       -0.842852   -1.527237   -0.548244
     33          8           0       -0.640858   -1.583856   -1.759288
     34          8           0       -0.144297   -2.059699    0.311490
 ---------------------------------------------------------------------

 SCF Done:  E(RHF) =  -669.535903365     A.U. after   15 cycles
 E2 =    -0.2094168661D+01 EUMP2 =    -0.67163007202579D+03

 The electronic state is 1-A.
 Alpha  occ. eigenvalues --  -20.60930 -20.60910 -15.85919 -11.31239 -11.27831
 Alpha  occ. eigenvalues --  -11.27802 -11.27560 -11.26846 -11.26819 -11.21072
 Alpha  occ. eigenvalues --  -11.20759 -11.20571 -11.20499 -11.20431 -11.20249
 Alpha  occ. eigenvalues --   -1.59959  -1.39521  -1.19430  -1.08829  -1.07628
 Alpha  occ. eigenvalues --   -1.04826  -1.02822  -0.95672  -0.95298  -0.86333
 Alpha  occ. eigenvalues --   -0.86221  -0.82511  -0.78878  -0.77569  -0.77401
 Alpha  occ. eigenvalues --   -0.72163  -0.71243  -0.70537  -0.65086  -0.64830
 Alpha  occ. eigenvalues --   -0.64263  -0.62176  -0.60232  -0.58686  -0.56921
 Alpha  occ. eigenvalues --   -0.55330  -0.54647  -0.53223  -0.52918  -0.52014
 Alpha  occ. eigenvalues --   -0.51635  -0.49252  -0.48927  -0.48920  -0.47173
 Alpha  occ. eigenvalues --   -0.45955  -0.45293  -0.44909  -0.44374  -0.43038
 Alpha  occ. eigenvalues --   -0.37369  -0.36419
 Alpha virt. eigenvalues --    0.04929   0.11179   0.16402   0.21321   0.23578
 Alpha virt. eigenvalues --    0.24774   0.27067   0.27526   0.27790   0.28371
 Alpha virt. eigenvalues --    0.28826   0.31001   0.31639   0.32169   0.32549

 Mulliken charges:
               1
     1  C   -0.308024
     2  C   -0.297923
     3  C   -0.480913
     4  H    0.159411
     5  H    0.155784
     6  H    0.150373
     7  H    0.148247
     8  H    0.154623
     9  H    0.155688
    10  H    0.156179
    11  C   -0.297857
    12  C   -0.300332
    13  C   -0.475675
    14  H    0.146056
    15  H    0.144871
    16  H    0.157011
    17  H    0.160971
    18  H    0.151514
    19  H    0.152095
    20  H    0.159807
    21  C   -0.170626
    22  C   -0.217844
    23  C   -0.174067
    24  C    0.160973
    25  C   -0.168956
    26  C   -0.217540
    27  H    0.226002
    28  H    0.223787
    29  H    0.275429
    30  H    0.275457
    31  H    0.223896
    32  N    0.489754
    33  O   -0.459041
    34  O   -0.459128
 Sum of Mulliken charges =  -0.00000

 Dipole moment (field-independent basis, Debye):
    X=             -4.3173    Y=              2.4914    Z=              1.5445  Tot=              5.2184
 Quadrupole moment (field-independent basis, Debye-Ang):
   XX=            -79.8803   YY=            -99.9031   ZZ=            -89.6524
   XY=             -2.8620   XZ=             -2.4405   YZ=             -2.7001

 Normal termination of Gaussian 16 at Wed May  5 21:46:29 2021.
