 Gaussian 16, Revision A.03,
 Gaussian 16:  EM64L-G16RevA.03 25-Dec-2016

 -------------
 #p 6-31g* mp2
 -------------

 ------------------------------------------------------
 Input file generated by CHIRIPA (05-May-2021 14:51:09)
 ------------------------------------------------------
 Symbolic Z-matrix:
 Charge =  0 Multiplicity = 1

                         Standard orientation:
 ---------------------------------------------------------------------
 Center     Atomic      Atomic             Coordinates (Angstroms)
 Number     Number       Type             X           Y           Z
 ---------------------------------------------------------------------
      1          6           0        3.466418   -0.121136    0.531028
      2          6           0        3.776893   -1.378349   -0.281995
      3          6           0        4.155855   -2.571452    0.595893
      4          1           0        4.340661    0.136254    1.144537
      5          1           0        2.646916   -0.338110    1.230123
      6          1           0        4.594638   -1.158671   -0.980315
      7          1           0        2.901877   -1.632667   -0.893783
      8          1           0        3.340073   -2.818777    1.282866
      9          1           0        5.042452   -2.342088    1.195842
     10          1           0        4.373738   -3.459399   -0.005718
     11          6           0        3.085890    1.080167   -0.332567
     12          6           0        2.775415    2.337380    0.480456
     13          6           0        2.396453    3.530483   -0.397432
     14          1           0        3.905392    1.297142   -1.031662
     15          1           0        2.211647    0.822777   -0.946075
     16          1           0        3.650431    2.591698    1.092244
     17          1           0        1.957670    2.117702    1.178776
     18          1           0        1.509856    3.301119   -0.997381
     19          1           0        3.212235    3.777808   -1.084405
     20          1           0        2.178570    4.418430    0.204180
     21          6           0       -3.727647    0.135360   -0.060326
     22          6           0       -5.169608   -0.194682    0.326718
     23          6           0       -6.060586    1.045689    0.400404
     24          1           0       -3.312095    0.844277    0.668851
     25          1           0       -3.724450    0.648500   -1.031959
     26          1           0       -5.169976   -0.708280    1.296684
     27          1           0       -5.581713   -0.903044   -0.403357
     28          1           0       -6.089987    1.556929   -0.567259
     29          1           0       -5.675910    1.752801    1.142442
     30          1           0       -7.086947    0.786789    0.678641
     31          6           0       -2.824661   -1.094392   -0.138136
     32          6           0       -1.382699   -0.764348   -0.525180
     33          6           0       -0.491722   -2.004721   -0.598865
     34          1           0       -2.827859   -1.607531    0.833498
     35          1           0       -3.240213   -1.803308   -0.867312
     36          1           0       -0.970595   -0.055987    0.204896
     37          1           0       -1.382332   -0.250751   -1.495146
     38          1           0       -0.876398   -2.711831   -1.340903
     39          1           0       -0.462321   -2.515960    0.368798
     40          1           0        0.534638   -1.745821   -0.877103
 ---------------------------------------------------------------------

 SCF Done:  E(RHF) =  -470.733337908     A.U. after   11 cycles
 E2 =    -0.1583082198D+01 EUMP2 =    -0.47231642010589D+03

 The electronic state is 1-A.
 Alpha  occ. eigenvalues --  -11.21683 -11.21632 -11.21599 -11.21581 -11.21454
 Alpha  occ. eigenvalues --  -11.21396 -11.21393 -11.21336 -11.21136 -11.21093
 Alpha  occ. eigenvalues --  -11.21059 -11.21043  -1.08484  -1.08419  -1.03586
 Alpha  occ. eigenvalues --   -1.03512  -0.96031  -0.95962  -0.87057  -0.86972
 Alpha  occ. eigenvalues --   -0.79663  -0.79565  -0.78292  -0.78238  -0.65141
 Alpha  occ. eigenvalues --   -0.65052  -0.60986  -0.60944  -0.59416  -0.59296
 Alpha  occ. eigenvalues --   -0.57638  -0.57574  -0.55313  -0.55247  -0.52770
 Alpha  occ. eigenvalues --   -0.52642  -0.52457  -0.52382  -0.49971  -0.49898
 Alpha  occ. eigenvalues --   -0.48024  -0.47848  -0.46677  -0.46611  -0.45838
 Alpha  occ. eigenvalues --   -0.45773  -0.45750  -0.45694  -0.43803  -0.43761
 Alpha virt. eigenvalues --    0.19916   0.23099   0.23778   0.24882   0.26003
 Alpha virt. eigenvalues --    0.26269   0.27202   0.27548   0.27935   0.29198
 Alpha virt. eigenvalues --    0.30337   0.31316   0.31787   0.31948   0.32282

 Mulliken charges:
               1
     1  C   -0.298577
     2  C   -0.305054
     3  C   -0.475527
     4  H    0.149773
     5  H    0.150100
     6  H    0.152075
     7  H    0.156411
     8  H    0.155656
     9  H    0.155005
    10  H    0.160292
    11  C   -0.300043
    12  C   -0.299463
    13  C   -0.475849
    14  H    0.149547
    15  H    0.150973
    16  H    0.151930
    17  H    0.151623
    18  H    0.155632
    19  H    0.155109
    20  H    0.160149
    21  C   -0.298306
    22  C   -0.299690
    23  C   -0.475742
    24  H    0.149667
    25  H    0.149620
    26  H    0.151989
    27  H    0.152029
    28  H    0.155258
    29  H    0.155244
    30  H    0.160368
    31  C   -0.298604
    32  C   -0.299457
    33  C   -0.484011
    34  H    0.149677
    35  H    0.149960
    36  H    0.151680
    37  H    0.151899
    38  H    0.155801
    39  H    0.155276
    40  H    0.167577
 Sum of Mulliken charges =  -0.00000

 Dipole moment (field-independent basis, Debye):
    X=             -0.0156    Y=             -0.0083    Z=             -0.0048  Tot=              0.0183
 Quadrupole moment (field-independent basis, Debye-Ang):
   XX=            -84.4055   YY=            -86.2393   ZZ=            -84.0439
   XY=              1.1938   XZ=              0.1251   YZ=              0.5046

 Normal termination of Gaussian 16 at Wed May  5 18:08:05 2021.
