 Gaussian 16, Revision A.03,
 Gaussian 16:  EM64L-G16RevA.03 25-Dec-2016

 -------------
 #p 6-31g* mp2
 -------------

 ------------------------------------------------------
 Input file generated by CHIRIPA (05-May-2021 14:55:19)
 ------------------------------------------------------
 Symbolic Z-matrix:
 Charge =  0 Multiplicity = 1

                         Standard orientation:
 ---------------------------------------------------------------------
 Center     Atomic      Atomic             Coordinates (Angstroms)
 Number     Number       Type             X           Y           Z
 ---------------------------------------------------------------------
      1          6           0        0.176344   -2.058959    1.150580
      2          6           0        1.066286   -1.292627    1.910356
      3          6           0        2.066157   -0.539986    1.287189
      4          6           0        2.147672   -0.576966   -0.103953
      5          6           0        1.275939   -1.330572   -0.888459
      6          6           0        0.283821   -2.075456   -0.243944
      7          1           0       -0.597368   -2.640615    1.642962
      8          1           0        0.985182   -1.277915    2.993523
      9          1           0        2.768301    0.062025    1.851099
     10          1           0        1.381704   -1.325218   -1.966514
     11          1           0       -0.405937   -2.669683   -0.836542
     12          7           0        3.202086    0.215716   -0.774972
     13          8           0        3.252864    0.166234   -2.002005
     14          8           0        3.957793    0.871491   -0.061178
     15          6           0       -2.141189    1.554799   -0.125231
     16          6           0       -0.938223    1.721192    0.803839
     17          6           0       -0.177361    3.024467    0.558166
     18          1           0       -1.798384    1.589863   -1.168400
     19          1           0       -2.820422    2.407974    0.009418
     20          1           0       -0.262140    0.867257    0.668478
     21          1           0       -1.283906    1.685535    1.844918
     22          1           0       -0.832432    3.887968    0.712603
     23          1           0        0.195142    3.065039   -0.470521
     24          1           0        0.678596    3.122969    1.233071
     25          6           0       -2.911973    0.256680    0.108236
     26          6           0       -4.114940    0.090288   -0.820834
     27          6           0       -4.875802   -1.212988   -0.575161
     28          1           0       -2.232740   -0.596494   -0.026413
     29          1           0       -3.254778    0.221617    1.151405
     30          1           0       -3.769256    0.125944   -1.861913
     31          1           0       -4.791023    0.944223   -0.685473
     32          1           0       -5.248304   -1.253560    0.453526
     33          1           0       -4.220731   -2.076488   -0.729598
     34          1           0       -5.731758   -1.311489   -1.250066
 ---------------------------------------------------------------------

 SCF Done:  E(RHF) =  -669.533131951     A.U. after   15 cycles
 E2 =    -0.2096990694D+01 EUMP2 =    -0.67163012264557D+03

 The electronic state is 1-A.
 Alpha  occ. eigenvalues --  -20.60879 -20.60873 -15.85935 -11.31351 -11.27946
 Alpha  occ. eigenvalues --  -11.27888 -11.27636 -11.26961 -11.26886 -11.21974
 Alpha  occ. eigenvalues --  -11.21654 -11.21618 -11.21485 -11.21411 -11.20934
 Alpha  occ. eigenvalues --   -1.59953  -1.39504  -1.19566  -1.08932  -1.08617
 Alpha  occ. eigenvalues --   -1.04954  -1.03713  -0.96185  -0.95737  -0.87193
 Alpha  occ. eigenvalues --   -0.86330  -0.82564  -0.79803  -0.78459  -0.77612
 Alpha  occ. eigenvalues --   -0.72149  -0.71284  -0.70615  -0.65345  -0.65168
 Alpha  occ. eigenvalues --   -0.64918  -0.62279  -0.61173  -0.59583  -0.57804
 Alpha  occ. eigenvalues --   -0.55500  -0.55412  -0.53545  -0.53018  -0.52790
 Alpha  occ. eigenvalues --   -0.52597  -0.50127  -0.48914  -0.48902  -0.48093
 Alpha  occ. eigenvalues --   -0.46846  -0.45962  -0.45610  -0.44897  -0.43949
 Alpha  occ. eigenvalues --   -0.37460  -0.36512
 Alpha virt. eigenvalues --    0.04904   0.10965   0.16365   0.20652   0.22960
 Alpha virt. eigenvalues --    0.23844   0.26143   0.27069   0.27629   0.27817
 Alpha virt. eigenvalues --    0.28817   0.30397   0.31314   0.31473   0.32154

 Mulliken charges:
               1
     1  C   -0.168478
     2  C   -0.215647
     3  C   -0.175613
     4  C    0.161525
     5  C   -0.173880
     6  C   -0.217769
     7  H    0.227766
     8  H    0.224683
     9  H    0.276291
    10  H    0.276477
    11  H    0.224892
    12  N    0.488292
    13  O   -0.460317
    14  O   -0.459654
    15  C   -0.296279
    16  C   -0.308841
    17  C   -0.476915
    18  H    0.149809
    19  H    0.149307
    20  H    0.167035
    21  H    0.144878
    22  H    0.154448
    23  H    0.158565
    24  H    0.160468
    25  C   -0.302805
    26  C   -0.299546
    27  C   -0.474332
    28  H    0.148507
    29  H    0.145988
    30  H    0.152072
    31  H    0.154108
    32  H    0.155012
    33  H    0.147355
    34  H    0.162597
 Sum of Mulliken charges =  -0.00000

 Dipole moment (field-independent basis, Debye):
    X=             -3.5506    Y=             -2.8345    Z=              2.3692  Tot=              5.1239
 Quadrupole moment (field-independent basis, Debye-Ang):
   XX=           -111.2408   YY=            -92.3001   ZZ=            -90.9173
   XY=             -4.1572   XZ=              6.8920   YZ=              0.7441

 Normal termination of Gaussian 16 at Wed May  5 18:53:38 2021.
