 Gaussian 16, Revision A.03,
 Gaussian 16:  EM64L-G16RevA.03 25-Dec-2016

 -------------
 #p 6-31g* mp2
 -------------

 ------------------------------------------------------
 Input file generated by CHIRIPA (05-May-2021 14:51:08)
 ------------------------------------------------------
 Symbolic Z-matrix:
 Charge =  0 Multiplicity = 1

                         Standard orientation:
 ---------------------------------------------------------------------
 Center     Atomic      Atomic             Coordinates (Angstroms)
 Number     Number       Type             X           Y           Z
 ---------------------------------------------------------------------
      1          6           0        3.203700   -0.191723    0.356546
      2          6           0        2.868428   -1.672344    0.173950
      3          6           0        1.465130   -2.025926    0.667435
      4          1           0        3.110312    0.070473    1.419315
      5          1           0        2.461390    0.414180   -0.181275
      6          1           0        3.611950   -2.275313    0.710810
      7          1           0        2.962811   -1.931091   -0.888480
      8          1           0        0.709187   -1.449501    0.124400
      9          1           0        1.362015   -1.795679    1.732777
     10          1           0        1.246350   -3.089122    0.527399
     11          6           0        4.603271    0.177248   -0.132113
     12          6           0        4.938543    1.657868    0.050483
     13          6           0        6.341842    2.011450   -0.443002
     14          1           0        5.345582   -0.428655    0.405708
     15          1           0        4.696659   -0.084948   -1.194882
     16          1           0        4.844160    1.916615    1.112913
     17          1           0        4.195021    2.260838   -0.486378
     18          1           0        6.444957    1.781203   -1.508344
     19          1           0        7.097784    1.435025    0.100033
     20          1           0        6.560621    3.074646   -0.302966
     21          6           0       -3.792072   -0.731174   -0.272738
     22          6           0       -2.326577   -1.157450   -0.180007
     23          6           0       -2.119762   -2.637353   -0.503900
     24          1           0       -4.390162   -1.345408    0.414247
     25          1           0       -4.164524   -0.941485   -1.284886
     26          1           0       -1.956605   -0.945120    0.831256
     27          1           0       -1.731877   -0.542000   -0.867152
     28          1           0       -2.462325   -2.860985   -1.519400
     29          1           0       -2.688329   -3.266397    0.188658
     30          1           0       -1.065050   -2.920569   -0.431566
     31          6           0       -4.014899    0.745649    0.048305
     32          6           0       -5.480394    1.171925   -0.044426
     33          6           0       -5.687210    2.651829    0.279467
     34          1           0       -3.642448    0.955961    1.060454
     35          1           0       -3.416809    1.359883   -0.638680
     36          1           0       -6.075095    0.556475    0.642719
     37          1           0       -5.850367    0.959596   -1.055689
     38          1           0       -5.118643    3.280872   -0.413091
     39          1           0       -5.344647    2.875461    1.294967
     40          1           0       -6.741922    2.935045    0.207133
 ---------------------------------------------------------------------

 SCF Done:  E(RHF) =  -470.732241881     A.U. after   11 cycles
 E2 =    -0.1583270350D+01 EUMP2 =    -0.47231551223091D+03

 The electronic state is 1-A.
 Alpha  occ. eigenvalues --  -11.21605 -11.21601 -11.21581 -11.21549 -11.21410
 Alpha  occ. eigenvalues --  -11.21372 -11.21350 -11.21312 -11.21074 -11.21057
 Alpha  occ. eigenvalues --  -11.21044 -11.20877  -1.08441  -1.08388  -1.03575
 Alpha  occ. eigenvalues --   -1.03448  -0.96068  -0.95855  -0.87084  -0.86874
 Alpha  occ. eigenvalues --   -0.79615  -0.79549  -0.78268  -0.78190  -0.65072
 Alpha  occ. eigenvalues --   -0.65022  -0.61000  -0.60875  -0.59517  -0.59185
 Alpha  occ. eigenvalues --   -0.57690  -0.57517  -0.55236  -0.55200  -0.52974
 Alpha  occ. eigenvalues --   -0.52478  -0.52431  -0.52153  -0.49866  -0.49860
 Alpha  occ. eigenvalues --   -0.47970  -0.47805  -0.46622  -0.46575  -0.45823
 Alpha  occ. eigenvalues --   -0.45745  -0.45675  -0.45661  -0.43920  -0.43583
 Alpha virt. eigenvalues --    0.22213   0.23023   0.23523   0.24954   0.26300
 Alpha virt. eigenvalues --    0.26675   0.26974   0.27325   0.27834   0.29100
 Alpha virt. eigenvalues --    0.29966   0.31049   0.31412   0.31747   0.32421

 Mulliken charges:
               1
     1  C   -0.298647
     2  C   -0.299618
     3  C   -0.483197
     4  H    0.149663
     5  H    0.149732
     6  H    0.151808
     7  H    0.151867
     8  H    0.164728
     9  H    0.155105
    10  H    0.160584
    11  C   -0.298304
    12  C   -0.299640
    13  C   -0.475706
    14  H    0.149570
    15  H    0.149621
    16  H    0.151958
    17  H    0.151924
    18  H    0.155166
    19  H    0.155192
    20  H    0.160270
    21  C   -0.298211
    22  C   -0.300471
    23  C   -0.482786
    24  H    0.149763
    25  H    0.149392
    26  H    0.153535
    27  H    0.149735
    28  H    0.153732
    29  H    0.154325
    30  H    0.169387
    31  C   -0.298252
    32  C   -0.299619
    33  C   -0.475664
    34  H    0.149530
    35  H    0.149291
    36  H    0.151949
    37  H    0.151865
    38  H    0.155072
    39  H    0.155167
    40  H    0.160186
 Sum of Mulliken charges =  -0.00000

 Dipole moment (field-independent basis, Debye):
    X=              0.0333    Y=             -0.0020    Z=              0.0186  Tot=              0.0383
 Quadrupole moment (field-independent basis, Debye-Ang):
   XX=            -85.9056   YY=            -86.0232   ZZ=            -83.0702
   XY=             -0.1679   XZ=              0.5393   YZ=             -0.5494

 Normal termination of Gaussian 16 at Thu May  6 10:01:45 2021.
