 Gaussian 16, Revision A.03,
 Gaussian 16:  EM64L-G16RevA.03 25-Dec-2016

 -------------
 #p 6-31g* mp2
 -------------

 ------------------------------------------------------
 Input file generated by CHIRIPA (05-May-2021 14:57:25)
 ------------------------------------------------------
 Symbolic Z-matrix:
 Charge =  0 Multiplicity = 1

                         Standard orientation:
 ---------------------------------------------------------------------
 Center     Atomic      Atomic             Coordinates (Angstroms)
 Number     Number       Type             X           Y           Z
 ---------------------------------------------------------------------
      1          6           0        2.194866    2.234005    1.105869
      2          6           0        1.360808    1.228573    1.605844
      3          6           0        1.502116   -0.092619    1.171065
      4          6           0        2.492385   -0.374194    0.231185
      5          6           0        3.338786    0.605443   -0.285736
      6          6           0        3.179457    1.919785    0.163337
      7          1           0        2.078095    3.257678    1.449167
      8          1           0        0.595302    1.469687    2.337902
      9          1           0        0.870013   -0.890493    1.541554
     10          1           0        4.092821    0.334397   -1.014696
     11          1           0        3.828622    2.698573   -0.226687
     12          7           0        2.651520   -1.769255   -0.236661
     13          8           0        3.531597   -1.991412   -1.065364
     14          8           0        1.893161   -2.614131    0.234202
     15          6           0       -1.176652    2.100338   -1.244721
     16          6           0       -0.690329    0.798969   -1.407355
     17          6           0       -1.396461   -0.292377   -0.892680
     18          6           0       -2.590822   -0.044834   -0.217761
     19          6           0       -3.101352    1.240019   -0.039436
     20          6           0       -2.378492    2.316329   -0.562484
     21          1           0       -0.621615    2.942282   -1.647786
     22          1           0        0.242752    0.628236   -1.936746
     23          1           0       -1.042904   -1.310206   -1.004213
     24          1           0       -4.034479    1.378692    0.492976
     25          1           0       -2.758580    3.325904   -0.434673
     26          7           0       -3.347226   -1.192235    0.331534
     27          8           0       -4.396940   -0.947536    0.922178
     28          8           0       -2.876060   -2.314539    0.161026
 ---------------------------------------------------------------------

 SCF Done:  E(RHF) =  -868.336129138     A.U. after   16 cycles
 E2 =    -0.2604756163D+01 EUMP2 =    -0.87094088530164D+03

 The electronic state is 1-A.
 Alpha  occ. eigenvalues --  -20.61344 -20.61317 -20.60850 -20.60816 -15.86371
 Alpha  occ. eigenvalues --  -15.85889 -11.31768 -11.31366 -11.28395 -11.28258
 Alpha  occ. eigenvalues --  -11.28094 -11.27954 -11.27803 -11.27675 -11.27417
 Alpha  occ. eigenvalues --  -11.27262 -11.27029 -11.26878  -1.60413  -1.59918
 Alpha  occ. eigenvalues --   -1.39958  -1.39462  -1.19983  -1.19532  -1.09355
 Alpha  occ. eigenvalues --   -1.08919  -1.05368  -1.04927  -0.96176  -0.95729
 Alpha  occ. eigenvalues --   -0.86750  -0.86331  -0.82981  -0.82552  -0.78027
 Alpha  occ. eigenvalues --   -0.77583  -0.72566  -0.72094  -0.71771  -0.71263
 Alpha  occ. eigenvalues --   -0.71057  -0.70617  -0.65595  -0.65333  -0.65175
 Alpha  occ. eigenvalues --   -0.64936  -0.62681  -0.62265  -0.55856  -0.55446
 Alpha  occ. eigenvalues --   -0.54292  -0.53423  -0.53061  -0.52694  -0.49343
 Alpha  occ. eigenvalues --   -0.49333  -0.48874  -0.48844  -0.45339  -0.44840
 Alpha  occ. eigenvalues --   -0.38173  -0.37701  -0.37206  -0.35852
 Alpha virt. eigenvalues --    0.04267   0.05073   0.10511   0.11218   0.15902
 Alpha virt. eigenvalues --    0.16461   0.20806   0.21246   0.26687   0.26926
 Alpha virt. eigenvalues --    0.27586   0.28239   0.30406   0.30674   0.31684

 Mulliken charges:
               1
     1  C   -0.174098
     2  C   -0.211661
     3  C   -0.169952
     4  C    0.152550
     5  C   -0.176824
     6  C   -0.221458
     7  H    0.225450
     8  H    0.227081
     9  H    0.281009
    10  H    0.276409
    11  H    0.223777
    12  N    0.485657
    13  O   -0.459523
    14  O   -0.455709
    15  C   -0.172055
    16  C   -0.212086
    17  C   -0.180585
    18  C    0.155511
    19  C   -0.174195
    20  C   -0.221283
    21  H    0.222683
    22  H    0.225821
    23  H    0.286288
    24  H    0.275118
    25  H    0.221592
    26  N    0.486786
    27  O   -0.462011
    28  O   -0.454290
 Sum of Mulliken charges =  -0.00000

 Dipole moment (field-independent basis, Debye):
    X=              2.1522    Y=              8.7837    Z=             -0.2017  Tot=              9.0458
 Quadrupole moment (field-independent basis, Debye-Ang):
   XX=           -117.4393   YY=           -107.4067   ZZ=           -101.8952
   XY=              0.7934   XZ=              4.6985   YZ=              0.0981

 Normal termination of Gaussian 16 at Thu May  6 06:44:25 2021.
