 Gaussian 16, Revision A.03,
 Gaussian 16:  EM64L-G16RevA.03 25-Dec-2016

 -------------
 #p 6-31g* mp2
 -------------

 ------------------------------------------------------
 Input file generated by CHIRIPA (05-May-2021 14:55:22)
 ------------------------------------------------------
 Symbolic Z-matrix:
 Charge =  0 Multiplicity = 1

                         Standard orientation:
 ---------------------------------------------------------------------
 Center     Atomic      Atomic             Coordinates (Angstroms)
 Number     Number       Type             X           Y           Z
 ---------------------------------------------------------------------
      1          6           0        0.373992   -0.595169    1.508875
      2          6           0        1.219483   -1.642256    1.127723
      3          6           0        2.396169   -1.382548    0.418843
      4          6           0        2.697903   -0.057940    0.106337
      5          6           0        1.875896    1.006887    0.472037
      6          6           0        0.704314    0.723735    1.180394
      7          1           0       -0.538103   -0.806023    2.059346
      8          1           0        0.965482   -2.667510    1.381459
      9          1           0        3.068699   -2.174117    0.111370
     10          1           0        2.155775    2.018629    0.204708
     11          1           0        0.049580    1.538913    1.475102
     12          7           0        3.940906    0.229410   -0.643845
     13          8           0        4.184211    1.405073   -0.907013
     14          8           0        4.648330   -0.726468   -0.954466
     15          6           0       -2.914733   -0.568865   -0.185111
     16          6           0       -3.831251   -1.670015   -0.719383
     17          6           0       -3.264724   -3.072072   -0.493385
     18          1           0       -1.932138   -0.651323   -0.669520
     19          1           0       -2.748096   -0.729249    0.889089
     20          1           0       -3.997226   -1.506811   -1.791966
     21          1           0       -4.811839   -1.584806   -0.233786
     22          1           0       -3.115523   -3.259706    0.574853
     23          1           0       -2.296281   -3.181268   -0.992179
     24          1           0       -3.935895   -3.843867   -0.882903
     25          6           0       -3.467453    0.838430   -0.403629
     26          6           0       -2.550934    1.939580    0.130644
     27          6           0       -3.117461    3.341638   -0.095355
     28          1           0       -3.634089    0.998815   -1.477828
     29          1           0       -4.450048    0.920889    0.080780
     30          1           0       -1.570347    1.854372   -0.354952
     31          1           0       -2.384960    1.776376    1.203226
     32          1           0       -4.085904    3.450833    0.403439
     33          1           0       -3.266662    3.529271   -1.163594
     34          1           0       -2.446291    4.113432    0.294164
 ---------------------------------------------------------------------

 SCF Done:  E(RHF) =  -669.533615236     A.U. after   15 cycles
 E2 =    -0.2094262263D+01 EUMP2 =    -0.67162787749912D+03

 The electronic state is 1-A.
 Alpha  occ. eigenvalues --  -20.60715 -20.60710 -15.85768 -11.31107 -11.27683
 Alpha  occ. eigenvalues --  -11.27663 -11.27369 -11.26683 -11.26580 -11.22587
 Alpha  occ. eigenvalues --  -11.22335 -11.22249 -11.22189 -11.21857 -11.21832
 Alpha  occ. eigenvalues --   -1.59792  -1.39346  -1.19283  -1.09310  -1.08663
 Alpha  occ. eigenvalues --   -1.04694  -1.04361  -0.96798  -0.95516  -0.87818
 Alpha  occ. eigenvalues --   -0.86085  -0.82361  -0.80472  -0.79182  -0.77380
 Alpha  occ. eigenvalues --   -0.71986  -0.71117  -0.70388  -0.65916  -0.64924
 Alpha  occ. eigenvalues --   -0.64692  -0.62064  -0.61760  -0.60152  -0.58445
 Alpha  occ. eigenvalues --   -0.56083  -0.55181  -0.53523  -0.53244  -0.53001
 Alpha  occ. eigenvalues --   -0.52753  -0.50731  -0.48852  -0.48744  -0.48604
 Alpha  occ. eigenvalues --   -0.47494  -0.46643  -0.46545  -0.44758  -0.44615
 Alpha  occ. eigenvalues --   -0.37172  -0.36257
 Alpha virt. eigenvalues --    0.05109   0.11294   0.16516   0.19907   0.22585
 Alpha virt. eigenvalues --    0.23084   0.24800   0.26462   0.26776   0.27698
 Alpha virt. eigenvalues --    0.29623   0.30339   0.30835   0.31396   0.31722

 Mulliken charges:
               1
     1  C   -0.168516
     2  C   -0.220989
     3  C   -0.171400
     4  C    0.158469
     5  C   -0.174511
     6  C   -0.219835
     7  H    0.227085
     8  H    0.223514
     9  H    0.275194
    10  H    0.275143
    11  H    0.230568
    12  N    0.488050
    13  O   -0.460791
    14  O   -0.460782
    15  C   -0.302282
    16  C   -0.299700
    17  C   -0.476504
    18  H    0.158454
    19  H    0.138206
    20  H    0.155688
    21  H    0.153119
    22  H    0.149820
    23  H    0.156620
    24  H    0.164033
    25  C   -0.297472
    26  C   -0.306799
    27  C   -0.475621
    28  H    0.154284
    29  H    0.151258
    30  H    0.157660
    31  H    0.141153
    32  H    0.157486
    33  H    0.159870
    34  H    0.159530
 Sum of Mulliken charges =  -0.00000

 Dipole moment (field-independent basis, Debye):
    X=             -4.5524    Y=             -0.9950    Z=              2.4936  Tot=              5.2851
 Quadrupole moment (field-independent basis, Debye-Ang):
   XX=           -118.5405   YY=            -90.8728   ZZ=            -94.1401
   XY=             -3.4661   XZ=              6.7133   YZ=             -0.1149

 Normal termination of Gaussian 16 at Thu May  6 09:23:34 2021.
