 Gaussian 16, Revision A.03,
 Gaussian 16:  EM64L-G16RevA.03 25-Dec-2016

 -------------
 #p 6-31g* mp2
 -------------

 ------------------------------------------------------
 Input file generated by CHIRIPA (05-May-2021 14:55:21)
 ------------------------------------------------------
 Symbolic Z-matrix:
 Charge =  0 Multiplicity = 1

                         Standard orientation:
 ---------------------------------------------------------------------
 Center     Atomic      Atomic             Coordinates (Angstroms)
 Number     Number       Type             X           Y           Z
 ---------------------------------------------------------------------
      1          6           0        2.489233    2.358045   -0.138832
      2          6           0        3.596804    1.582650    0.219734
      3          6           0        3.503418    0.188387    0.262846
      4          6           0        2.281646   -0.400035   -0.060145
      5          6           0        1.160254    0.345230   -0.421186
      6          6           0        1.276631    1.737953   -0.457586
      7          1           0        2.570707    3.440544   -0.169715
      8          1           0        4.539786    2.061503    0.467783
      9          1           0        4.345075   -0.435970    0.537090
     10          1           0        0.233522   -0.160758   -0.663181
     11          1           0        0.414822    2.337612   -0.736404
     12          7           0        2.170613   -1.875264   -0.018057
     13          8           0        1.083019   -2.369482   -0.307063
     14          8           0        3.173282   -2.509396    0.303140
     15          6           0       -2.965155   -0.480143    0.431199
     16          6           0       -3.390161   -1.618024   -0.497554
     17          6           0       -3.427846   -2.974055    0.207822
     18          1           0       -1.973971   -0.706087    0.847669
     19          1           0       -3.658409   -0.432580    1.282393
     20          1           0       -2.697125   -1.662540   -1.347456
     21          1           0       -4.380367   -1.389254   -0.912011
     22          1           0       -4.133356   -2.953474    1.044741
     23          1           0       -2.440549   -3.228312    0.606822
     24          1           0       -3.734091   -3.773135   -0.474486
     25          6           0       -2.922706    0.881805   -0.259470
     26          6           0       -2.497700    2.019687    0.669282
     27          6           0       -2.460015    3.375718   -0.036094
     28          1           0       -2.229452    0.834242   -1.110665
     29          1           0       -3.913890    1.107750   -0.675941
     30          1           0       -1.507496    1.790916    1.083740
     31          1           0       -3.190737    2.064203    1.519184
     32          1           0       -3.447312    3.629975   -0.435093
     33          1           0       -1.754507    3.355136   -0.873013
     34          1           0       -2.153770    4.174797    0.646215
 ---------------------------------------------------------------------

 SCF Done:  E(RHF) =  -669.535301463     A.U. after   15 cycles
 E2 =    -0.2093826719D+01 EUMP2 =    -0.67162912818137D+03

 The electronic state is 1-A.
 Alpha  occ. eigenvalues --  -20.60850 -20.60841 -15.85894 -11.31225 -11.27793
 Alpha  occ. eigenvalues --  -11.27773 -11.27515 -11.26802 -11.26749 -11.22255
 Alpha  occ. eigenvalues --  -11.22001 -11.21952 -11.21528 -11.21434 -11.20585
 Alpha  occ. eigenvalues --   -1.59917  -1.39472  -1.19396  -1.08817  -1.08770
 Alpha  occ. eigenvalues --   -1.04797  -1.03786  -0.96263  -0.95634  -0.87268
 Alpha  occ. eigenvalues --   -0.86191  -0.82472  -0.79915  -0.78488  -0.77535
 Alpha  occ. eigenvalues --   -0.72114  -0.71236  -0.70514  -0.65571  -0.65028
 Alpha  occ. eigenvalues --   -0.64839  -0.62132  -0.61075  -0.59698  -0.57821
 Alpha  occ. eigenvalues --   -0.55623  -0.55283  -0.53128  -0.52927  -0.52883
 Alpha  occ. eigenvalues --   -0.52568  -0.50217  -0.48871  -0.48861  -0.48181
 Alpha  occ. eigenvalues --   -0.46992  -0.46027  -0.45918  -0.44874  -0.44048
 Alpha  occ. eigenvalues --   -0.37370  -0.36369
 Alpha virt. eigenvalues --    0.04962   0.11204   0.16372   0.18537   0.22643
 Alpha virt. eigenvalues --    0.23621   0.25598   0.26560   0.27224   0.28643
 Alpha virt. eigenvalues --    0.29677   0.30927   0.31322   0.31918   0.33107

 Mulliken charges:
               1
     1  C   -0.173281
     2  C   -0.218633
     3  C   -0.170485
     4  C    0.158483
     5  C   -0.179874
     6  C   -0.225442
     7  H    0.226550
     8  H    0.223640
     9  H    0.275638
    10  H    0.283342
    11  H    0.235210
    12  N    0.488435
    13  O   -0.462309
    14  O   -0.459647
    15  C   -0.303682
    16  C   -0.299163
    17  C   -0.478697
    18  H    0.154665
    19  H    0.151693
    20  H    0.154517
    21  H    0.149694
    22  H    0.151650
    23  H    0.169119
    24  H    0.161035
    25  C   -0.300715
    26  C   -0.306663
    27  C   -0.478986
    28  H    0.139829
    29  H    0.154069
    30  H    0.152962
    31  H    0.157984
    32  H    0.161794
    33  H    0.145227
    34  H    0.162040
 Sum of Mulliken charges =  -0.00000

 Dipole moment (field-independent basis, Debye):
    X=              0.3287    Y=              5.0761    Z=             -0.0589  Tot=              5.0871
 Quadrupole moment (field-independent basis, Debye-Ang):
   XX=            -87.0088   YY=           -100.2674   ZZ=            -95.2799
   XY=             11.3191   XZ=              0.7971   YZ=              0.1639

 Normal termination of Gaussian 16 at Wed May  5 17:25:23 2021.
