 Gaussian 16, Revision A.03,
 Gaussian 16:  EM64L-G16RevA.03 25-Dec-2016

 -------------
 #p 6-31g* mp2
 -------------

 ------------------------------------------------------
 Input file generated by CHIRIPA (05-May-2021 14:55:22)
 ------------------------------------------------------
 Symbolic Z-matrix:
 Charge =  0 Multiplicity = 1

                         Standard orientation:
 ---------------------------------------------------------------------
 Center     Atomic      Atomic             Coordinates (Angstroms)
 Number     Number       Type             X           Y           Z
 ---------------------------------------------------------------------
      1          6           0       -1.579947   -1.353993    1.750154
      2          6           0       -2.439480   -2.162851    0.999507
      3          6           0       -3.316819   -1.595996    0.070261
      4          6           0       -3.308142   -0.210502   -0.083438
      5          6           0       -2.463786    0.622049    0.649508
      6          6           0       -1.594817    0.033430    1.573071
      7          1           0       -0.901660   -1.802793    2.469808
      8          1           0       -2.430105   -3.240635    1.134930
      9          1           0       -3.992845   -2.198658   -0.524049
     10          1           0       -2.496026    1.693348    0.492357
     11          1           0       -0.928403    0.664067    2.154652
     12          7           0       -4.232511    0.401122   -1.064181
     13          8           0       -4.205538    1.624351   -1.180885
     14          8           0       -4.966502   -0.354297   -1.697613
     15          6           0        3.458810    0.578764    0.362311
     16          6           0        2.879548    1.968327    0.094810
     17          6           0        1.718781    2.314549    1.027840
     18          1           0        2.662822   -0.170544    0.253284
     19          1           0        3.797695    0.525156    1.406187
     20          1           0        2.543120    2.019749   -0.948640
     21          1           0        3.677051    2.714395    0.204300
     22          1           0        2.044306    2.290978    2.072865
     23          1           0        0.903933    1.592385    0.913375
     24          1           0        1.319805    3.312120    0.819201
     25          6           0        4.620026    0.218178   -0.562504
     26          6           0        5.199287   -1.171385   -0.295004
     27          6           0        6.360054   -1.517607   -1.228033
     28          1           0        4.281140    0.271786   -1.606381
     29          1           0        5.416013    0.967486   -0.453477
     30          1           0        4.401785   -1.917453   -0.404494
     31          1           0        5.535715   -1.222807    0.748446
     32          1           0        7.174902   -0.795442   -1.113569
     33          1           0        6.034529   -1.494035   -2.273059
     34          1           0        6.759030   -2.515177   -1.019395
 ---------------------------------------------------------------------

 SCF Done:  E(RHF) =  -669.535513415     A.U. after   15 cycles
 E2 =    -0.2091340921D+01 EUMP2 =    -0.67162685433628D+03

 The electronic state is 1-A.
 Alpha  occ. eigenvalues --  -20.60772 -20.60767 -15.85826 -11.31200 -11.27780
 Alpha  occ. eigenvalues --  -11.27766 -11.27513 -11.26790 -11.26741 -11.22132
 Alpha  occ. eigenvalues --  -11.21991 -11.21905 -11.21801 -11.21770 -11.21380
 Alpha  occ. eigenvalues --   -1.59848  -1.39401  -1.19379  -1.08899  -1.08768
 Alpha  occ. eigenvalues --   -1.04783  -1.04013  -0.96484  -0.95601  -0.87513
 Alpha  occ. eigenvalues --   -0.86173  -0.82434  -0.80089  -0.78709  -0.77476
 Alpha  occ. eigenvalues --   -0.72043  -0.71171  -0.70478  -0.65533  -0.65027
 Alpha  occ. eigenvalues --   -0.64790  -0.62168  -0.61380  -0.59842  -0.58085
 Alpha  occ. eigenvalues --   -0.55796  -0.55268  -0.53216  -0.53148  -0.53028
 Alpha  occ. eigenvalues --   -0.52670  -0.50406  -0.48807  -0.48798  -0.48388
 Alpha  occ. eigenvalues --   -0.47099  -0.46253  -0.46160  -0.44804  -0.44262
 Alpha  occ. eigenvalues --   -0.37355  -0.36364
 Alpha virt. eigenvalues --    0.05039   0.11200   0.16418   0.20971   0.22509
 Alpha virt. eigenvalues --    0.23947   0.25898   0.26290   0.27145   0.28309
 Alpha virt. eigenvalues --    0.28712   0.30530   0.31058   0.31431   0.31958

 Mulliken charges:
               1
     1  C   -0.172459
     2  C   -0.218702
     3  C   -0.170732
     4  C    0.158450
     5  C   -0.172009
     6  C   -0.220264
     7  H    0.226236
     8  H    0.223493
     9  H    0.275700
    10  H    0.276441
    11  H    0.228692
    12  N    0.488100
    13  O   -0.460210
    14  O   -0.460499
    15  C   -0.299015
    16  C   -0.298885
    17  C   -0.484204
    18  H    0.148366
    19  H    0.147896
    20  H    0.156009
    21  H    0.154355
    22  H    0.153176
    23  H    0.152817
    24  H    0.163873
    25  C   -0.298731
    26  C   -0.299795
    27  C   -0.475967
    28  H    0.151700
    29  H    0.150898
    30  H    0.151000
    31  H    0.151212
    32  H    0.156000
    33  H    0.156436
    34  H    0.160624
 Sum of Mulliken charges =  -0.00000

 Dipole moment (field-independent basis, Debye):
    X=              3.3401    Y=             -2.1529    Z=              3.4002  Tot=              5.2300
 Quadrupole moment (field-independent basis, Debye-Ang):
   XX=           -116.3288   YY=            -89.7264   ZZ=            -95.7150
   XY=              9.0093   XZ=            -10.5542   YZ=              0.5867

 Normal termination of Gaussian 16 at Wed May  5 19:03:11 2021.
