 Gaussian 16, Revision A.03,
 Gaussian 16:  EM64L-G16RevA.03 25-Dec-2016

 -------------
 #p 6-31g* mp2
 -------------

 ------------------------------------------------------
 Input file generated by CHIRIPA (05-May-2021 14:55:23)
 ------------------------------------------------------
 Symbolic Z-matrix:
 Charge =  0 Multiplicity = 1

                         Standard orientation:
 ---------------------------------------------------------------------
 Center     Atomic      Atomic             Coordinates (Angstroms)
 Number     Number       Type             X           Y           Z
 ---------------------------------------------------------------------
      1          6           0       -1.483643   -1.253395    2.206216
      2          6           0       -1.146219    0.040566    1.795932
      3          6           0       -1.706121    0.586652    0.637119
      4          6           0       -2.604008   -0.192665   -0.090722
      5          6           0       -2.960135   -1.484905    0.292135
      6          6           0       -2.387930   -2.010665    1.454333
      7          1           0       -1.043919   -1.669713    3.107725
      8          1           0       -0.444223    0.630969    2.377886
      9          1           0       -1.462497    1.585715    0.296622
     10          1           0       -3.662919   -2.049249   -0.308722
     11          1           0       -2.651822   -3.015853    1.770568
     12          7           0       -3.203263    0.374693   -1.319298
     13          8           0       -3.991771   -0.332317   -1.943020
     14          8           0       -2.873104    1.515654   -1.635270
     15          6           0        3.296506   -0.230781   -0.610881
     16          6           0        4.556898   -1.045724   -0.318880
     17          6           0        4.722648   -2.236851   -1.263092
     18          1           0        2.418010   -0.886040   -0.534541
     19          1           0        3.331247    0.125669   -1.649693
     20          1           0        4.520441   -1.399371    0.719494
     21          1           0        5.432479   -0.388406   -0.395735
     22          1           0        4.784681   -1.898752   -2.302537
     23          1           0        3.867461   -2.915460   -1.180970
     24          1           0        5.629950   -2.805493   -1.036578
     25          6           0        3.116917    0.963384    0.324771
     26          6           0        1.856524    1.778326    0.032769
     27          6           0        1.690774    2.969452    0.976982
     28          1           0        3.082175    0.606932    1.363583
     29          1           0        3.995413    1.618642    0.248432
     30          1           0        0.980944    1.121008    0.109626
     31          1           0        1.892981    2.131972   -1.005604
     32          1           0        2.545962    3.648063    0.894859
     33          1           0        1.628741    2.631355    2.016426
     34          1           0        0.783473    3.538096    0.750469
 ---------------------------------------------------------------------

 SCF Done:  E(RHF) =  -669.534519630     A.U. after   15 cycles
 E2 =    -0.2093346466D+01 EUMP2 =    -0.67162786609570D+03

 The electronic state is 1-A.
 Alpha  occ. eigenvalues --  -20.60790 -20.60784 -15.85844 -11.31227 -11.27805
 Alpha  occ. eigenvalues --  -11.27781 -11.27550 -11.26823 -11.26802 -11.21993
 Alpha  occ. eigenvalues --  -11.21882 -11.21812 -11.21770 -11.21655 -11.21290
 Alpha  occ. eigenvalues --   -1.59864  -1.39417  -1.19417  -1.08825  -1.08789
 Alpha  occ. eigenvalues --   -1.04839  -1.03937  -0.96407  -0.95632  -0.87413
 Alpha  occ. eigenvalues --   -0.86211  -0.82475  -0.80003  -0.78613  -0.77502
 Alpha  occ. eigenvalues --   -0.72063  -0.71189  -0.70525  -0.65512  -0.65046
 Alpha  occ. eigenvalues --   -0.64811  -0.62302  -0.61226  -0.59759  -0.57997
 Alpha  occ. eigenvalues --   -0.55713  -0.55295  -0.53202  -0.53090  -0.52923
 Alpha  occ. eigenvalues --   -0.52775  -0.50341  -0.48823  -0.48816  -0.48307
 Alpha  occ. eigenvalues --   -0.47035  -0.46146  -0.46069  -0.44816  -0.44177
 Alpha  occ. eigenvalues --   -0.37399  -0.36333
 Alpha virt. eigenvalues --    0.04991   0.11189   0.16355   0.19588   0.22816
 Alpha virt. eigenvalues --    0.23744   0.25668   0.26259   0.27096   0.27991
 Alpha virt. eigenvalues --    0.28952   0.30339   0.31334   0.31785   0.32415

 Mulliken charges:
               1
     1  C   -0.171760
     2  C   -0.220402
     3  C   -0.172712
     4  C    0.157297
     5  C   -0.171056
     6  C   -0.218635
     7  H    0.225879
     8  H    0.227819
     9  H    0.280109
    10  H    0.275845
    11  H    0.223652
    12  N    0.488148
    13  O   -0.460377
    14  O   -0.460077
    15  C   -0.299250
    16  C   -0.299670
    17  C   -0.475849
    18  H    0.150717
    19  H    0.152838
    20  H    0.149640
    21  H    0.152765
    22  H    0.157112
    23  H    0.154903
    24  H    0.160491
    25  C   -0.296557
    26  C   -0.310926
    27  C   -0.480634
    28  H    0.143911
    29  H    0.151501
    30  H    0.155224
    31  H    0.159460
    32  H    0.161722
    33  H    0.147444
    34  H    0.161432
 Sum of Mulliken charges =  -0.00000

 Dipole moment (field-independent basis, Debye):
    X=              2.1418    Y=             -2.0014    Z=              4.2241  Tot=              5.1416
 Quadrupole moment (field-independent basis, Debye-Ang):
   XX=           -104.6374   YY=            -90.9061   ZZ=            -96.1232
   XY=              8.0395   XZ=            -11.5966   YZ=             -1.1229

 Normal termination of Gaussian 16 at Thu May  6 06:18:47 2021.
