 Gaussian 16, Revision A.03,
 Gaussian 16:  EM64L-G16RevA.03 25-Dec-2016

 -------------
 #p 6-31g* mp2
 -------------

 ------------------------------------------------------
 Input file generated by CHIRIPA (05-May-2021 14:53:12)
 ------------------------------------------------------
 Symbolic Z-matrix:
 Charge =  0 Multiplicity = 1

                         Standard orientation:
 ---------------------------------------------------------------------
 Center     Atomic      Atomic             Coordinates (Angstroms)
 Number     Number       Type             X           Y           Z
 ---------------------------------------------------------------------
      1          6           0        2.866782    0.873460    0.194089
      2          6           0        1.908825    2.024993    0.501131
      3          6           0        2.635902    3.302924    0.920708
      4          1           0        3.483681    0.671846    1.080505
      5          1           0        3.556825    1.182454   -0.603256
      6          1           0        1.219903    1.713431    1.296701
      7          1           0        1.294004    2.223762   -0.386056
      8          1           0        3.310366    3.640633    0.127202
      9          1           0        3.235844    3.127402    1.819520
     10          1           0        1.932146    4.113158    1.135438
     11          6           0        2.154872   -0.410974   -0.226792
     12          6           0        3.112829   -1.562507   -0.533834
     13          6           0        2.385752   -2.840438   -0.953411
     14          1           0        1.464829   -0.719968    0.570553
     15          1           0        1.537974   -0.209360   -1.113208
     16          1           0        3.727650   -1.761276    0.353353
     17          1           0        3.801751   -1.250945   -1.329404
     18          1           0        1.785810   -2.664917   -1.852223
     19          1           0        1.711288   -3.178148   -0.159905
     20          1           0        3.089508   -3.650672   -1.168141
     21          6           0       -1.470177   -2.067876    1.613666
     22          6           0       -2.064345   -0.890766    2.080460
     23          6           0       -2.341162    0.161389    1.202456
     24          6           0       -2.009091    0.001791   -0.141994
     25          6           0       -1.416424   -1.158608   -0.637485
     26          6           0       -1.148680   -2.197812    0.258572
     27          1           0       -1.258662   -2.880185    2.302731
     28          1           0       -2.315111   -0.787069    3.132319
     29          1           0       -2.800544    1.083597    1.536999
     30          1           0       -1.177906   -1.232603   -1.691549
     31          1           0       -0.687179   -3.110825   -0.106759
     32          7           0       -2.297342    1.108804   -1.081052
     33          8           0       -1.995115    0.943399   -2.260856
     34          8           0       -2.820044    2.120927   -0.619502
 ---------------------------------------------------------------------

 SCF Done:  E(RHF) =  -669.534059398     A.U. after   15 cycles
 E2 =    -0.2095229455D+01 EUMP2 =    -0.67162928885262D+03

 The electronic state is 1-A.
 Alpha  occ. eigenvalues --  -20.60791 -20.60785 -15.85841 -11.31186 -11.27767
 Alpha  occ. eigenvalues --  -11.27724 -11.27505 -11.26794 -11.26696 -11.21951
 Alpha  occ. eigenvalues --  -11.21766 -11.21484 -11.21437 -11.21355 -11.20913
 Alpha  occ. eigenvalues --   -1.59863  -1.39418  -1.19369  -1.08771  -1.08541
 Alpha  occ. eigenvalues --   -1.04773  -1.03694  -0.96168  -0.95603  -0.87206
 Alpha  occ. eigenvalues --   -0.86164  -0.82440  -0.79784  -0.78348  -0.77462
 Alpha  occ. eigenvalues --   -0.72061  -0.71180  -0.70483  -0.65218  -0.65018
 Alpha  occ. eigenvalues --   -0.64760  -0.62150  -0.61093  -0.59543  -0.57766
 Alpha  occ. eigenvalues --   -0.55503  -0.55252  -0.53262  -0.53007  -0.52811
 Alpha  occ. eigenvalues --   -0.52418  -0.50126  -0.48818  -0.48816  -0.48076
 Alpha  occ. eigenvalues --   -0.46792  -0.45848  -0.45729  -0.44817  -0.43906
 Alpha  occ. eigenvalues --   -0.37336  -0.36241
 Alpha virt. eigenvalues --    0.05039   0.11129   0.16473   0.20514   0.22892
 Alpha virt. eigenvalues --    0.24107   0.25745   0.26131   0.27205   0.28128
 Alpha virt. eigenvalues --    0.29562   0.30149   0.31247   0.31606   0.32426

 Mulliken charges:
               1
     1  C   -0.297742
     2  C   -0.302030
     3  C   -0.475899
     4  H    0.147414
     5  H    0.150651
     6  H    0.149241
     7  H    0.158165
     8  H    0.156282
     9  H    0.152635
    10  H    0.163046
    11  C   -0.304207
    12  C   -0.298670
    13  C   -0.477874
    14  H    0.154279
    15  H    0.151030
    16  H    0.151749
    17  H    0.154911
    18  H    0.152344
    19  H    0.146872
    20  H    0.163001
    21  C   -0.173457
    22  C   -0.218762
    23  C   -0.171425
    24  C    0.160239
    25  C   -0.167654
    26  C   -0.217339
    27  H    0.225423
    28  H    0.223400
    29  H    0.275626
    30  H    0.274881
    31  H    0.227290
    32  N    0.488266
    33  O   -0.461489
    34  O   -0.460198
 Sum of Mulliken charges =  -0.00000

 Dipole moment (field-independent basis, Debye):
    X=              1.0012    Y=             -3.8219    Z=              3.2736  Tot=              5.1309
 Quadrupole moment (field-independent basis, Debye-Ang):
   XX=            -99.0415   YY=            -94.7618   ZZ=            -92.3981
   XY=              6.4510   XZ=             -8.8074   YZ=              2.1650

 Normal termination of Gaussian 16 at Thu May  6 05:44:33 2021.
