 Gaussian 16, Revision A.03,
 Gaussian 16:  EM64L-G16RevA.03 25-Dec-2016

 -------------
 #p 6-31g* mp2
 -------------

 ------------------------------------------------------
 Input file generated by CHIRIPA (05-May-2021 14:55:21)
 ------------------------------------------------------
 Symbolic Z-matrix:
 Charge =  0 Multiplicity = 1

                         Standard orientation:
 ---------------------------------------------------------------------
 Center     Atomic      Atomic             Coordinates (Angstroms)
 Number     Number       Type             X           Y           Z
 ---------------------------------------------------------------------
      1          6           0       -0.716847   -1.345819    1.580830
      2          6           0       -2.013346   -1.140254    2.063898
      3          6           0       -3.014577   -0.646319    1.222403
      4          6           0       -2.682867   -0.367373   -0.102530
      5          6           0       -1.400475   -0.561560   -0.613464
      6          6           0       -0.415082   -1.056326    0.246044
      7          1           0        0.054782   -1.729842    2.241520
      8          1           0       -2.250573   -1.364200    3.100052
      9          1           0       -4.026527   -0.477805    1.570223
     10          1           0       -1.194260   -0.329078   -1.651175
     11          1           0        0.590932   -1.214988   -0.131854
     12          7           0       -3.734442    0.155974   -1.002917
     13          8           0       -3.416654    0.393924   -2.166114
     14          8           0       -4.856543    0.318313   -0.528395
     15          6           0        3.494451    0.109168   -0.589268
     16          6           0        4.520102   -0.881109   -0.036660
     17          6           0        5.075577   -1.817580   -1.110096
     18          1           0        2.669689   -0.448122   -1.054179
     19          1           0        3.960895    0.701737   -1.388447
     20          1           0        4.052269   -1.470687    0.762180
     21          1           0        5.342424   -0.321400    0.427158
     22          1           0        5.567160   -1.245443   -1.903575
     23          1           0        4.269674   -2.401260   -1.566648
     24          1           0        5.806915   -2.517050   -0.693268
     25          6           0        2.930008    1.052117    0.471854
     26          6           0        1.904357    2.042393   -0.080754
     27          6           0        1.348883    2.978864    0.992682
     28          1           0        2.463565    0.459546    1.271033
     29          1           0        3.754769    1.609405    0.936765
     30          1           0        1.082035    1.482683   -0.544573
     31          1           0        2.372190    2.631970   -0.879595
     32          1           0        2.154785    3.562544    1.449233
     33          1           0        0.857300    2.406727    1.786160
     34          1           0        0.617545    3.678334    0.575853
 ---------------------------------------------------------------------

 SCF Done:  E(RHF) =  -669.535002281     A.U. after   15 cycles
 E2 =    -0.2093591459D+01 EUMP2 =    -0.67162859374001D+03

 The electronic state is 1-A.
 Alpha  occ. eigenvalues --  -20.60802 -20.60796 -15.85856 -11.31250 -11.27815
 Alpha  occ. eigenvalues --  -11.27810 -11.27564 -11.26841 -11.26817 -11.22450
 Alpha  occ. eigenvalues --  -11.22317 -11.22155 -11.22073 -11.21779 -11.21421
 Alpha  occ. eigenvalues --   -1.59876  -1.39429  -1.19426  -1.09217  -1.08809
 Alpha  occ. eigenvalues --   -1.04838  -1.04168  -0.96631  -0.95644  -0.87637
 Alpha  occ. eigenvalues --   -0.86228  -0.82483  -0.80254  -0.79027  -0.77521
 Alpha  occ. eigenvalues --   -0.72074  -0.71199  -0.70530  -0.66073  -0.65078
 Alpha  occ. eigenvalues --   -0.64688  -0.62162  -0.61571  -0.59993  -0.58234
 Alpha  occ. eigenvalues --   -0.55948  -0.55318  -0.53281  -0.53153  -0.53049
 Alpha  occ. eigenvalues --   -0.52879  -0.50579  -0.48837  -0.48827  -0.48555
 Alpha  occ. eigenvalues --   -0.47315  -0.46529  -0.46497  -0.44828  -0.44468
 Alpha  occ. eigenvalues --   -0.37398  -0.36384
 Alpha virt. eigenvalues --    0.04975   0.11137   0.16354   0.18898   0.23151
 Alpha virt. eigenvalues --    0.23716   0.24996   0.25578   0.27039   0.28641
 Alpha virt. eigenvalues --    0.29645   0.30801   0.31179   0.31429   0.31502

 Mulliken charges:
               1
     1  C   -0.174673
     2  C   -0.218322
     3  C   -0.170968
     4  C    0.158649
     5  C   -0.173687
     6  C   -0.220688
     7  H    0.226254
     8  H    0.223830
     9  H    0.275935
    10  H    0.276074
    11  H    0.233811
    12  N    0.488113
    13  O   -0.460084
    14  O   -0.460249
    15  C   -0.302199
    16  C   -0.299562
    17  C   -0.475771
    18  H    0.140415
    19  H    0.156238
    20  H    0.146453
    21  H    0.156072
    22  H    0.158420
    23  H    0.153502
    24  H    0.162638
    25  C   -0.299796
    26  C   -0.301146
    27  C   -0.476138
    28  H    0.142551
    29  H    0.153964
    30  H    0.151072
    31  H    0.154390
    32  H    0.155238
    33  H    0.154974
    34  H    0.164691
 Sum of Mulliken charges =  -0.00000

 Dipole moment (field-independent basis, Debye):
    X=              3.7756    Y=             -1.7617    Z=              3.1650  Tot=              5.2322
 Quadrupole moment (field-independent basis, Debye-Ang):
   XX=           -111.7823   YY=            -94.0859   ZZ=            -93.2642
   XY=              4.7562   XZ=            -11.8195   YZ=             -1.8155

 Normal termination of Gaussian 16 at Wed May  5 20:37:19 2021.
