 Gaussian 16, Revision A.03,
 Gaussian 16:  EM64L-G16RevA.03 25-Dec-2016

 -------------
 #p 6-31g* mp2
 -------------

 ------------------------------------------------------
 Input file generated by CHIRIPA (05-May-2021 14:55:19)
 ------------------------------------------------------
 Symbolic Z-matrix:
 Charge =  0 Multiplicity = 1

                         Standard orientation:
 ---------------------------------------------------------------------
 Center     Atomic      Atomic             Coordinates (Angstroms)
 Number     Number       Type             X           Y           Z
 ---------------------------------------------------------------------
      1          6           0        0.529541   -0.940166    0.561794
      2          6           0        1.393103   -1.849289   -0.058109
      3          6           0        2.723792   -1.504208   -0.312537
      4          6           0        3.159428   -0.235838    0.067923
      5          6           0        2.323365    0.691949    0.687197
      6          6           0        0.996605    0.325320    0.931816
      7          1           0       -0.502644   -1.216603    0.755630
      8          1           0        1.033123   -2.832779   -0.346564
      9          1           0        3.413797   -2.188602   -0.790989
     10          1           0        2.711167    1.664999    0.963246
     11          1           0        0.328202    1.033391    1.413393
     12          7           0        4.566089    0.140890   -0.196237
     13          8           0        4.925438    1.264525    0.148656
     14          8           0        5.282646   -0.694598   -0.743176
     15          6           0       -3.669703   -0.377969   -0.171777
     16          6           0       -4.979849   -1.130825    0.062123
     17          6           0       -4.808358   -2.648925    0.000836
     18          1           0       -3.260170   -0.662920   -1.150567
     19          1           0       -2.933367   -0.695347    0.579540
     20          1           0       -5.713926   -0.811101   -0.688559
     21          1           0       -5.386408   -0.843903    1.040388
     22          1           0       -4.096114   -2.987129    0.760394
     23          1           0       -4.425493   -2.954142   -0.978376
     24          1           0       -5.757184   -3.167311    0.170739
     25          6           0       -3.824936    1.140662   -0.113559
     26          6           0       -2.514789    1.893518   -0.347460
     27          6           0       -2.686279    3.411619   -0.286172
     28          1           0       -4.561270    1.458041   -0.864876
     29          1           0       -4.234468    1.425614    0.865230
     30          1           0       -2.108230    1.606597   -1.325725
     31          1           0       -1.780712    1.573795    0.403222
     32          1           0       -3.069144    3.716835    0.693040
     33          1           0       -3.398523    3.749823   -1.045730
     34          1           0       -1.737454    3.930005   -0.456076
 ---------------------------------------------------------------------

 SCF Done:  E(RHF) =  -669.534929619     A.U. after   15 cycles
 E2 =    -0.2092433339D+01 EUMP2 =    -0.67162736295743D+03

 The electronic state is 1-A.
 Alpha  occ. eigenvalues --  -20.60714 -20.60709 -15.85768 -11.31117 -11.27690
 Alpha  occ. eigenvalues --  -11.27684 -11.27389 -11.26690 -11.26674 -11.22573
 Alpha  occ. eigenvalues --  -11.22550 -11.22484 -11.22317 -11.21949 -11.21844
 Alpha  occ. eigenvalues --   -1.59790  -1.39344  -1.19289  -1.09424  -1.08681
 Alpha  occ. eigenvalues --   -1.04697  -1.04441  -0.96888  -0.95521  -0.87899
 Alpha  occ. eigenvalues --   -0.86096  -0.82359  -0.80515  -0.79277  -0.77407
 Alpha  occ. eigenvalues --   -0.71986  -0.71114  -0.70399  -0.66083  -0.64938
 Alpha  occ. eigenvalues --   -0.64702  -0.62129  -0.61764  -0.60247  -0.58514
 Alpha  occ. eigenvalues --   -0.56202  -0.55180  -0.53547  -0.53302  -0.53018
 Alpha  occ. eigenvalues --   -0.52801  -0.50820  -0.48857  -0.48742  -0.48701
 Alpha  occ. eigenvalues --   -0.47538  -0.46779  -0.46703  -0.44754  -0.44718
 Alpha  occ. eigenvalues --   -0.37243  -0.36290
 Alpha virt. eigenvalues --    0.05125   0.11276   0.16598   0.19168   0.22655
 Alpha virt. eigenvalues --    0.22908   0.24959   0.26137   0.26427   0.27466
 Alpha virt. eigenvalues --    0.29470   0.30633   0.30861   0.31308   0.31581

 Mulliken charges:
               1
     1  C   -0.173915
     2  C   -0.220742
     3  C   -0.170809
     4  C    0.158240
     5  C   -0.171845
     6  C   -0.220881
     7  H    0.233241
     8  H    0.223682
     9  H    0.275270
    10  H    0.275354
    11  H    0.224918
    12  N    0.488007
    13  O   -0.460667
    14  O   -0.460652
    15  C   -0.302224
    16  C   -0.299692
    17  C   -0.476399
    18  H    0.152372
    19  H    0.140427
    20  H    0.155951
    21  H    0.154044
    22  H    0.151514
    23  H    0.155900
    24  H    0.164467
    25  C   -0.298588
    26  C   -0.302368
    27  C   -0.476834
    28  H    0.154215
    29  H    0.151118
    30  H    0.157081
    31  H    0.142499
    32  H    0.155739
    33  H    0.159110
    34  H    0.162467
 Sum of Mulliken charges =  -0.00000

 Dipole moment (field-independent basis, Debye):
    X=             -5.2085    Y=             -1.2637    Z=              0.8234  Tot=              5.4225
 Quadrupole moment (field-independent basis, Debye-Ang):
   XX=           -125.6331   YY=            -91.1437   ZZ=            -93.4808
   XY=             -4.0424   XZ=              2.7052   YZ=              1.7124

 Normal termination of Gaussian 16 at Thu May  6 04:29:52 2021.
