 Gaussian 16, Revision A.03,
 Gaussian 16:  EM64L-G16RevA.03 25-Dec-2016

 -------------
 #p 6-31g* mp2
 -------------

 ------------------------------------------------------
 Input file generated by CHIRIPA (05-May-2021 14:57:24)
 ------------------------------------------------------
 Symbolic Z-matrix:
 Charge =  0 Multiplicity = 1

                         Standard orientation:
 ---------------------------------------------------------------------
 Center     Atomic      Atomic             Coordinates (Angstroms)
 Number     Number       Type             X           Y           Z
 ---------------------------------------------------------------------
      1          6           0       -3.823938   -2.316947   -0.927503
      2          6           0       -4.936976   -1.483302   -1.078180
      3          6           0       -4.906205   -0.166300   -0.610092
      4          6           0       -3.740792    0.286304    0.006554
      5          6           0       -2.615584   -0.519910    0.171530
      6          6           0       -2.668831   -1.833442   -0.304228
      7          1           0       -3.856571   -3.338678   -1.294105
      8          1           0       -5.835393   -1.856104   -1.561823
      9          1           0       -5.753535    0.500580   -0.713635
     10          1           0       -1.734179   -0.119900    0.657878
     11          1           0       -1.802927   -2.478608   -0.185836
     12          7           0       -3.696319    1.678718    0.506158
     13          8           0       -2.657616    2.053500    1.045853
     14          8           0       -4.701007    2.368945    0.348593
     15          6           0        5.443556    0.834070   -1.566694
     16          6           0        4.076607    1.000857   -1.811951
     17          6           0        3.128307    0.511333   -0.908823
     18          6           0        3.584213   -0.142944    0.234576
     19          6           0        4.939216   -0.324780    0.506960
     20          6           0        5.869747    0.172949   -0.410060
     21          1           0        6.173317    1.217531   -2.273661
     22          1           0        3.742729    1.513884   -2.709378
     23          1           0        2.063952    0.626635   -1.073962
     24          1           0        5.241556   -0.840493    1.410315
     25          1           0        6.930698    0.041971   -0.216997
     26          7           0        2.589696   -0.665526    1.198030
     27          8           0        3.017088   -1.238312    2.197975
     28          8           0        1.401633   -0.492443    0.934999
 ---------------------------------------------------------------------

 SCF Done:  E(RHF) =  -868.339621266     A.U. after   16 cycles
 E2 =    -0.2598411923D+01 EUMP2 =    -0.87093803318861D+03

 The electronic state is 1-A.
 Alpha  occ. eigenvalues --  -20.61235 -20.61198 -20.60109 -20.60087 -15.86267
 Alpha  occ. eigenvalues --  -15.85148 -11.31434 -11.30407 -11.27981 -11.27975
 Alpha  occ. eigenvalues --  -11.27694 -11.27057 -11.26959 -11.26944 -11.26807
 Alpha  occ. eigenvalues --  -11.26771 -11.26072 -11.25889  -1.60279  -1.59183
 Alpha  occ. eigenvalues --   -1.39841  -1.38734  -1.19589  -1.18593  -1.09020
 Alpha  occ. eigenvalues --   -1.08027  -1.04964  -1.03956  -0.95888  -0.94863
 Alpha  occ. eigenvalues --   -0.86372  -0.85373  -0.82732  -0.81678  -0.77798
 Alpha  occ. eigenvalues --   -0.76720  -0.72505  -0.71584  -0.71368  -0.70699
 Alpha  occ. eigenvalues --   -0.70509  -0.69701  -0.65249  -0.64966  -0.64239
 Alpha  occ. eigenvalues --   -0.63953  -0.62313  -0.61264  -0.55475  -0.54514
 Alpha  occ. eigenvalues --   -0.53303  -0.53054  -0.52338  -0.52027  -0.49254
 Alpha  occ. eigenvalues --   -0.49217  -0.48135  -0.48113  -0.45287  -0.44162
 Alpha  occ. eigenvalues --   -0.37561  -0.36623  -0.36558  -0.35569
 Alpha virt. eigenvalues --    0.04729   0.05770   0.11099   0.12069   0.16256
 Alpha virt. eigenvalues --    0.17263   0.21190   0.22230   0.27144   0.27660
 Alpha virt. eigenvalues --    0.28387   0.29150   0.30846   0.31757   0.32261

 Mulliken charges:
               1
     1  C   -0.171572
     2  C   -0.219696
     3  C   -0.171993
     4  C    0.156744
     5  C   -0.177902
     6  C   -0.222459
     7  H    0.222756
     8  H    0.220043
     9  H    0.272679
    10  H    0.295209
    11  H    0.229683
    12  N    0.487342
    13  O   -0.458004
    14  O   -0.464579
    15  C   -0.170162
    16  C   -0.218512
    17  C   -0.169995
    18  C    0.157720
    19  C   -0.170555
    20  C   -0.218612
    21  H    0.226743
    22  H    0.225109
    23  H    0.275732
    24  H    0.275888
    25  H    0.224294
    26  N    0.493530
    27  O   -0.457361
    28  O   -0.472071
 Sum of Mulliken charges =  -0.00000

 Dipole moment (field-independent basis, Debye):
    X=              3.7749    Y=             -3.0627    Z=             -5.0882  Tot=              7.0370
 Quadrupole moment (field-independent basis, Debye-Ang):
   XX=            -72.4348   YY=           -109.0227   ZZ=           -105.3933
   XY=             22.5493   XZ=             -1.0501   YZ=             -1.2367

 Normal termination of Gaussian 16 at Fri May  7 00:19:31 2021.
