 Gaussian 16, Revision A.03,
 Gaussian 16:  EM64L-G16RevA.03 25-Dec-2016

 -------------
 #p 6-31g* mp2
 -------------

 ------------------------------------------------------
 Input file generated by CHIRIPA (05-May-2021 14:57:27)
 ------------------------------------------------------
 Symbolic Z-matrix:
 Charge =  0 Multiplicity = 1

                         Standard orientation:
 ---------------------------------------------------------------------
 Center     Atomic      Atomic             Coordinates (Angstroms)
 Number     Number       Type             X           Y           Z
 ---------------------------------------------------------------------
      1          6           0        1.454830   -1.767328   -0.131626
      2          6           0        1.237642   -0.494627   -0.669755
      3          6           0        2.253745    0.465505   -0.654622
      4          6           0        3.480268    0.117409   -0.090918
      5          6           0        3.727377   -1.142063    0.453101
      6          6           0        2.696815   -2.086422    0.427099
      7          1           0        0.659881   -2.507055   -0.147603
      8          1           0        0.274108   -0.244024   -1.104319
      9          1           0        2.112712    1.458333   -1.064281
     10          1           0        4.698496   -1.362469    0.879443
     11          1           0        2.868327   -3.074027    0.845745
     12          7           0        4.563624    1.125508   -0.069145
     13          8           0        5.635225    0.794008    0.433265
     14          8           0        4.320645    2.228069   -0.554901
     15          6           0       -3.994405    2.463359    0.330545
     16          6           0       -3.395253    1.798705    1.405614
     17          6           0       -3.007413    0.460852    1.286131
     18          6           0       -3.234751   -0.184699    0.071688
     19          6           0       -3.829424    0.450236   -1.017584
     20          6           0       -4.209199    1.788193   -0.875497
     21          1           0       -4.292556    3.502676    0.432141
     22          1           0       -3.227209    2.320538    2.343428
     23          1           0       -2.541562   -0.077769    2.102396
     24          1           0       -3.983946   -0.096398   -1.939936
     25          1           0       -4.674298    2.301849   -1.712089
     26          7           0       -2.828431   -1.601079   -0.066769
     27          8           0       -3.039686   -2.147484   -1.147254
     28          8           0       -2.306395   -2.138014    0.907818
 ---------------------------------------------------------------------

 SCF Done:  E(RHF) =  -868.340010525     A.U. after   16 cycles
 E2 =    -0.2599108221D+01 EUMP2 =    -0.87093911874586D+03

 The electronic state is 1-A.
 Alpha  occ. eigenvalues --  -20.61946 -20.61940 -20.60453 -20.60444 -15.86965
 Alpha  occ. eigenvalues --  -15.85503 -11.32062 -11.30699 -11.28589 -11.28564
 Alpha  occ. eigenvalues --  -11.28236 -11.27508 -11.27483 -11.27309 -11.27268
 Alpha  occ. eigenvalues --  -11.26773 -11.26212 -11.26146  -1.61029  -1.59532
 Alpha  occ. eigenvalues --   -1.40578  -1.39091  -1.20198  -1.18853  -1.09639
 Alpha  occ. eigenvalues --   -1.08233  -1.05539  -1.04250  -0.96515  -0.95098
 Alpha  occ. eigenvalues --   -0.86947  -0.85633  -0.83342  -0.81955  -0.78432
 Alpha  occ. eigenvalues --   -0.77069  -0.73172  -0.72379  -0.71720  -0.71267
 Alpha  occ. eigenvalues --   -0.70857  -0.69819  -0.65833  -0.65516  -0.64486
 Alpha  occ. eigenvalues --   -0.64240  -0.62878  -0.61619  -0.56027  -0.54585
 Alpha  occ. eigenvalues --   -0.53895  -0.53609  -0.52571  -0.52328  -0.49950
 Alpha  occ. eigenvalues --   -0.49919  -0.48488  -0.48463  -0.46026  -0.44535
 Alpha  occ. eigenvalues --   -0.38159  -0.37134  -0.36746  -0.35880
 Alpha virt. eigenvalues --    0.04025   0.05497   0.10514   0.11794   0.15584
 Alpha virt. eigenvalues --    0.17052   0.20765   0.21930   0.26709   0.27376
 Alpha virt. eigenvalues --    0.27667   0.29035   0.30480   0.31566   0.31987

 Mulliken charges:
               1
     1  C   -0.171985
     2  C   -0.221978
     3  C   -0.172396
     4  C    0.156806
     5  C   -0.171422
     6  C   -0.220592
     7  H    0.245694
     8  H    0.219083
     9  H    0.271787
    10  H    0.273801
    11  H    0.224471
    12  N    0.488303
    13  O   -0.461650
    14  O   -0.463501
    15  C   -0.169513
    16  C   -0.218408
    17  C   -0.170546
    18  C    0.153046
    19  C   -0.173357
    20  C   -0.218699
    21  H    0.229676
    22  H    0.227579
    23  H    0.277409
    24  H    0.276580
    25  H    0.226609
    26  N    0.485635
    27  O   -0.459300
    28  O   -0.463132
 Sum of Mulliken charges =  -0.00000

 Dipole moment (field-independent basis, Debye):
    X=             -5.6280    Y=              1.4161    Z=              0.4922  Tot=              5.8243
 Quadrupole moment (field-independent basis, Debye-Ang):
   XX=           -120.9232   YY=           -105.7396   ZZ=            -99.9132
   XY=            -32.1245   XZ=              1.7571   YZ=             -0.9805

 Normal termination of Gaussian 16 at Thu May  6 05:12:38 2021.
