 Gaussian 16, Revision A.03,
 Gaussian 16:  EM64L-G16RevA.03 25-Dec-2016

 -------------
 #p 6-31g* mp2
 -------------

 ------------------------------------------------------
 Input file generated by CHIRIPA (05-May-2021 14:53:17)
 ------------------------------------------------------
 Symbolic Z-matrix:
 Charge =  0 Multiplicity = 1

                         Standard orientation:
 ---------------------------------------------------------------------
 Center     Atomic      Atomic             Coordinates (Angstroms)
 Number     Number       Type             X           Y           Z
 ---------------------------------------------------------------------
      1          6           0       -4.010086    0.182789    0.146249
      2          6           0       -3.853360   -1.324579   -0.056887
      3          6           0       -5.141572   -2.096769    0.229514
      4          1           0       -4.333075    0.375616    1.178451
      5          1           0       -4.812974    0.552195   -0.506672
      6          1           0       -3.050073   -1.690798    0.595209
      7          1           0       -3.530522   -1.513828   -1.088670
      8          1           0       -5.947663   -1.759420   -0.430043
      9          1           0       -5.464484   -1.937395    1.263405
     10          1           0       -5.007020   -3.172327    0.078086
     11          6           0       -2.730728    0.968399   -0.136216
     12          6           0       -2.887454    2.475767    0.066920
     13          6           0       -1.599241    3.247957   -0.219481
     14          1           0       -1.927840    0.598992    0.516705
     15          1           0       -2.407739    0.775572   -1.168418
     16          1           0       -3.210292    2.665016    1.098703
     17          1           0       -3.690740    2.841986   -0.585176
     18          1           0       -1.276330    3.088583   -1.253372
     19          1           0       -0.793151    2.910608    0.440076
     20          1           0       -1.733793    4.323515   -0.068053
     21          6           0        4.495789    1.243693    0.166097
     22          6           0        3.164274    1.669826    0.121395
     23          6           0        2.124129    0.740430    0.027217
     24          6           0        2.453055   -0.613392   -0.020356
     25          6           0        3.769758   -1.069209    0.022233
     26          6           0        4.793757   -0.122057    0.116461
     27          1           0        5.297527    1.972567    0.239277
     28          1           0        2.929904    2.729847    0.159769
     29          1           0        1.084562    1.042754   -0.009110
     30          1           0        3.972151   -2.132623   -0.017854
     31          1           0        5.826911   -0.455889    0.150997
     32          7           0        1.360448   -1.606701   -0.120085
     33          8           0        1.676607   -2.793735   -0.160447
     34          8           0        0.208591   -1.179413   -0.156002
 ---------------------------------------------------------------------

 SCF Done:  E(RHF) =  -669.535900390     A.U. after   15 cycles
 E2 =    -0.2092241000D+01 EUMP2 =    -0.67162814138954D+03

 The electronic state is 1-A.
 Alpha  occ. eigenvalues --  -20.60865 -20.60858 -15.85899 -11.31213 -11.27786
 Alpha  occ. eigenvalues --  -11.27751 -11.27522 -11.26793 -11.26771 -11.21307
 Alpha  occ. eigenvalues --  -11.21247 -11.20565 -11.20496 -11.20399 -11.20155
 Alpha  occ. eigenvalues --   -1.59932  -1.39487  -1.19385  -1.08793  -1.07697
 Alpha  occ. eigenvalues --   -1.04779  -1.02921  -0.95636  -0.95414  -0.86457
 Alpha  occ. eigenvalues --   -0.86180  -0.82470  -0.78986  -0.77637  -0.77263
 Alpha  occ. eigenvalues --   -0.72115  -0.71248  -0.70497  -0.65042  -0.64787
 Alpha  occ. eigenvalues --   -0.64333  -0.62135  -0.60328  -0.58829  -0.56973
 Alpha  occ. eigenvalues --   -0.55291  -0.54729  -0.53115  -0.52875  -0.52161
 Alpha  occ. eigenvalues --   -0.51844  -0.49425  -0.48882  -0.48878  -0.47268
 Alpha  occ. eigenvalues --   -0.45977  -0.45021  -0.44941  -0.44682  -0.43112
 Alpha  occ. eigenvalues --   -0.37370  -0.36382
 Alpha virt. eigenvalues --    0.04988   0.11266   0.16480   0.20152   0.23273
 Alpha virt. eigenvalues --    0.24272   0.26311   0.27500   0.27691   0.28608
 Alpha virt. eigenvalues --    0.29643   0.30938   0.31625   0.32174   0.32419

 Mulliken charges:
               1
     1  C   -0.299110
     2  C   -0.299712
     3  C   -0.475998
     4  H    0.145578
     5  H    0.144891
     6  H    0.165763
     7  H    0.154661
     8  H    0.150910
     9  H    0.151653
    10  H    0.160699
    11  C   -0.302300
    12  C   -0.298943
    13  C   -0.477723
    14  H    0.164421
    15  H    0.151679
    16  H    0.150683
    17  H    0.151362
    18  H    0.155124
    19  H    0.145183
    20  H    0.159883
    21  C   -0.170481
    22  C   -0.220788
    23  C   -0.177314
    24  C    0.157507
    25  C   -0.170336
    26  C   -0.218970
    27  H    0.225737
    28  H    0.224479
    29  H    0.284732
    30  H    0.275482
    31  H    0.223493
    32  N    0.492236
    33  O   -0.459802
    34  O   -0.464679
 Sum of Mulliken charges =  -0.00000

 Dipole moment (field-independent basis, Debye):
    X=              3.9736    Y=              3.3252    Z=              0.3315  Tot=              5.1920
 Quadrupole moment (field-independent basis, Debye-Ang):
   XX=            -75.4150   YY=            -97.4798   ZZ=            -94.7953
   XY=              3.0714   XZ=              1.2794   YZ=             -0.2814

 Normal termination of Gaussian 16 at Thu May  6 15:35:38 2021.
