 Gaussian 16, Revision A.03,
 Gaussian 16:  EM64L-G16RevA.03 25-Dec-2016

 -------------
 #p 6-31g* mp2
 -------------

 ------------------------------------------------------
 Input file generated by CHIRIPA (05-May-2021 14:53:15)
 ------------------------------------------------------
 Symbolic Z-matrix:
 Charge =  0 Multiplicity = 1

                         Standard orientation:
 ---------------------------------------------------------------------
 Center     Atomic      Atomic             Coordinates (Angstroms)
 Number     Number       Type             X           Y           Z
 ---------------------------------------------------------------------
      1          6           0       -3.842918    0.947697   -0.113152
      2          6           0       -2.763260    2.014611   -0.297594
      3          6           0       -3.288567    3.432552   -0.071124
      4          1           0       -4.670538    1.148835   -0.807078
      5          1           0       -4.258624    1.028120    0.900808
      6          1           0       -2.348749    1.931302   -1.310440
      7          1           0       -1.938028    1.810799    0.396718
      8          1           0       -3.684413    3.539169    0.944031
      9          1           0       -4.097468    3.660357   -0.772826
     10          1           0       -2.500289    4.179363   -0.208059
     11          6           0       -3.333101   -0.474994   -0.336231
     12          6           0       -4.412758   -1.541908   -0.151789
     13          6           0       -3.887451   -2.959850   -0.378259
     14          1           0       -2.917395   -0.555417   -1.350191
     15          1           0       -2.505481   -0.676132    0.357695
     16          1           0       -5.237990   -1.338097   -0.846101
     17          1           0       -4.827269   -1.458600    0.861057
     18          1           0       -3.078551   -3.187654    0.323443
     19          1           0       -3.491605   -3.066467   -1.393414
     20          1           0       -4.675729   -3.706661   -0.241324
     21          6           0        1.047979   -0.556828    1.949474
     22          6           0        0.777304   -0.885494    0.617094
     23          6           0        1.742300   -0.683555   -0.374142
     24          6           0        2.972814   -0.148669    0.004043
     25          6           0        3.272561    0.188850    1.322953
     26          6           0        2.292549   -0.021649    2.297537
     27          1           0        0.292514   -0.717023    2.713023
     28          1           0       -0.188370   -1.301276    0.343880
     29          1           0        1.559284   -0.929120   -1.413190
     30          1           0        4.244434    0.601691    1.564704
     31          1           0        2.505539    0.234528    3.331487
     32          7           0        4.002361    0.069646   -1.036520
     33          8           0        5.078642    0.542259   -0.677503
     34          8           0        3.713544   -0.235986   -2.191428
 ---------------------------------------------------------------------

 SCF Done:  E(RHF) =  -669.535603712     A.U. after   15 cycles
 E2 =    -0.2091554342D+01 EUMP2 =    -0.67162715805415D+03

 The electronic state is 1-A.
 Alpha  occ. eigenvalues --  -20.60740 -20.60735 -15.85793 -11.31157 -11.27726
 Alpha  occ. eigenvalues --  -11.27710 -11.27476 -11.26748 -11.26695 -11.22403
 Alpha  occ. eigenvalues --  -11.22331 -11.22150 -11.22056 -11.21885 -11.21499
 Alpha  occ. eigenvalues --   -1.59815  -1.39369  -1.19327  -1.09190  -1.08726
 Alpha  occ. eigenvalues --   -1.04725  -1.04202  -0.96667  -0.95561  -0.87678
 Alpha  occ. eigenvalues --   -0.86131  -0.82391  -0.80274  -0.79027  -0.77430
 Alpha  occ. eigenvalues --   -0.72012  -0.71138  -0.70444  -0.65856  -0.64979
 Alpha  occ. eigenvalues --   -0.64715  -0.62085  -0.61587  -0.60033  -0.58272
 Alpha  occ. eigenvalues --   -0.55969  -0.55239  -0.53325  -0.53129  -0.53054
 Alpha  occ. eigenvalues --   -0.52790  -0.50608  -0.48783  -0.48767  -0.48573
 Alpha  occ. eigenvalues --   -0.47313  -0.46523  -0.46457  -0.44775  -0.44483
 Alpha  occ. eigenvalues --   -0.37311  -0.36317
 Alpha virt. eigenvalues --    0.05094   0.11236   0.16579   0.19753   0.22653
 Alpha virt. eigenvalues --    0.23499   0.25147   0.26238   0.27251   0.28154
 Alpha virt. eigenvalues --    0.29245   0.30183   0.31211   0.31232   0.31747

 Mulliken charges:
               1
     1  C   -0.298236
     2  C   -0.301128
     3  C   -0.476209
     4  H    0.153122
     5  H    0.149613
     6  H    0.154142
     7  H    0.150808
     8  H    0.154619
     9  H    0.156744
    10  H    0.163164
    11  C   -0.301972
    12  C   -0.299689
    13  C   -0.476788
    14  H    0.151173
    15  H    0.140816
    16  H    0.156201
    17  H    0.152821
    18  H    0.149515
    19  H    0.157044
    20  H    0.164655
    21  C   -0.173177
    22  C   -0.222515
    23  C   -0.172126
    24  C    0.158829
    25  C   -0.171252
    26  C   -0.218386
    27  H    0.224717
    28  H    0.231893
    29  H    0.275898
    30  H    0.275474
    31  H    0.223203
    32  N    0.488015
    33  O   -0.460563
    34  O   -0.460427
 Sum of Mulliken charges =  -0.00000

 Dipole moment (field-independent basis, Debye):
    X=             -3.7987    Y=             -0.7133    Z=              3.5975  Tot=              5.2802
 Quadrupole moment (field-independent basis, Debye-Ang):
   XX=           -114.1034   YY=            -95.5459   ZZ=            -91.6491
   XY=             -0.2218   XZ=             13.9578   YZ=              0.6902

 Normal termination of Gaussian 16 at Thu May  6 10:34:54 2021.
