 Gaussian 16, Revision A.03,
 Gaussian 16:  EM64L-G16RevA.03 25-Dec-2016

 -------------
 #p 6-31g* mp2
 -------------

 ------------------------------------------------------
 Input file generated by CHIRIPA (05-May-2021 14:55:19)
 ------------------------------------------------------
 Symbolic Z-matrix:
 Charge =  0 Multiplicity = 1

                         Standard orientation:
 ---------------------------------------------------------------------
 Center     Atomic      Atomic             Coordinates (Angstroms)
 Number     Number       Type             X           Y           Z
 ---------------------------------------------------------------------
      1          6           0       -5.422809   -1.262513   -0.356080
      2          6           0       -5.284810   -0.060080   -1.057244
      3          6           0       -4.205235    0.790768   -0.802047
      4          6           0       -3.278119    0.406228    0.165359
      5          6           0       -3.388081   -0.785242    0.880621
      6          6           0       -4.475674   -1.620625    0.608913
      7          1           0       -6.264563   -1.917465   -0.560736
      8          1           0       -6.018838    0.220601   -1.807222
      9          1           0       -4.074110    1.727426   -1.330152
     10          1           0       -2.640248   -1.038000    1.622427
     11          1           0       -4.580299   -2.553845    1.154989
     12          7           0       -2.130978    1.298796    0.444264
     13          8           0       -1.327795    0.937189    1.301454
     14          8           0       -2.056752    2.343098   -0.199601
     15          6           0        5.009921    0.167453   -0.067970
     16          6           0        6.393694   -0.480580   -0.124637
     17          6           0        7.527546    0.530771    0.046665
     18          1           0        4.939410    0.935506   -0.850317
     19          1           0        4.895762    0.688450    0.892721
     20          1           0        6.504685   -1.001365   -1.084366
     21          1           0        6.460851   -1.247311    0.657813
     22          1           0        7.444790    1.042639    1.010897
     23          1           0        7.488873    1.289982   -0.741181
     24          1           0        8.507859    0.046072    0.002905
     25          6           0        3.866064   -0.830805   -0.237675
     26          6           0        2.482292   -0.182773   -0.181007
     27          6           0        1.348440   -1.194122   -0.352310
     28          1           0        3.980223   -1.351803   -1.198365
     29          1           0        3.936576   -1.598858    0.544673
     30          1           0        2.415135    0.583958   -0.963458
     31          1           0        2.371300    0.338012    0.778722
     32          1           0        1.387113   -1.953335    0.435536
     33          1           0        1.431196   -1.705991   -1.316542
     34          1           0        0.368127   -0.709425   -0.308549
 ---------------------------------------------------------------------

 SCF Done:  E(RHF) =  -669.536110669     A.U. after   15 cycles
 E2 =    -0.2091071456D+01 EUMP2 =    -0.67162718212493D+03

 The electronic state is 1-A.
 Alpha  occ. eigenvalues --  -20.60942 -20.60931 -15.85955 -11.31265 -11.27828
 Alpha  occ. eigenvalues --  -11.27822 -11.27565 -11.26834 -11.26823 -11.21089
 Alpha  occ. eigenvalues --  -11.20737 -11.20650 -11.20619 -11.20578 -11.20164
 Alpha  occ. eigenvalues --   -1.59996  -1.39552  -1.19434  -1.08842  -1.07723
 Alpha  occ. eigenvalues --   -1.04827  -1.02802  -0.95687  -0.95280  -0.86311
 Alpha  occ. eigenvalues --   -0.86229  -0.82518  -0.78881  -0.77574  -0.77511
 Alpha  occ. eigenvalues --   -0.72181  -0.71317  -0.70543  -0.65090  -0.64831
 Alpha  occ. eigenvalues --   -0.64359  -0.62175  -0.60206  -0.58648  -0.56861
 Alpha  occ. eigenvalues --   -0.55334  -0.54590  -0.53159  -0.52919  -0.51983
 Alpha  occ. eigenvalues --   -0.51711  -0.49253  -0.48949  -0.48933  -0.47204
 Alpha  occ. eigenvalues --   -0.45917  -0.45073  -0.44971  -0.44925  -0.43037
 Alpha  occ. eigenvalues --   -0.37413  -0.36426
 Alpha virt. eigenvalues --    0.04940   0.11210   0.16407   0.21340   0.23531
 Alpha virt. eigenvalues --    0.24949   0.27243   0.27343   0.28012   0.28223
 Alpha virt. eigenvalues --    0.28757   0.30770   0.31999   0.32104   0.32498

 Mulliken charges:
               1
     1  C   -0.170518
     2  C   -0.218576
     3  C   -0.170792
     4  C    0.157820
     5  C   -0.170808
     6  C   -0.218482
     7  H    0.225923
     8  H    0.223714
     9  H    0.275721
    10  H    0.276375
    11  H    0.223884
    12  N    0.487198
    13  O   -0.458039
    14  O   -0.458473
    15  C   -0.297967
    16  C   -0.299040
    17  C   -0.475362
    18  H    0.149796
    19  H    0.150809
    20  H    0.150386
    21  H    0.150651
    22  H    0.155322
    23  H    0.154978
    24  H    0.158324
    25  C   -0.298185
    26  C   -0.298100
    27  C   -0.477151
    28  H    0.146112
    29  H    0.146992
    30  H    0.152728
    31  H    0.161348
    32  H    0.149479
    33  H    0.147594
    34  H    0.166337
 Sum of Mulliken charges =  -0.00000

 Dipole moment (field-independent basis, Debye):
    X=             -4.2658    Y=             -3.0142    Z=             -0.9128  Tot=              5.3024
 Quadrupole moment (field-independent basis, Debye-Ang):
   XX=            -69.7535   YY=            -96.1889   ZZ=            -92.1950
   XY=              7.4364   XZ=              4.0466   YZ=             -3.8229

 Normal termination of Gaussian 16 at Thu May  6 15:42:04 2021.
