 Gaussian 16, Revision A.03,
 Gaussian 16:  EM64L-G16RevA.03 25-Dec-2016

 -------------
 #p 6-31g* mp2
 -------------

 ------------------------------------------------------
 Input file generated by CHIRIPA (05-May-2021 14:57:26)
 ------------------------------------------------------
 Symbolic Z-matrix:
 Charge =  0 Multiplicity = 1

                         Standard orientation:
 ---------------------------------------------------------------------
 Center     Atomic      Atomic             Coordinates (Angstroms)
 Number     Number       Type             X           Y           Z
 ---------------------------------------------------------------------
      1          6           0       -6.332108   -0.265627   -0.023841
      2          6           0       -5.560555   -1.425800    0.099554
      3          6           0       -4.164372   -1.354659    0.086901
      4          6           0       -3.570132   -0.101252   -0.051443
      5          6           0       -4.311463    1.072671   -0.176439
      6          6           0       -5.706203    0.977714   -0.161202
      7          1           0       -7.416136   -0.330142   -0.013008
      8          1           0       -6.043925   -2.392748    0.206368
      9          1           0       -3.542897   -2.236931    0.180617
     10          1           0       -3.800998    2.022309   -0.281467
     11          1           0       -6.302868    1.880385   -0.257222
     12          7           0       -2.092820   -0.013331   -0.066206
     13          8           0       -1.593455    1.102965   -0.189311
     14          8           0       -1.462240   -1.062380    0.045607
     15          6           0        5.270318   -1.931405   -0.181461
     16          6           0        3.911242   -2.069594    0.119100
     17          6           0        3.094639   -0.942297    0.249145
     18          6           0        3.672783    0.313653    0.071290
     19          6           0        5.023423    0.483990   -0.228783
     20          6           0        5.821100   -0.657300   -0.354139
     21          1           0        5.897324   -2.812553   -0.280661
     22          1           0        3.480779   -3.057834    0.253741
     23          1           0        2.039452   -1.020461    0.481283
     24          1           0        5.423892    1.482247   -0.357338
     25          1           0        6.876259   -0.546962   -0.587616
     26          7           0        2.818300    1.514479    0.206481
     27          8           0        3.351823    2.609886    0.045010
     28          8           0        1.631214    1.337540    0.471355
 ---------------------------------------------------------------------

 SCF Done:  E(RHF) =  -868.336511722     A.U. after   16 cycles
 E2 =    -0.2600314910D+01 EUMP2 =    -0.87093682663186D+03

 The electronic state is 1-A.
 Alpha  occ. eigenvalues --  -20.60276 -20.60169 -20.59362 -20.59216 -15.85265
 Alpha  occ. eigenvalues --  -15.84332 -11.30823 -11.29982 -11.27444 -11.27378
 Alpha  occ. eigenvalues --  -11.27196 -11.26673 -11.26490 -11.26475 -11.26467
 Alpha  occ. eigenvalues --  -11.26449 -11.25753 -11.25661  -1.59273  -1.58379
 Alpha  occ. eigenvalues --   -1.38827  -1.37912  -1.19012  -1.18209  -1.08371
 Alpha  occ. eigenvalues --   -1.07570  -1.04444  -1.03645  -0.95173  -0.94339
 Alpha  occ. eigenvalues --   -0.85833  -0.85034  -0.82006  -0.81155  -0.77023
 Alpha  occ. eigenvalues --   -0.76140  -0.71485  -0.70632  -0.70494  -0.70121
 Alpha  occ. eigenvalues --   -0.69724  -0.69317  -0.64662  -0.64448  -0.63850
 Alpha  occ. eigenvalues --   -0.63661  -0.61788  -0.60962  -0.54940  -0.54179
 Alpha  occ. eigenvalues --   -0.52764  -0.52539  -0.51983  -0.51735  -0.48271
 Alpha  occ. eigenvalues --   -0.48184  -0.47333  -0.47276  -0.44194  -0.43244
 Alpha  occ. eigenvalues --   -0.37006  -0.36244  -0.36056  -0.35267
 Alpha virt. eigenvalues --    0.05519   0.06376   0.11595   0.12379   0.16974
 Alpha virt. eigenvalues --    0.17791   0.21699   0.22461   0.27599   0.28340
 Alpha virt. eigenvalues --    0.28613   0.29440   0.31232   0.31958   0.32860

 Mulliken charges:
               1
     1  C   -0.171443
     2  C   -0.218521
     3  C   -0.171529
     4  C    0.158791
     5  C   -0.170958
     6  C   -0.218596
     7  H    0.224277
     8  H    0.221483
     9  H    0.272692
    10  H    0.278561
    11  H    0.223184
    12  N    0.487720
    13  O   -0.441547
    14  O   -0.471768
    15  C   -0.172003
    16  C   -0.220230
    17  C   -0.174597
    18  C    0.156613
    19  C   -0.172100
    20  C   -0.219483
    21  H    0.220983
    22  H    0.221416
    23  H    0.292326
    24  H    0.272593
    25  H    0.218914
    26  N    0.486015
    27  O   -0.470601
    28  O   -0.442193
 Sum of Mulliken charges =  -0.00000

 Dipole moment (field-independent basis, Debye):
    X=             -2.5654    Y=             -4.3369    Z=             -0.3893  Tot=              5.0539
 Quadrupole moment (field-independent basis, Debye-Ang):
   XX=            -46.3727   YY=           -101.6593   ZZ=           -106.4560
   XY=            -11.2994   XZ=             -2.2161   YZ=             -1.7468

 Normal termination of Gaussian 16 at Fri May  7 06:38:44 2021.
