 Gaussian 16, Revision A.03,
 Gaussian 16:  EM64L-G16RevA.03 25-Dec-2016

 -------------
 #p 6-31g* mp2
 -------------

 ------------------------------------------------------
 Input file generated by CHIRIPA (05-May-2021 14:55:22)
 ------------------------------------------------------
 Symbolic Z-matrix:
 Charge =  0 Multiplicity = 1

                         Standard orientation:
 ---------------------------------------------------------------------
 Center     Atomic      Atomic             Coordinates (Angstroms)
 Number     Number       Type             X           Y           Z
 ---------------------------------------------------------------------
      1          6           0       -5.758151   -1.011052   -0.018624
      2          6           0       -5.465278    0.151003   -0.739994
      3          6           0       -4.162357    0.656832   -0.772905
      4          6           0       -3.172251   -0.027800   -0.069870
      5          6           0       -3.432572   -1.187890    0.657945
      6          6           0       -4.742653   -1.675618    0.676817
      7          1           0       -6.773072   -1.396961    0.001489
      8          1           0       -6.251923    0.669196   -1.281021
      9          1           0       -3.907852    1.554422   -1.323339
     10          1           0       -2.627297   -1.682513    1.187377
     11          1           0       -4.967191   -2.578298    1.237884
     12          7           0       -1.789117    0.498117   -0.097281
     13          8           0       -0.934652   -0.123564    0.530445
     14          8           0       -1.585670    1.522054   -0.745972
     15          6           0        4.050183    0.809546    0.312973
     16          6           0        2.521801    0.796797    0.356204
     17          6           0        1.932298    2.130244    0.816853
     18          1           0        4.436823    1.057808    1.310881
     19          1           0        4.384338    1.611271   -0.360060
     20          1           0        2.190607   -0.005560    1.027881
     21          1           0        2.138757    0.548349   -0.641878
     22          1           0        2.234197    2.938324    0.142713
     23          1           0        2.286341    2.381268    1.821960
     24          1           0        0.838532    2.098897    0.840418
     25          6           0        4.654349   -0.516484   -0.145671
     26          6           0        6.182731   -0.503734   -0.188900
     27          6           0        6.772235   -1.837182   -0.649550
     28          1           0        4.320194   -1.318209    0.527362
     29          1           0        4.267709   -0.764745   -1.143579
     30          1           0        6.565775   -0.255286    0.809181
     31          1           0        6.513926    0.298622   -0.860577
     32          1           0        6.418192   -2.088205   -1.654658
     33          1           0        6.470335   -2.645261    0.024589
     34          1           0        7.866000   -1.805834   -0.673114
 ---------------------------------------------------------------------

 SCF Done:  E(RHF) =  -669.536599290     A.U. after   15 cycles
 E2 =    -0.2092205637D+01 EUMP2 =    -0.67162880492712D+03

 The electronic state is 1-A.
 Alpha  occ. eigenvalues --  -20.61138 -20.61129 -15.86125 -11.31399 -11.27947
 Alpha  occ. eigenvalues --  -11.27944 -11.27675 -11.26939 -11.26930 -11.20741
 Alpha  occ. eigenvalues --  -11.20383 -11.20279 -11.19945 -11.19596 -11.18867
 Alpha  occ. eigenvalues --   -1.60170  -1.39725  -1.19555  -1.08971  -1.07131
 Alpha  occ. eigenvalues --   -1.04941  -1.02098  -0.95823  -0.94574  -0.86344
 Alpha  occ. eigenvalues --   -0.85622  -0.82654  -0.78267  -0.77719  -0.76813
 Alpha  occ. eigenvalues --   -0.72320  -0.71474  -0.70663  -0.65209  -0.64944
 Alpha  occ. eigenvalues --   -0.63787  -0.62287  -0.59521  -0.58063  -0.56173
 Alpha  occ. eigenvalues --   -0.55412  -0.53921  -0.53277  -0.53030  -0.51329
 Alpha  occ. eigenvalues --   -0.51043  -0.49099  -0.48875  -0.48606  -0.46527
 Alpha  occ. eigenvalues --   -0.45349  -0.45150  -0.44365  -0.44248  -0.42341
 Alpha  occ. eigenvalues --   -0.37529  -0.36537
 Alpha virt. eigenvalues --    0.04790   0.11119   0.16307   0.21257   0.24011
 Alpha virt. eigenvalues --    0.25820   0.27185   0.27848   0.28129   0.28748
 Alpha virt. eigenvalues --    0.29476   0.30840   0.32363   0.32682   0.32855

 Mulliken charges:
               1
     1  C   -0.170322
     2  C   -0.218640
     3  C   -0.170546
     4  C    0.159877
     5  C   -0.170654
     6  C   -0.218615
     7  H    0.226388
     8  H    0.224204
     9  H    0.276141
    10  H    0.276064
    11  H    0.224207
    12  N    0.488027
    13  O   -0.457920
    14  O   -0.458510
    15  C   -0.298630
    16  C   -0.290795
    17  C   -0.481317
    18  H    0.144549
    19  H    0.145305
    20  H    0.154432
    21  H    0.154197
    22  H    0.145845
    23  H    0.141645
    24  H    0.183563
    25  C   -0.296554
    26  C   -0.298380
    27  C   -0.474837
    28  H    0.147517
    29  H    0.148250
    30  H    0.150102
    31  H    0.150465
    32  H    0.153972
    33  H    0.153639
    34  H    0.157331
 Sum of Mulliken charges =  -0.00000

 Dipole moment (field-independent basis, Debye):
    X=             -5.4597    Y=             -1.9246    Z=              0.0525  Tot=              5.7892
 Quadrupole moment (field-independent basis, Debye-Ang):
   XX=            -66.0292   YY=            -93.2879   ZZ=            -92.9724
   XY=              5.1995   XZ=              1.1633   YZ=             -3.3326

 Normal termination of Gaussian 16 at Wed May  5 20:41:09 2021.
