 Gaussian 16, Revision A.03,
 Gaussian 16:  EM64L-G16RevA.03 25-Dec-2016

 -------------
 #p 6-31g* mp2
 -------------

 ------------------------------------------------------
 Input file generated by CHIRIPA (05-May-2021 14:51:08)
 ------------------------------------------------------
 Symbolic Z-matrix:
 Charge =  0 Multiplicity = 1

                         Standard orientation:
 ---------------------------------------------------------------------
 Center     Atomic      Atomic             Coordinates (Angstroms)
 Number     Number       Type             X           Y           Z
 ---------------------------------------------------------------------
      1          6           0        4.352767   -0.612609    0.215645
      2          6           0        5.520671   -0.116586   -0.637553
      3          6           0        6.730622   -1.049789   -0.583265
      4          1           0        4.687445   -0.721224    1.256384
      5          1           0        4.059166   -1.615340   -0.124537
      6          1           0        5.811080    0.885482   -0.296764
      7          1           0        5.183122   -0.008956   -1.676346
      8          1           0        6.463195   -2.048631   -0.942986
      9          1           0        7.094721   -1.149110    0.444435
     10          1           0        7.553805   -0.676146   -1.200210
     11          6           0        3.135752    0.309706    0.171632
     12          6           0        1.967848   -0.186316    1.024830
     13          6           0        0.757897    0.746886    0.970542
     14          1           0        3.429354    1.312437    0.511814
     15          1           0        2.801074    0.418322   -0.869107
     16          1           0        2.305397   -0.293946    2.063623
     17          1           0        1.677439   -1.188385    0.684040
     18          1           0        0.393798    0.846208   -0.057158
     19          1           0        1.025324    1.745728    1.330263
     20          1           0       -0.065286    0.373243    1.587486
     21          6           0       -3.444164    0.765098    0.148140
     22          6           0       -2.749001    1.720470   -0.822427
     23          6           0       -2.153696    2.943254   -0.123711
     24          1           0       -4.237410    1.307017    0.681084
     25          1           0       -2.722782    0.438288    0.909846
     26          1           0       -3.471121    2.044298   -1.582883
     27          1           0       -1.957444    1.176164   -1.353261
     28          1           0       -1.412944    2.637984    0.622410
     29          1           0       -2.935221    3.511050    0.391484
     30          1           0       -1.661644    3.612767   -0.836101
     31          6           0       -4.044355   -0.462195   -0.535416
     32          6           0       -4.739518   -1.417567    0.435150
     33          6           0       -5.334824   -2.640352   -0.263565
     34          1           0       -4.765738   -0.135386   -1.297123
     35          1           0       -3.251109   -1.004115   -1.068360
     36          1           0       -5.531076   -0.873262    0.965984
     37          1           0       -4.017398   -1.741395    1.195607
     38          1           0       -4.553298   -3.208147   -0.778760
     39          1           0       -6.075575   -2.335081   -1.009688
     40          1           0       -5.826875   -3.309865    0.448824
 ---------------------------------------------------------------------

 SCF Done:  E(RHF) =  -470.732728005     A.U. after   11 cycles
 E2 =    -0.1583442306D+01 EUMP2 =    -0.47231617031085D+03

 The electronic state is 1-A.
 Alpha  occ. eigenvalues --  -11.21661 -11.21628 -11.21575 -11.21513 -11.21448
 Alpha  occ. eigenvalues --  -11.21387 -11.21348 -11.21279 -11.21161 -11.21093
 Alpha  occ. eigenvalues --  -11.21053 -11.20875  -1.08480  -1.08365  -1.03605
 Alpha  occ. eigenvalues --   -1.03441  -0.96069  -0.95879  -0.87090  -0.86900
 Alpha  occ. eigenvalues --   -0.79686  -0.79502  -0.78291  -0.78182  -0.65137
 Alpha  occ. eigenvalues --   -0.64982  -0.61070  -0.60800  -0.59434  -0.59243
 Alpha  occ. eigenvalues --   -0.57666  -0.57515  -0.55339  -0.55201  -0.52755
 Alpha  occ. eigenvalues --   -0.52599  -0.52514  -0.52246  -0.50013  -0.49807
 Alpha  occ. eigenvalues --   -0.47995  -0.47776  -0.46722  -0.46517  -0.45844
 Alpha  occ. eigenvalues --   -0.45758  -0.45687  -0.45649  -0.43798  -0.43712
 Alpha virt. eigenvalues --    0.21081   0.23004   0.23816   0.24776   0.25713
 Alpha virt. eigenvalues --    0.26376   0.26791   0.27576   0.27965   0.29163
 Alpha virt. eigenvalues --    0.30187   0.30902   0.31182   0.31834   0.32319

 Mulliken charges:
               1
     1  C   -0.298319
     2  C   -0.299664
     3  C   -0.475733
     4  H    0.149763
     5  H    0.149530
     6  H    0.152039
     7  H    0.151995
     8  H    0.155202
     9  H    0.155227
    10  H    0.160370
    11  C   -0.298554
    12  C   -0.300838
    13  C   -0.481679
    14  H    0.149832
    15  H    0.149684
    16  H    0.152147
    17  H    0.151800
    18  H    0.159914
    19  H    0.155925
    20  H    0.161801
    21  C   -0.301207
    22  C   -0.299823
    23  C   -0.482616
    24  H    0.149388
    25  H    0.152375
    26  H    0.151528
    27  H    0.151499
    28  H    0.166481
    29  H    0.153907
    30  H    0.158850
    31  C   -0.298087
    32  C   -0.299550
    33  C   -0.475642
    34  H    0.149380
    35  H    0.149264
    36  H    0.151921
    37  H    0.151578
    38  H    0.155018
    39  H    0.155165
    40  H    0.160128
 Sum of Mulliken charges =  -0.00000

 Dipole moment (field-independent basis, Debye):
    X=              0.0568    Y=              0.0011    Z=              0.0226  Tot=              0.0611
 Quadrupole moment (field-independent basis, Debye-Ang):
   XX=            -85.1445   YY=            -85.5702   ZZ=            -84.2684
   XY=             -0.0852   XZ=              0.2606   YZ=              0.0490

 Normal termination of Gaussian 16 at Wed May  5 15:02:40 2021.
