 Gaussian 16, Revision A.03,
 Gaussian 16:  EM64L-G16RevA.03 25-Dec-2016

 -------------
 #p 6-31g* mp2
 -------------

 ------------------------------------------------------
 Input file generated by CHIRIPA (05-May-2021 14:57:22)
 ------------------------------------------------------
 Symbolic Z-matrix:
 Charge =  0 Multiplicity = 1

                         Standard orientation:
 ---------------------------------------------------------------------
 Center     Atomic      Atomic             Coordinates (Angstroms)
 Number     Number       Type             X           Y           Z
 ---------------------------------------------------------------------
      1          6           0        4.108573    2.321719    0.748840
      2          6           0        5.042529    1.308374    0.509301
      3          6           0        4.624140    0.041368    0.091936
      4          6           0        3.257936   -0.178542   -0.076630
      5          6           0        2.303062    0.810565    0.153965
      6          6           0        2.744225    2.070024    0.570721
      7          1           0        4.442434    3.303028    1.072822
      8          1           0        6.102735    1.500990    0.646807
      9          1           0        5.325692   -0.761231   -0.100621
     10          1           0        1.252893    0.588481    0.008220
     11          1           0        2.016651    2.855104    0.756004
     12          7           0        2.802951   -1.515870   -0.518153
     13          8           0        1.593669   -1.684219   -0.659339
     14          8           0        3.664230   -2.370396   -0.714673
     15          6           0       -2.688620   -2.321932    0.871095
     16          6           0       -2.157133   -1.856283   -0.336055
     17          6           0       -2.507093   -0.594587   -0.826154
     18          6           0       -3.395212    0.178563   -0.079979
     19          6           0       -3.941653   -0.257418    1.126093
     20          6           0       -3.577617   -1.522423    1.597037
     21          1           0       -2.411296   -3.303333    1.244376
     22          1           0       -1.466506   -2.475026   -0.901949
     23          1           0       -2.110552   -0.209428   -1.757726
     24          1           0       -4.627777    0.382201    1.667886
     25          1           0       -3.991941   -1.881467    2.534837
     26          7           0       -3.773149    1.516016   -0.588686
     27          8           0       -4.557548    2.177890    0.087538
     28          8           0       -3.277822    1.877113   -1.654001
 ---------------------------------------------------------------------

 SCF Done:  E(RHF) =  -868.340318743     A.U. after   16 cycles
 E2 =    -0.2598616381D+01 EUMP2 =    -0.87093893512394D+03

 The electronic state is 1-A.
 Alpha  occ. eigenvalues --  -20.61345 -20.61300 -20.60596 -20.60590 -15.86368
 Alpha  occ. eigenvalues --  -15.85636 -11.31462 -11.30795 -11.28005 -11.27978
 Alpha  occ. eigenvalues --  -11.27684 -11.27333 -11.27226 -11.26965 -11.26916
 Alpha  occ. eigenvalues --  -11.26916 -11.26330 -11.26074  -1.60393  -1.59679
 Alpha  occ. eigenvalues --   -1.39956  -1.39236  -1.19607  -1.18910  -1.09052
 Alpha  occ. eigenvalues --   -1.08334  -1.04966  -1.04247  -0.95934  -0.95214
 Alpha  occ. eigenvalues --   -0.86377  -0.85649  -0.82779  -0.82031  -0.77854
 Alpha  occ. eigenvalues --   -0.77117  -0.72612  -0.71854  -0.71698  -0.71008
 Alpha  occ. eigenvalues --   -0.70711  -0.69990  -0.65265  -0.64960  -0.64537
 Alpha  occ. eigenvalues --   -0.64189  -0.62314  -0.61575  -0.55476  -0.54733
 Alpha  occ. eigenvalues --   -0.53315  -0.53053  -0.52622  -0.52290  -0.49362
 Alpha  occ. eigenvalues --   -0.49322  -0.48626  -0.48590  -0.45421  -0.44688
 Alpha  occ. eigenvalues --   -0.37574  -0.36875  -0.36558  -0.35843
 Alpha virt. eigenvalues --    0.04662   0.05342   0.11098   0.11793   0.16216
 Alpha virt. eigenvalues --    0.16909   0.21217   0.22091   0.27094   0.27648
 Alpha virt. eigenvalues --    0.28442   0.28890   0.30873   0.31647   0.32204

 Mulliken charges:
               1
     1  C   -0.170079
     2  C   -0.218666
     3  C   -0.170928
     4  C    0.157460
     5  C   -0.170840
     6  C   -0.218680
     7  H    0.227551
     8  H    0.224272
     9  H    0.275290
    10  H    0.275201
    11  H    0.228109
    12  N    0.491364
    13  O   -0.471742
    14  O   -0.458417
    15  C   -0.172840
    16  C   -0.214114
    17  C   -0.178663
    18  C    0.156466
    19  C   -0.174074
    20  C   -0.218789
    21  H    0.227725
    22  H    0.242527
    23  H    0.275315
    24  H    0.272698
    25  H    0.221448
    26  N    0.487528
    27  O   -0.462421
    28  O   -0.462698
 Sum of Mulliken charges =  -0.00000

 Dipole moment (field-independent basis, Debye):
    X=              3.2132    Y=             -0.1086    Z=              3.3320  Tot=              4.6302
 Quadrupole moment (field-independent basis, Debye-Ang):
   XX=            -98.1837   YY=           -108.2606   ZZ=           -103.3819
   XY=             30.1334   XZ=             -3.8216   YZ=              0.9569

 Normal termination of Gaussian 16 at Thu May  6 16:13:56 2021.
