 Gaussian 16, Revision A.03,
 Gaussian 16:  EM64L-G16RevA.03 25-Dec-2016

 -------------
 #p 6-31g* mp2
 -------------

 ------------------------------------------------------
 Input file generated by CHIRIPA (05-May-2021 14:57:24)
 ------------------------------------------------------
 Symbolic Z-matrix:
 Charge =  0 Multiplicity = 1

                         Standard orientation:
 ---------------------------------------------------------------------
 Center     Atomic      Atomic             Coordinates (Angstroms)
 Number     Number       Type             X           Y           Z
 ---------------------------------------------------------------------
      1          6           0        3.708908    2.546036   -0.353479
      2          6           0        2.490854    2.123300    0.188886
      3          6           0        2.269408    0.771649    0.469154
      4          6           0        3.292433   -0.134235    0.193319
      5          6           0        4.516847    0.255943   -0.346924
      6          6           0        4.716241    1.612654   -0.619184
      7          1           0        3.872367    3.597996   -0.568087
      8          1           0        1.706752    2.845950    0.396264
      9          1           0        1.335993    0.417023    0.889148
     10          1           0        5.279577   -0.487887   -0.542824
     11          1           0        5.663200    1.938089   -1.040380
     12          7           0        3.069670   -1.567845    0.485787
     13          8           0        3.986914   -2.346127    0.233638
     14          8           0        1.982044   -1.886082    0.961635
     15          6           0       -1.870744   -2.079027   -0.720022
     16          6           0       -1.322122   -0.793020   -0.678536
     17          6           0       -2.120755    0.309706   -0.361158
     18          6           0       -3.470139    0.089086   -0.089537
     19          6           0       -4.046127   -1.179939   -0.122790
     20          6           0       -3.228602   -2.268049   -0.442505
     21          1           0       -1.243009   -2.929974   -0.967476
     22          1           0       -0.267914   -0.643237   -0.893607
     23          1           0       -1.721955    1.316104   -0.321911
     24          1           0       -5.100407   -1.297778    0.096355
     25          1           0       -3.657386   -3.265644   -0.473977
     26          7           0       -4.325617    1.248756    0.247694
     27          8           0       -5.511561    1.027818    0.482982
     28          8           0       -3.793997    2.356684    0.270342
 ---------------------------------------------------------------------

 SCF Done:  E(RHF) =  -868.339005338     A.U. after   16 cycles
 E2 =    -0.2600130318D+01 EUMP2 =    -0.87093913565579D+03

 The electronic state is 1-A.
 Alpha  occ. eigenvalues --  -20.61683 -20.61639 -20.60734 -20.60714 -15.86695
 Alpha  occ. eigenvalues --  -15.85777 -11.31956 -11.31010 -11.28501 -11.28449
 Alpha  occ. eigenvalues --  -11.28138 -11.27625 -11.27539 -11.27457 -11.27431
 Alpha  occ. eigenvalues --  -11.27131 -11.26482 -11.26470  -1.60736  -1.59804
 Alpha  occ. eigenvalues --   -1.40292  -1.39363  -1.20095  -1.19148  -1.09497
 Alpha  occ. eigenvalues --   -1.08528  -1.05475  -1.04550  -0.96356  -0.95400
 Alpha  occ. eigenvalues --   -0.86873  -0.85922  -0.83185  -0.82262  -0.78277
 Alpha  occ. eigenvalues --   -0.77350  -0.72909  -0.72067  -0.71994  -0.71172
 Alpha  occ. eigenvalues --   -0.71124  -0.70191  -0.65736  -0.65472  -0.64789
 Alpha  occ. eigenvalues --   -0.64518  -0.62847  -0.61874  -0.55933  -0.54935
 Alpha  occ. eigenvalues --   -0.53812  -0.53561  -0.52844  -0.52603  -0.49679
 Alpha  occ. eigenvalues --   -0.49658  -0.48766  -0.48735  -0.45712  -0.44801
 Alpha  occ. eigenvalues --   -0.38042  -0.37079  -0.37033  -0.36154
 Alpha virt. eigenvalues --    0.04210   0.05178   0.10446   0.11511   0.15774
 Alpha virt. eigenvalues --    0.16634   0.20215   0.22081   0.25737   0.27432
 Alpha virt. eigenvalues --    0.28193   0.29323   0.29908   0.31272   0.32269

 Mulliken charges:
               1
     1  C   -0.170008
     2  C   -0.219819
     3  C   -0.181893
     4  C    0.157890
     5  C   -0.170650
     6  C   -0.217639
     7  H    0.229745
     8  H    0.228424
     9  H    0.276657
    10  H    0.277090
    11  H    0.226498
    12  N    0.487580
    13  O   -0.456389
    14  O   -0.465304
    15  C   -0.167570
    16  C   -0.216403
    17  C   -0.175974
    18  C    0.158991
    19  C   -0.171024
    20  C   -0.218935
    21  H    0.234634
    22  H    0.224967
    23  H    0.266098
    24  H    0.274939
    25  H    0.224395
    26  N    0.488473
    27  O   -0.459854
    28  O   -0.464917
 Sum of Mulliken charges =  -0.00000

 Dipole moment (field-independent basis, Debye):
    X=              4.0944    Y=              0.8388    Z=             -2.2551  Tot=              4.7490
 Quadrupole moment (field-independent basis, Debye-Ang):
   XX=           -112.7171   YY=           -105.0476   ZZ=           -106.0202
   XY=             33.7655   XZ=             -1.7049   YZ=              1.5222

 Normal termination of Gaussian 16 at Fri May  7 06:31:20 2021.
