 Gaussian 16, Revision A.03,
 Gaussian 16:  EM64L-G16RevA.03 25-Dec-2016

 -------------
 #p 6-31g* mp2
 -------------

 ------------------------------------------------------
 Input file generated by CHIRIPA (05-May-2021 14:51:14)
 ------------------------------------------------------
 Symbolic Z-matrix:
 Charge =  0 Multiplicity = 1

                         Standard orientation:
 ---------------------------------------------------------------------
 Center     Atomic      Atomic             Coordinates (Angstroms)
 Number     Number       Type             X           Y           Z
 ---------------------------------------------------------------------
      1          6           0        3.032304    0.412226    0.488393
      2          6           0        2.071097    0.022852    1.611983
      3          6           0        1.026104    1.102125    1.896503
      4          1           0        3.536239    1.351437    0.754620
      5          1           0        2.455302    0.614965   -0.424493
      6          1           0        2.649855   -0.180436    2.522109
      7          1           0        1.569533   -0.915642    1.343136
      8          1           0        0.423733    1.299935    1.003967
      9          1           0        1.510193    2.039318    2.189639
     10          1           0        0.349425    0.803061    2.703056
     11          6           0        4.082844   -0.656612    0.192282
     12          6           0        5.044051   -0.267238   -0.931307
     13          6           0        6.089045   -1.346511   -1.215828
     14          1           0        4.659846   -0.859351    1.105168
     15          1           0        3.578909   -1.595823   -0.073945
     16          1           0        5.545615    0.671256   -0.662460
     17          1           0        4.465293   -0.063950   -1.841434
     18          1           0        5.604956   -2.283704   -1.508963
     19          1           0        6.691415   -1.544321   -0.323291
     20          1           0        6.765723   -1.047447   -2.022381
     21          6           0       -3.616362   -0.588299   -0.066152
     22          6           0       -4.988526   -1.219037   -0.305565
     23          6           0       -5.090611   -2.640391    0.248626
     24          1           0       -2.844287   -1.219449   -0.527126
     25          1           0       -3.408505   -0.577976    1.012775
     26          1           0       -5.194329   -1.226907   -1.383618
     27          1           0       -5.757441   -0.586213    0.155867
     28          1           0       -4.911173   -2.646597    1.328610
     29          1           0       -4.344862   -3.290931   -0.219623
     30          1           0       -6.079673   -3.072208    0.066559
     31          6           0       -3.498786    0.832684   -0.614523
     32          6           0       -2.126622    1.463423   -0.375111
     33          6           0       -2.024537    2.884777   -0.929301
     34          1           0       -3.706642    0.822362   -1.693450
     35          1           0       -4.270860    1.463835   -0.153549
     36          1           0       -1.357707    0.830599   -0.836543
     37          1           0       -1.920819    1.471293    0.702942
     38          1           0       -2.770286    3.535317   -0.461052
     39          1           0       -2.203974    2.890983   -2.009286
     40          1           0       -1.035475    3.316594   -0.747235
 ---------------------------------------------------------------------

 SCF Done:  E(RHF) =  -470.732631095     A.U. after   11 cycles
 E2 =    -0.1583054804D+01 EUMP2 =    -0.47231568589873D+03

 The electronic state is 1-A.
 Alpha  occ. eigenvalues --  -11.21610 -11.21594 -11.21590 -11.21549 -11.21412
 Alpha  occ. eigenvalues --  -11.21387 -11.21352 -11.21328 -11.21084 -11.21080
 Alpha  occ. eigenvalues --  -11.21066 -11.20930  -1.08449  -1.08399  -1.03573
 Alpha  occ. eigenvalues --   -1.03470  -0.96014  -0.95924  -0.87023  -0.86951
 Alpha  occ. eigenvalues --   -0.79724  -0.79472  -0.78298  -0.78178  -0.65075
 Alpha  occ. eigenvalues --   -0.65036  -0.60974  -0.60894  -0.59378  -0.59311
 Alpha  occ. eigenvalues --   -0.57722  -0.57463  -0.55289  -0.55201  -0.52699
 Alpha  occ. eigenvalues --   -0.52635  -0.52418  -0.52356  -0.49982  -0.49882
 Alpha  occ. eigenvalues --   -0.48038  -0.47756  -0.46695  -0.46550  -0.45861
 Alpha  occ. eigenvalues --   -0.45738  -0.45721  -0.45512  -0.43793  -0.43746
 Alpha virt. eigenvalues --    0.21836   0.23078   0.23539   0.24880   0.26078
 Alpha virt. eigenvalues --    0.26451   0.27051   0.27567   0.27861   0.29060
 Alpha virt. eigenvalues --    0.30579   0.31048   0.31679   0.31956   0.32109

 Mulliken charges:
               1
     1  C   -0.298441
     2  C   -0.299171
     3  C   -0.484490
     4  H    0.149581
     5  H    0.149054
     6  H    0.151472
     7  H    0.151721
     8  H    0.168109
     9  H    0.153965
    10  H    0.158577
    11  C   -0.298244
    12  C   -0.299624
    13  C   -0.475685
    14  H    0.149584
    15  H    0.149518
    16  H    0.151942
    17  H    0.151788
    18  H    0.155115
    19  H    0.155201
    20  H    0.160208
    21  C   -0.298287
    22  C   -0.299659
    23  C   -0.475689
    24  H    0.149228
    25  H    0.149696
    26  H    0.151918
    27  H    0.152017
    28  H    0.155223
    29  H    0.155075
    30  H    0.160299
    31  C   -0.297191
    32  C   -0.304729
    33  C   -0.477321
    34  H    0.149244
    35  H    0.149742
    36  H    0.150395
    37  H    0.157682
    38  H    0.155654
    39  H    0.155219
    40  H    0.161304
 Sum of Mulliken charges =  -0.00000

 Dipole moment (field-independent basis, Debye):
    X=             -0.0334    Y=              0.0145    Z=             -0.0024  Tot=              0.0365
 Quadrupole moment (field-independent basis, Debye-Ang):
   XX=            -85.0693   YY=            -85.9984   ZZ=            -83.8204
   XY=              0.4282   XZ=              0.4017   YZ=              0.7805

 Normal termination of Gaussian 16 at Thu May  6 00:50:07 2021.
