 Gaussian 16, Revision A.03,
 Gaussian 16:  EM64L-G16RevA.03 25-Dec-2016

 -------------
 #p 6-31g* mp2
 -------------

 ------------------------------------------------------
 Input file generated by CHIRIPA (05-May-2021 14:55:19)
 ------------------------------------------------------
 Symbolic Z-matrix:
 Charge =  0 Multiplicity = 1

                         Standard orientation:
 ---------------------------------------------------------------------
 Center     Atomic      Atomic             Coordinates (Angstroms)
 Number     Number       Type             X           Y           Z
 ---------------------------------------------------------------------
      1          6           0       -4.505627    1.104444    1.096427
      2          6           0       -4.902968   -0.031743    0.383881
      3          6           0       -3.951463   -0.864997   -0.211832
      4          6           0       -2.605132   -0.530608   -0.074477
      5          6           0       -2.177797    0.594420    0.629076
      6          6           0       -3.146705    1.413354    1.216538
      7          1           0       -5.251538    1.746173    1.555986
      8          1           0       -5.957622   -0.274108    0.288965
      9          1           0       -4.231318   -1.750755   -0.769085
     10          1           0       -1.119062    0.810085    0.706458
     11          1           0       -2.835215    2.295085    1.769321
     12          7           0       -1.588605   -1.405157   -0.700764
     13          8           0       -0.408735   -1.088663   -0.565203
     14          8           0       -1.990968   -2.390563   -1.315351
     15          6           0        4.024713    0.218820    0.493344
     16          6           0        4.433199   -1.233525    0.244713
     17          6           0        5.385005   -1.771198    1.313716
     18          1           0        4.926444    0.845185    0.531987
     19          1           0        3.548904    0.294654    1.480892
     20          1           0        4.906850   -1.306846   -0.742655
     21          1           0        3.530379   -1.856475    0.206467
     22          1           0        4.917840   -1.727061    2.302863
     23          1           0        6.302134   -1.174309    1.348349
     24          1           0        5.664144   -2.810922    1.116445
     25          6           0        3.073317    0.770548   -0.566925
     26          6           0        2.664831    2.222893   -0.318295
     27          6           0        1.713026    2.760566   -1.387298
     28          1           0        3.549127    0.694715   -1.554473
     29          1           0        2.171586    0.144185   -0.605568
     30          1           0        3.567652    2.845844   -0.280048
     31          1           0        2.191179    2.296215    0.669073
     32          1           0        0.795897    2.163678   -1.421931
     33          1           0        2.180190    2.716430   -2.376444
     34          1           0        1.433887    3.800290   -1.190027
 ---------------------------------------------------------------------

 SCF Done:  E(RHF) =  -669.536312903     A.U. after   15 cycles
 E2 =    -0.2091485033D+01 EUMP2 =    -0.67162779793609D+03

 The electronic state is 1-A.
 Alpha  occ. eigenvalues --  -20.60992 -20.60974 -15.86028 -11.31318 -11.27879
 Alpha  occ. eigenvalues --  -11.27873 -11.27607 -11.26880 -11.26870 -11.21143
 Alpha  occ. eigenvalues --  -11.20767 -11.20711 -11.20641 -11.20426 -11.20404
 Alpha  occ. eigenvalues --   -1.60047  -1.39605  -1.19483  -1.08892  -1.07698
 Alpha  occ. eigenvalues --   -1.04876  -1.02915  -0.95740  -0.95357  -0.86385
 Alpha  occ. eigenvalues --   -0.86277  -0.82578  -0.78967  -0.77665  -0.77437
 Alpha  occ. eigenvalues --   -0.72256  -0.71359  -0.70593  -0.65145  -0.64881
 Alpha  occ. eigenvalues --   -0.64315  -0.62226  -0.60320  -0.58735  -0.56960
 Alpha  occ. eigenvalues --   -0.55381  -0.54642  -0.53207  -0.52966  -0.52106
 Alpha  occ. eigenvalues --   -0.51782  -0.49319  -0.49012  -0.48989  -0.47286
 Alpha  occ. eigenvalues --   -0.45991  -0.45089  -0.45026  -0.44807  -0.43121
 Alpha  occ. eigenvalues --   -0.37460  -0.36474
 Alpha virt. eigenvalues --    0.04881   0.11154   0.16395   0.20421   0.22968
 Alpha virt. eigenvalues --    0.24492   0.26749   0.27473   0.28012   0.28633
 Alpha virt. eigenvalues --    0.29053   0.30708   0.31529   0.32147   0.32464

 Mulliken charges:
               1
     1  C   -0.170512
     2  C   -0.218511
     3  C   -0.170663
     4  C    0.157548
     5  C   -0.172059
     6  C   -0.218559
     7  H    0.226158
     8  H    0.223931
     9  H    0.275877
    10  H    0.277117
    11  H    0.224329
    12  N    0.496847
    13  O   -0.470110
    14  O   -0.458332
    15  C   -0.296396
    16  C   -0.301507
    17  C   -0.475258
    18  H    0.145152
    19  H    0.145541
    20  H    0.150866
    21  H    0.162248
    22  H    0.153197
    23  H    0.152296
    24  H    0.159538
    25  C   -0.312480
    26  C   -0.297532
    27  C   -0.477611
    28  H    0.147583
    29  H    0.179701
    30  H    0.149711
    31  H    0.143152
    32  H    0.157273
    33  H    0.157302
    34  H    0.154162
 Sum of Mulliken charges =  -0.00000

 Dipole moment (field-independent basis, Debye):
    X=             -3.8149    Y=              2.8895    Z=              2.1204  Tot=              5.2344
 Quadrupole moment (field-independent basis, Debye-Ang):
   XX=            -74.1679   YY=            -97.3756   ZZ=            -95.4885
   XY=             -3.5050   XZ=             -5.4642   YZ=              0.1758

 Normal termination of Gaussian 16 at Thu May  6 19:03:42 2021.
