 Gaussian 16, Revision A.03,
 Gaussian 16:  EM64L-G16RevA.03 25-Dec-2016

 -------------
 #p 6-31g* mp2
 -------------

 ------------------------------------------------------
 Input file generated by CHIRIPA (05-May-2021 14:57:26)
 ------------------------------------------------------
 Symbolic Z-matrix:
 Charge =  0 Multiplicity = 1

                         Standard orientation:
 ---------------------------------------------------------------------
 Center     Atomic      Atomic             Coordinates (Angstroms)
 Number     Number       Type             X           Y           Z
 ---------------------------------------------------------------------
      1          6           0        2.550444    1.542557   -1.561110
      2          6           0        3.827467    1.957908   -1.169683
      3          6           0        4.595936    1.172060   -0.305711
      4          6           0        4.053853   -0.028780    0.149723
      5          6           0        2.784787   -0.469790   -0.222127
      6          6           0        2.034090    0.332168   -1.086919
      7          1           0        1.960381    2.159280   -2.232582
      8          1           0        4.231030    2.897440   -1.536372
      9          1           0        5.587446    1.469622    0.013324
     10          1           0        2.409420   -1.411334    0.159989
     11          1           0        1.042638    0.007087   -1.389228
     12          7           0        4.857990   -0.869249    1.064805
     13          8           0        4.357683   -1.922993    1.452044
     14          8           0        5.973352   -0.458351    1.377481
     15          6           0       -5.136109    1.459157    1.559547
     16          6           0       -3.912122    1.838321    0.998645
     17          6           0       -3.230237    0.977089    0.133856
     18          6           0       -3.803881   -0.261415   -0.149572
     19          6           0       -5.021731   -0.667926    0.393455
     20          6           0       -5.686038    0.209447    1.255697
     21          1           0       -5.658987    2.134452    2.230347
     22          1           0       -3.482660    2.808251    1.232833
     23          1           0       -2.281222    1.245266   -0.314328
     24          1           0       -5.424759   -1.641244    0.141191
     25          1           0       -6.636451   -0.087675    1.689839
     26          7           0       -3.091305   -1.181706   -1.063738
     27          8           0       -3.617860   -2.267388   -1.297554
     28          8           0       -2.019724   -0.799923   -1.529134
 ---------------------------------------------------------------------

 SCF Done:  E(RHF) =  -868.339523351     A.U. after   16 cycles
 E2 =    -0.2598480574D+01 EUMP2 =    -0.87093800392466D+03

 The electronic state is 1-A.
 Alpha  occ. eigenvalues --  -20.61620 -20.61547 -20.60381 -20.60371 -15.86631
 Alpha  occ. eigenvalues --  -15.85425 -11.31794 -11.30712 -11.28381 -11.28306
 Alpha  occ. eigenvalues --  -11.28024 -11.27317 -11.27295 -11.27278 -11.27178
 Alpha  occ. eigenvalues --  -11.26978 -11.26327 -11.26077  -1.60643  -1.59456
 Alpha  occ. eigenvalues --   -1.40209  -1.39010  -1.19943  -1.18862  -1.09369
 Alpha  occ. eigenvalues --   -1.08278  -1.05320  -1.04229  -0.96241  -0.95130
 Alpha  occ. eigenvalues --   -0.86727  -0.85632  -0.83088  -0.81944  -0.78164
 Alpha  occ. eigenvalues --   -0.76998  -0.72862  -0.71948  -0.71645  -0.71050
 Alpha  occ. eigenvalues --   -0.70778  -0.69984  -0.65603  -0.65319  -0.64504
 Alpha  occ. eigenvalues --   -0.64188  -0.62678  -0.61549  -0.55816  -0.54757
 Alpha  occ. eigenvalues --   -0.53652  -0.53411  -0.52600  -0.52282  -0.49622
 Alpha  occ. eigenvalues --   -0.49571  -0.48406  -0.48394  -0.45655  -0.44433
 Alpha  occ. eigenvalues --   -0.37900  -0.36912  -0.36868  -0.35839
 Alpha virt. eigenvalues --    0.04359   0.05494   0.10746   0.11797   0.15887
 Alpha virt. eigenvalues --    0.17009   0.20661   0.22027   0.26358   0.27171
 Alpha virt. eigenvalues --    0.28536   0.28802   0.30333   0.31318   0.32272

 Mulliken charges:
               1
     1  C   -0.173679
     2  C   -0.218645
     3  C   -0.172762
     4  C    0.158392
     5  C   -0.173173
     6  C   -0.229920
     7  H    0.223977
     8  H    0.220696
     9  H    0.273519
    10  H    0.277933
    11  H    0.246308
    12  N    0.487965
    13  O   -0.460180
    14  O   -0.462478
    15  C   -0.169919
    16  C   -0.217949
    17  C   -0.169838
    18  C    0.158583
    19  C   -0.170212
    20  C   -0.218199
    21  H    0.227885
    22  H    0.224489
    23  H    0.269906
    24  H    0.277157
    25  H    0.225811
    26  N    0.493012
    27  O   -0.454384
    28  O   -0.474297
 Sum of Mulliken charges =  -0.00000

 Dipole moment (field-independent basis, Debye):
    X=             -5.7847    Y=              6.1072    Z=              0.0390  Tot=              8.4121
 Quadrupole moment (field-independent basis, Debye-Ang):
   XX=           -103.5250   YY=           -102.8648   ZZ=           -108.1996
   XY=              5.8774   XZ=            -26.6011   YZ=             -1.1120

 Normal termination of Gaussian 16 at Thu May  6 19:45:49 2021.
