 Gaussian 16, Revision A.03,
 Gaussian 16:  EM64L-G16RevA.03 25-Dec-2016

 -------------
 #p 6-31g* mp2
 -------------

 ------------------------------------------------------
 Input file generated by CHIRIPA (05-May-2021 14:57:25)
 ------------------------------------------------------
 Symbolic Z-matrix:
 Charge =  0 Multiplicity = 1

                         Standard orientation:
 ---------------------------------------------------------------------
 Center     Atomic      Atomic             Coordinates (Angstroms)
 Number     Number       Type             X           Y           Z
 ---------------------------------------------------------------------
      1          6           0       -1.550923    2.675766    0.456767
      2          6           0       -2.888796    2.367977    0.724877
      3          6           0       -3.410668    1.115683    0.387300
      4          6           0       -2.562621    0.190863   -0.220000
      5          6           0       -1.225361    0.467633   -0.500045
      6          6           0       -0.724932    1.726285   -0.153761
      7          1           0       -1.153849    3.651048    0.722387
      8          1           0       -3.532593    3.103398    1.198930
      9          1           0       -4.442607    0.851032    0.583460
     10          1           0       -0.608046   -0.286104   -0.973565
     11          1           0        0.314476    1.962554   -0.363174
     12          7           0       -3.103753   -1.138251   -0.581986
     13          8           0       -2.335977   -1.935599   -1.116208
     14          8           0       -4.285421   -1.357494   -0.324635
     15          6           0        1.201303   -2.100675    1.534728
     16          6           0        1.789207   -0.993706    2.155623
     17          6           0        2.496404   -0.050561    1.404027
     18          6           0        2.596420   -0.246461    0.027469
     19          6           0        2.021819   -1.338976   -0.620244
     20          6           0        1.319278   -2.269480    0.151215
     21          1           0        0.653745   -2.828422    2.126301
     22          1           0        1.699207   -0.860047    3.229905
     23          1           0        2.961370    0.815579    1.859027
     24          1           0        2.128615   -1.445204   -1.692964
     25          1           0        0.863736   -3.128205   -0.333672
     26          7           0        3.342634    0.745313   -0.778726
     27          8           0        3.416330    0.549922   -1.989935
     28          8           0        3.839691    1.699277   -0.184147
 ---------------------------------------------------------------------

 SCF Done:  E(RHF) =  -868.338588592     A.U. after   16 cycles
 E2 =    -0.2603432172D+01 EUMP2 =    -0.87094202076465D+03

 The electronic state is 1-A.
 Alpha  occ. eigenvalues --  -20.61486 -20.61473 -20.61127 -20.61093 -15.86522
 Alpha  occ. eigenvalues --  -15.86151 -11.31763 -11.31248 -11.28278 -11.28177
 Alpha  occ. eigenvalues --  -11.27835 -11.27831 -11.27697 -11.27498 -11.27231
 Alpha  occ. eigenvalues --  -11.27067 -11.26791 -11.26697  -1.60577  -1.60185
 Alpha  occ. eigenvalues --   -1.40123  -1.39747  -1.19901  -1.19408  -1.09278
 Alpha  occ. eigenvalues --   -1.08856  -1.05237  -1.04770  -0.96142  -0.95730
 Alpha  occ. eigenvalues --   -0.86605  -0.86187  -0.82949  -0.82577  -0.78048
 Alpha  occ. eigenvalues --   -0.77663  -0.72715  -0.72386  -0.71947  -0.71503
 Alpha  occ. eigenvalues --   -0.70900  -0.70524  -0.65487  -0.65139  -0.65059
 Alpha  occ. eigenvalues --   -0.64784  -0.62536  -0.62182  -0.55640  -0.55332
 Alpha  occ. eigenvalues --   -0.53726  -0.53240  -0.53002  -0.52766  -0.49496
 Alpha  occ. eigenvalues --   -0.49468  -0.49144  -0.49105  -0.45538  -0.45212
 Alpha  occ. eigenvalues --   -0.37867  -0.37392  -0.36765  -0.36335
 Alpha virt. eigenvalues --    0.04372   0.04852   0.10773   0.11286   0.15906
 Alpha virt. eigenvalues --    0.16401   0.21065   0.21532   0.26730   0.27041
 Alpha virt. eigenvalues --    0.28075   0.28622   0.30544   0.31326   0.32090

 Mulliken charges:
               1
     1  C   -0.171805
     2  C   -0.219737
     3  C   -0.171425
     4  C    0.154635
     5  C   -0.169274
     6  C   -0.222104
     7  H    0.228219
     8  H    0.223183
     9  H    0.274372
    10  H    0.277909
    11  H    0.227202
    12  N    0.488620
    13  O   -0.468065
    14  O   -0.459550
    15  C   -0.170689
    16  C   -0.215373
    17  C   -0.174513
    18  C    0.155003
    19  C   -0.191900
    20  C   -0.213527
    21  H    0.232159
    22  H    0.225444
    23  H    0.274545
    24  H    0.279522
    25  H    0.239883
    26  N    0.486390
    27  O   -0.457345
    28  O   -0.461777
 Sum of Mulliken charges =  -0.00000

 Dipole moment (field-independent basis, Debye):
    X=             -0.6368    Y=              0.9733    Z=              4.2377  Tot=              4.3944
 Quadrupole moment (field-independent basis, Debye-Ang):
   XX=           -125.4411   YY=            -99.8217   ZZ=           -101.8374
   XY=            -21.3793   XZ=              2.6786   YZ=              1.2484

 Normal termination of Gaussian 16 at Wed May  5 22:48:21 2021.
