 Gaussian 16, Revision A.03,
 Gaussian 16:  EM64L-G16RevA.03 25-Dec-2016

 -------------
 #p 6-31g* mp2
 -------------

 ------------------------------------------------------
 Input file generated by CHIRIPA (05-May-2021 14:55:21)
 ------------------------------------------------------
 Symbolic Z-matrix:
 Charge =  0 Multiplicity = 1

                         Standard orientation:
 ---------------------------------------------------------------------
 Center     Atomic      Atomic             Coordinates (Angstroms)
 Number     Number       Type             X           Y           Z
 ---------------------------------------------------------------------
      1          6           0        5.501786   -1.024706    0.288999
      2          6           0        5.302335    0.213602   -0.330139
      3          6           0        4.009294    0.699257   -0.546317
      4          6           0        2.933696   -0.083087   -0.128802
      5          6           0        3.099914   -1.320756    0.490743
      6          6           0        4.401878   -1.786590    0.696746
      7          1           0        6.509717   -1.394276    0.452979
      8          1           0        6.154663    0.807442   -0.647843
      9          1           0        3.826209    1.654462   -1.023266
     10          1           0        2.230519   -1.890057    0.796465
     11          1           0        4.553768   -2.748638    1.177825
     12          7           0        1.560089    0.420562   -0.352273
     13          8           0        0.629162   -0.287821    0.024829
     14          8           0        1.440391    1.514169   -0.900301
     15          6           0       -4.340073   -0.312362   -0.352089
     16          6           0       -5.397315   -1.194824    0.312355
     17          6           0       -5.978450   -2.240126   -0.640231
     18          1           0       -4.784766    0.189506   -1.222330
     19          1           0       -3.531227   -0.948392   -0.737613
     20          1           0       -6.203254   -0.557202    0.697733
     21          1           0       -4.950107   -1.694502    1.181229
     22          1           0       -5.189682   -2.900122   -1.015532
     23          1           0       -6.449950   -1.756360   -1.501775
     24          1           0       -6.732171   -2.859942   -0.144659
     25          6           0       -3.749741    0.737563    0.587535
     26          6           0       -2.692499    1.620025   -0.076910
     27          6           0       -2.111363    2.665326    0.875677
     28          1           0       -4.558586    1.373593    0.973060
     29          1           0       -3.305047    0.235694    1.457777
     30          1           0       -3.139707    2.119703   -0.945783
     31          1           0       -1.886559    0.982403   -0.462287
     32          1           0       -1.639863    2.181560    1.737222
     33          1           0       -2.900132    3.325322    1.250978
     34          1           0       -1.357642    3.285142    0.380105
 ---------------------------------------------------------------------

 SCF Done:  E(RHF) =  -669.536915451     A.U. after   15 cycles
 E2 =    -0.2091647803D+01 EUMP2 =    -0.67162856325396D+03

 The electronic state is 1-A.
 Alpha  occ. eigenvalues --  -20.61125 -20.61118 -15.86120 -11.31393 -11.27945
 Alpha  occ. eigenvalues --  -11.27940 -11.27671 -11.26937 -11.26927 -11.20674
 Alpha  occ. eigenvalues --  -11.20322 -11.20167 -11.19918 -11.19586 -11.19338
 Alpha  occ. eigenvalues --   -1.60155  -1.39715  -1.19551  -1.08965  -1.07085
 Alpha  occ. eigenvalues --   -1.04938  -1.02152  -0.95815  -0.94664  -0.86341
 Alpha  occ. eigenvalues --   -0.85699  -0.82652  -0.78285  -0.77712  -0.76815
 Alpha  occ. eigenvalues --   -0.72332  -0.71457  -0.70659  -0.65206  -0.64942
 Alpha  occ. eigenvalues --   -0.63714  -0.62285  -0.59545  -0.58088  -0.56237
 Alpha  occ. eigenvalues --   -0.55441  -0.53976  -0.53271  -0.53028  -0.51382
 Alpha  occ. eigenvalues --   -0.51092  -0.49153  -0.49080  -0.48631  -0.46581
 Alpha  occ. eigenvalues --   -0.45299  -0.45137  -0.44399  -0.44127  -0.42418
 Alpha  occ. eigenvalues --   -0.37526  -0.36535
 Alpha virt. eigenvalues --    0.04816   0.11121   0.16328   0.21258   0.24118
 Alpha virt. eigenvalues --    0.25696   0.27185   0.27922   0.28187   0.28892
 Alpha virt. eigenvalues --    0.29243   0.30841   0.32349   0.32665   0.33009

 Mulliken charges:
               1
     1  C   -0.170367
     2  C   -0.218595
     3  C   -0.170569
     4  C    0.158404
     5  C   -0.170638
     6  C   -0.218552
     7  H    0.226365
     8  H    0.224195
     9  H    0.276103
    10  H    0.275783
    11  H    0.224152
    12  N    0.489142
    13  O   -0.459570
    14  O   -0.458140
    15  C   -0.298211
    16  C   -0.298456
    17  C   -0.474867
    18  H    0.146560
    19  H    0.153549
    20  H    0.149411
    21  H    0.150163
    22  H    0.154265
    23  H    0.153874
    24  H    0.156666
    25  C   -0.296480
    26  C   -0.308689
    27  C   -0.473491
    28  H    0.142410
    29  H    0.148388
    30  H    0.142920
    31  H    0.182534
    32  H    0.152060
    33  H    0.144273
    34  H    0.165408
 Sum of Mulliken charges =  -0.00000

 Dipole moment (field-independent basis, Debye):
    X=              5.3656    Y=             -1.8424    Z=              0.6951  Tot=              5.7155
 Quadrupole moment (field-independent basis, Debye-Ang):
   XX=            -67.5391   YY=            -92.0454   ZZ=            -95.2591
   XY=             -4.6455   XZ=              0.9671   YZ=             -2.8363

 Normal termination of Gaussian 16 at Thu May  6 01:26:28 2021.
