 Gaussian 16, Revision A.03,
 Gaussian 16:  EM64L-G16RevA.03 25-Dec-2016

 -------------
 #p 6-31g* mp2
 -------------

 ------------------------------------------------------
 Input file generated by CHIRIPA (05-May-2021 14:57:24)
 ------------------------------------------------------
 Symbolic Z-matrix:
 Charge =  0 Multiplicity = 1

                         Standard orientation:
 ---------------------------------------------------------------------
 Center     Atomic      Atomic             Coordinates (Angstroms)
 Number     Number       Type             X           Y           Z
 ---------------------------------------------------------------------
      1          6           0       -5.406627    1.807576    0.475152
      2          6           0       -4.125172    2.210506    0.085226
      3          6           0       -3.145746    1.261785   -0.223320
      4          6           0       -3.483684   -0.087491   -0.130900
      5          6           0       -4.751472   -0.520396    0.254580
      6          6           0       -5.715143    0.445811    0.558438
      7          1           0       -6.161349    2.551357    0.713017
      8          1           0       -3.882749    3.267378    0.019672
      9          1           0       -2.145784    1.545965   -0.527846
     10          1           0       -4.963354   -1.581231    0.310727
     11          1           0       -6.709509    0.129981    0.860980
     12          7           0       -2.455149   -1.101115   -0.455063
     13          8           0       -2.778012   -2.283672   -0.365873
     14          8           0       -1.345594   -0.693844   -0.792193
     15          6           0        5.385836    1.743476   -0.123541
     16          6           0        5.188520    1.097255    1.101199
     17          6           0        4.231300    0.085744    1.224162
     18          6           0        3.485694   -0.255811    0.096908
     19          6           0        3.658913    0.369402   -1.136946
     20          6           0        4.621749    1.378130   -1.236742
     21          1           0        6.131608    2.528162   -0.210063
     22          1           0        5.780470    1.378911    1.967402
     23          1           0        4.057923   -0.430980    2.160301
     24          1           0        3.053554    0.066755   -1.982738
     25          1           0        4.772825    1.878270   -2.189150
     26          7           0        2.469355   -1.325181    0.214821
     27          8           0        1.825369   -1.607622   -0.793220
     28          8           0        2.335978   -1.860664    1.313049
 ---------------------------------------------------------------------

 SCF Done:  E(RHF) =  -868.334773781     A.U. after   16 cycles
 E2 =    -0.2600559039D+01 EUMP2 =    -0.87093533281993D+03

 The electronic state is 1-A.
 Alpha  occ. eigenvalues --  -20.59802 -20.59773 -20.59670 -20.59520 -15.84865
 Alpha  occ. eigenvalues --  -15.84653 -11.30599 -11.30460 -11.27232 -11.27200
 Alpha  occ. eigenvalues --  -11.27095 -11.27058 -11.27028 -11.26920 -11.26327
 Alpha  occ. eigenvalues --  -11.26299 -11.26208 -11.26191  -1.58859  -1.58657
 Alpha  occ. eigenvalues --   -1.38410  -1.38200  -1.18808  -1.18678  -1.08132
 Alpha  occ. eigenvalues --   -1.07992  -1.04269  -1.04145  -0.94907  -0.94745
 Alpha  occ. eigenvalues --   -0.85650  -0.85522  -0.81747  -0.81574  -0.76730
 Alpha  occ. eigenvalues --   -0.76551  -0.71143  -0.70795  -0.70221  -0.69978
 Alpha  occ. eigenvalues --   -0.69909  -0.69784  -0.64454  -0.64317  -0.64276
 Alpha  occ. eigenvalues --   -0.64154  -0.61617  -0.61484  -0.54759  -0.54641
 Alpha  occ. eigenvalues --   -0.52575  -0.52456  -0.52369  -0.52243  -0.47921
 Alpha  occ. eigenvalues --   -0.47823  -0.47623  -0.47506  -0.43777  -0.43435
 Alpha  occ. eigenvalues --   -0.36809  -0.36687  -0.35890  -0.35772
 Alpha virt. eigenvalues --    0.05812   0.06004   0.11759   0.11877   0.17242
 Alpha virt. eigenvalues --    0.17407   0.21837   0.21957   0.27715   0.27837
 Alpha virt. eigenvalues --    0.28756   0.28900   0.31352   0.31478   0.32998

 Mulliken charges:
               1
     1  C   -0.172030
     2  C   -0.218416
     3  C   -0.171470
     4  C    0.159875
     5  C   -0.171192
     6  C   -0.218415
     7  H    0.223176
     8  H    0.220407
     9  H    0.273381
    10  H    0.275906
    11  H    0.221822
    12  N    0.487603
    13  O   -0.459131
    14  O   -0.451729
    15  C   -0.172553
    16  C   -0.218821
    17  C   -0.172214
    18  C    0.159552
    19  C   -0.171563
    20  C   -0.219168
    21  H    0.222397
    22  H    0.220603
    23  H    0.274500
    24  H    0.278013
    25  H    0.220815
    26  N    0.487034
    27  O   -0.442736
    28  O   -0.465645
 Sum of Mulliken charges =  -0.00000

 Dipole moment (field-independent basis, Debye):
    X=             -0.1157    Y=              7.0828    Z=              0.5831  Tot=              7.1077
 Quadrupole moment (field-independent basis, Debye-Ang):
   XX=            -55.5234   YY=           -105.9232   ZZ=           -101.3430
   XY=              2.7309   XZ=             -4.3289   YZ=             -1.3853

 Normal termination of Gaussian 16 at Fri May  7 08:03:44 2021.
