 Gaussian 16, Revision A.03,
 Gaussian 16:  EM64L-G16RevA.03 25-Dec-2016

 -------------
 #p 6-31g* mp2
 -------------

 ------------------------------------------------------
 Input file generated by CHIRIPA (05-May-2021 14:51:09)
 ------------------------------------------------------
 Symbolic Z-matrix:
 Charge =  0 Multiplicity = 1

                         Standard orientation:
 ---------------------------------------------------------------------
 Center     Atomic      Atomic             Coordinates (Angstroms)
 Number     Number       Type             X           Y           Z
 ---------------------------------------------------------------------
      1          6           0       -3.733776    0.509293   -0.297283
      2          6           0       -4.920106    1.290910    0.268120
      3          6           0       -5.406377    2.391633   -0.675142
      4          1           0       -2.910060    1.205617   -0.506019
      5          1           0       -4.020998    0.066947   -1.261248
      6          1           0       -4.631173    1.730500    1.231393
      7          1           0       -5.741025    0.592617    0.475713
      8          1           0       -5.721182    1.966340   -1.633592
      9          1           0       -4.605023    3.110687   -0.873619
     10          1           0       -6.254881    2.937715   -0.251237
     11          6           0       -3.236280   -0.594572    0.634226
     12          6           0       -2.049950   -1.376189    0.068823
     13          6           0       -1.563678   -2.476912    1.012085
     14          1           0       -2.949058   -0.152226    1.598191
     15          1           0       -4.059996   -1.290896    0.842962
     16          1           0       -1.229031   -0.677897   -0.138770
     17          1           0       -2.338883   -1.815779   -0.894450
     18          1           0       -2.365032   -3.195967    1.210562
     19          1           0       -1.248874   -2.051619    1.970535
     20          1           0       -0.715175   -3.022994    0.588180
     21          6           0        3.337961   -0.694896   -0.034886
     22          6           0        2.272463   -1.278577   -0.963334
     23          6           0        1.989248   -2.754868   -0.683782
     24          1           0        4.265305   -1.274216   -0.141500
     25          1           0        3.012043   -0.815694    1.007505
     26          1           0        2.599662   -1.155469   -2.003719
     27          1           0        1.347606   -0.697681   -0.854638
     28          1           0        1.638592   -2.891913    0.344255
     29          1           0        2.897762   -3.352302   -0.811354
     30          1           0        1.224618   -3.151796   -1.358800
     31          6           0        3.632094    0.780175   -0.302056
     32          6           0        4.697593    1.363856    0.626391
     33          6           0        4.980808    2.840146    0.346839
     34          1           0        3.958013    0.900972   -1.344449
     35          1           0        2.704751    1.359495   -0.195444
     36          1           0        5.622450    0.782960    0.517696
     37          1           0        4.370395    1.240749    1.666776
     38          1           0        4.072295    3.437583    0.474411
     39          1           0        5.331464    2.977192   -0.681198
     40          1           0        5.745438    3.237075    1.021856
 ---------------------------------------------------------------------

 SCF Done:  E(RHF) =  -470.732748722     A.U. after   11 cycles
 E2 =    -0.1583284751D+01 EUMP2 =    -0.47231603347332D+03

 The electronic state is 1-A.
 Alpha  occ. eigenvalues --  -11.21618 -11.21611 -11.21605 -11.21594 -11.21422
 Alpha  occ. eigenvalues --  -11.21405 -11.21362 -11.21346 -11.21087 -11.21074
 Alpha  occ. eigenvalues --  -11.21072 -11.20973  -1.08457  -1.08418  -1.03586
 Alpha  occ. eigenvalues --   -1.03482  -0.96061  -0.95908  -0.87091  -0.86916
 Alpha  occ. eigenvalues --   -0.79682  -0.79521  -0.78285  -0.78215  -0.65147
 Alpha  occ. eigenvalues --   -0.65007  -0.61125  -0.60827  -0.59488  -0.59206
 Alpha  occ. eigenvalues --   -0.57660  -0.57532  -0.55353  -0.55175  -0.52842
 Alpha  occ. eigenvalues --   -0.52568  -0.52410  -0.52330  -0.49991  -0.49838
 Alpha  occ. eigenvalues --   -0.47958  -0.47892  -0.46785  -0.46488  -0.45885
 Alpha  occ. eigenvalues --   -0.45772  -0.45738  -0.45561  -0.43850  -0.43686
 Alpha virt. eigenvalues --    0.20815   0.23182   0.23493   0.25441   0.25577
 Alpha virt. eigenvalues --    0.26807   0.26938   0.27277   0.28199   0.29220
 Alpha virt. eigenvalues --    0.30427   0.31056   0.31220   0.31645   0.32482

 Mulliken charges:
               1
     1  C   -0.298233
     2  C   -0.299632
     3  C   -0.475702
     4  H    0.149295
     5  H    0.149602
     6  H    0.151840
     7  H    0.152004
     8  H    0.155222
     9  H    0.155138
    10  H    0.160262
    11  C   -0.297992
    12  C   -0.302816
    13  C   -0.482820
    14  H    0.149242
    15  H    0.149840
    16  H    0.154470
    17  H    0.151765
    18  H    0.154674
    19  H    0.153465
    20  H    0.169719
    21  C   -0.298508
    22  C   -0.304026
    23  C   -0.479279
    24  H    0.149782
    25  H    0.149802
    26  H    0.152169
    27  H    0.156216
    28  H    0.158649
    29  H    0.155525
    30  H    0.160507
    31  C   -0.298231
    32  C   -0.299667
    33  C   -0.475702
    34  H    0.149668
    35  H    0.149150
    36  H    0.152061
    37  H    0.151907
    38  H    0.155065
    39  H    0.155249
    40  H    0.160321
 Sum of Mulliken charges =  -0.00000

 Dipole moment (field-independent basis, Debye):
    X=              0.0252    Y=             -0.0182    Z=             -0.0124  Tot=              0.0335
 Quadrupole moment (field-independent basis, Debye-Ang):
   XX=            -84.1840   YY=            -86.0601   ZZ=            -84.5175
   XY=              0.2650   XZ=             -0.4054   YZ=              1.0598

 Normal termination of Gaussian 16 at Thu May  6 03:42:32 2021.
