 Gaussian 16, Revision A.03,
 Gaussian 16:  EM64L-G16RevA.03 25-Dec-2016

 -------------
 #p 6-31g* mp2
 -------------

 ------------------------------------------------------
 Input file generated by CHIRIPA (05-May-2021 14:57:24)
 ------------------------------------------------------
 Symbolic Z-matrix:
 Charge =  0 Multiplicity = 1

                         Standard orientation:
 ---------------------------------------------------------------------
 Center     Atomic      Atomic             Coordinates (Angstroms)
 Number     Number       Type             X           Y           Z
 ---------------------------------------------------------------------
      1          6           0        3.118510   -2.164210    0.845128
      2          6           0        2.031595   -1.982846   -0.016407
      3          6           0        1.737178   -0.716807   -0.531201
      4          6           0        2.554302    0.350526   -0.161879
      5          6           0        3.644253    0.201843    0.694386
      6          6           0        3.919957   -1.073209    1.197155
      7          1           0        3.339952   -3.151200    1.240362
      8          1           0        1.407458   -2.828313   -0.291514
      9          1           0        0.901927   -0.548154   -1.200028
     10          1           0        4.248274    1.063804    0.950512
     11          1           0        4.764720   -1.211098    1.866040
     12          7           0        2.252521    1.695596   -0.700503
     13          8           0        2.987731    2.619744   -0.359836
     14          8           0        1.286489    1.800244   -1.453144
     15          6           0       -2.970019    1.104211    2.243721
     16          6           0       -3.077789    1.783732    1.025872
     17          6           0       -2.877079    1.110638   -0.182933
     18          6           0       -2.568658   -0.248049   -0.136739
     19          6           0       -2.454316   -0.952843    1.060541
     20          6           0       -2.659174   -0.259503    2.257146
     21          1           0       -3.127545    1.634950    3.178011
     22          1           0       -3.319076    2.842809    1.012410
     23          1           0       -2.954365    1.612196   -1.139952
     24          1           0       -2.212541   -2.008598    1.041976
     25          1           0       -2.574834   -0.789796    3.201455
     26          7           0       -2.353980   -0.971340   -1.409989
     27          8           0       -2.083313   -2.168333   -1.342288
     28          8           0       -2.460447   -0.327565   -2.451553
 ---------------------------------------------------------------------

 SCF Done:  E(RHF) =  -868.339062992     A.U. after   16 cycles
 E2 =    -0.2599980242D+01 EUMP2 =    -0.87093904323397D+03

 The electronic state is 1-A.
 Alpha  occ. eigenvalues --  -20.61078 -20.60984 -20.60618 -20.60602 -15.86060
 Alpha  occ. eigenvalues --  -15.85659 -11.31200 -11.30958 -11.27832 -11.27673
 Alpha  occ. eigenvalues --  -11.27551 -11.27468 -11.27448 -11.27255 -11.26770
 Alpha  occ. eigenvalues --  -11.26648 -11.26570 -11.26420  -1.60117  -1.59691
 Alpha  occ. eigenvalues --   -1.39667  -1.39244  -1.19362  -1.19123  -1.08806
 Alpha  occ. eigenvalues --   -1.08537  -1.04724  -1.04498  -0.95672  -0.95381
 Alpha  occ. eigenvalues --   -0.86139  -0.85906  -0.82505  -0.82197  -0.77581
 Alpha  occ. eigenvalues --   -0.77251  -0.72276  -0.71887  -0.71463  -0.71013
 Alpha  occ. eigenvalues --   -0.70473  -0.70221  -0.65017  -0.64767  -0.64730
 Alpha  occ. eigenvalues --   -0.64482  -0.62076  -0.61824  -0.55249  -0.55026
 Alpha  occ. eigenvalues --   -0.53086  -0.52847  -0.52813  -0.52569  -0.49057
 Alpha  occ. eigenvalues --   -0.49012  -0.48642  -0.48632  -0.45108  -0.44665
 Alpha  occ. eigenvalues --   -0.37353  -0.37121  -0.36334  -0.36061
 Alpha virt. eigenvalues --    0.04917   0.05249   0.11330   0.11539   0.16447
 Alpha virt. eigenvalues --    0.16760   0.21307   0.21772   0.27043   0.27521
 Alpha virt. eigenvalues --    0.28374   0.28510   0.30949   0.31349   0.32271

 Mulliken charges:
               1
     1  C   -0.171914
     2  C   -0.222663
     3  C   -0.174233
     4  C    0.158319
     5  C   -0.172097
     6  C   -0.219058
     7  H    0.224617
     8  H    0.233336
     9  H    0.281150
    10  H    0.273879
    11  H    0.221711
    12  N    0.487605
    13  O   -0.462987
    14  O   -0.459257
    15  C   -0.169946
    16  C   -0.217916
    17  C   -0.163591
    18  C    0.153795
    19  C   -0.172169
    20  C   -0.218555
    21  H    0.226229
    22  H    0.226826
    23  H    0.281163
    24  H    0.270269
    25  H    0.221763
    26  N    0.485731
    27  O   -0.470507
    28  O   -0.451503
 Sum of Mulliken charges =  -0.00000

 Dipole moment (field-independent basis, Debye):
    X=              0.1241    Y=             -2.0093    Z=              6.2779  Tot=              6.5928
 Quadrupole moment (field-independent basis, Debye-Ang):
   XX=            -93.5054   YY=           -105.8697   ZZ=           -105.0390
   XY=            -18.2547   XZ=             -4.0359   YZ=             -1.3911

 Normal termination of Gaussian 16 at Thu May  6 16:22:13 2021.
