 Gaussian 16, Revision A.03,
 Gaussian 16:  EM64L-G16RevA.03 25-Dec-2016

 -------------
 #p 6-31g* mp2
 -------------

 ------------------------------------------------------
 Input file generated by CHIRIPA (05-May-2021 14:55:23)
 ------------------------------------------------------
 Symbolic Z-matrix:
 Charge =  0 Multiplicity = 1

                         Standard orientation:
 ---------------------------------------------------------------------
 Center     Atomic      Atomic             Coordinates (Angstroms)
 Number     Number       Type             X           Y           Z
 ---------------------------------------------------------------------
      1          6           0       -2.192862    2.869239    0.248328
      2          6           0       -3.152386    2.378068   -0.643068
      3          6           0       -3.396820    1.004785   -0.737386
      4          6           0       -2.660159    0.147289    0.078286
      5          6           0       -1.697534    0.606009    0.976183
      6          6           0       -1.469773    1.983203    1.053688
      7          1           0       -2.009456    3.937557    0.315066
      8          1           0       -3.715447    3.063836   -1.269749
      9          1           0       -4.133803    0.597496   -1.418847
     10          1           0       -1.152063   -0.102239    1.587955
     11          1           0       -0.723981    2.361819    1.746862
     12          7           0       -2.910105   -1.308614   -0.012665
     13          8           0       -2.247752   -2.043267    0.716863
     14          8           0       -3.763633   -1.687531   -0.811759
     15          6           0        2.794245   -0.920318   -0.422221
     16          6           0        2.423888   -2.133347    0.431819
     17          6           0        1.306067   -2.973041   -0.187200
     18          1           0        1.902068   -0.295895   -0.567342
     19          1           0        3.101487   -1.263144   -1.419952
     20          1           0        2.118759   -1.788428    1.428083
     21          1           0        3.317095   -2.754856    0.575083
     22          1           0        1.604337   -3.345060   -1.172714
     23          1           0        0.399192   -2.373140   -0.314867
     24          1           0        1.057216   -3.834953    0.439729
     25          6           0        3.910306   -0.071015    0.183435
     26          6           0        4.280662    1.142014   -0.670605
     27          6           0        5.398484    1.981707   -0.051586
     28          1           0        3.603064    0.271811    1.181166
     29          1           0        4.802483   -0.695439    0.328555
     30          1           0        3.387456    1.763523   -0.813869
     31          1           0        4.585791    0.797094   -1.666869
     32          1           0        6.305358    1.381806    0.076081
     33          1           0        5.100215    2.353726    0.933927
     34          1           0        5.647336    2.843619   -0.678515
 ---------------------------------------------------------------------

 SCF Done:  E(RHF) =  -669.536017301     A.U. after   15 cycles
 E2 =    -0.2091568320D+01 EUMP2 =    -0.67162758562132D+03

 The electronic state is 1-A.
 Alpha  occ. eigenvalues --  -20.60932 -20.60922 -15.85949 -11.31298 -11.27866
 Alpha  occ. eigenvalues --  -11.27854 -11.27596 -11.26877 -11.26864 -11.21739
 Alpha  occ. eigenvalues --  -11.21433 -11.21284 -11.21253 -11.21224 -11.20229
 Alpha  occ. eigenvalues --   -1.59986  -1.39542  -1.19467  -1.08866  -1.08359
 Alpha  occ. eigenvalues --   -1.04865  -1.03358  -0.95784  -0.95695  -0.86784
 Alpha  occ. eigenvalues --   -0.86264  -0.82536  -0.79442  -0.78152  -0.77586
 Alpha  occ. eigenvalues --   -0.72174  -0.71302  -0.70571  -0.65123  -0.65009
 Alpha  occ. eigenvalues --   -0.64862  -0.62213  -0.60759  -0.59192  -0.57385
 Alpha  occ. eigenvalues --   -0.55366  -0.55066  -0.53195  -0.52955  -0.52430
 Alpha  occ. eigenvalues --   -0.52199  -0.49743  -0.48937  -0.48924  -0.47747
 Alpha  occ. eigenvalues --   -0.46530  -0.45708  -0.45647  -0.44798  -0.43617
 Alpha  occ. eigenvalues --   -0.37443  -0.36466
 Alpha virt. eigenvalues --    0.04911   0.11145   0.16380   0.20920   0.22815
 Alpha virt. eigenvalues --    0.24141   0.26380   0.27473   0.27526   0.28073
 Alpha virt. eigenvalues --    0.28608   0.30543   0.31536   0.31852   0.32281

 Mulliken charges:
               1
     1  C   -0.170633
     2  C   -0.218383
     3  C   -0.170756
     4  C    0.158414
     5  C   -0.172350
     6  C   -0.218668
     7  H    0.226105
     8  H    0.223949
     9  H    0.275970
    10  H    0.276535
    11  H    0.223922
    12  N    0.487511
    13  O   -0.457879
    14  O   -0.458597
    15  C   -0.298265
    16  C   -0.300093
    17  C   -0.476891
    18  H    0.145891
    19  H    0.150700
    20  H    0.146566
    21  H    0.150678
    22  H    0.151144
    23  H    0.164819
    24  H    0.164806
    25  C   -0.297205
    26  C   -0.299080
    27  C   -0.475341
    28  H    0.145086
    29  H    0.150965
    30  H    0.148679
    31  H    0.153346
    32  H    0.156546
    33  H    0.152895
    34  H    0.159616
 Sum of Mulliken charges =  -0.00000

 Dipole moment (field-independent basis, Debye):
    X=              0.7040    Y=              5.0642    Z=              0.2889  Tot=              5.1210
 Quadrupole moment (field-independent basis, Debye-Ang):
   XX=            -97.7333   YY=            -93.6242   ZZ=            -92.6239
   XY=            -15.2835   XZ=              1.3985   YZ=             -0.1742

 Normal termination of Gaussian 16 at Thu May  6 15:55:50 2021.
