 Gaussian 16, Revision A.03,
 Gaussian 16:  EM64L-G16RevA.03 25-Dec-2016

 -------------
 #p 6-31g* mp2
 -------------

 ------------------------------------------------------
 Input file generated by CHIRIPA (05-May-2021 14:51:07)
 ------------------------------------------------------
 Symbolic Z-matrix:
 Charge =  0 Multiplicity = 1

                         Standard orientation:
 ---------------------------------------------------------------------
 Center     Atomic      Atomic             Coordinates (Angstroms)
 Number     Number       Type             X           Y           Z
 ---------------------------------------------------------------------
      1          6           0        2.954437   -0.274333   -0.138455
      2          6           0        2.160746   -1.059413    0.906384
      3          6           0        0.764546   -1.447865    0.419019
      4          1           0        2.394611    0.630823   -0.410908
      5          1           0        3.038918   -0.876869   -1.053446
      6          1           0        2.078975   -0.456136    1.819613
      7          1           0        2.722616   -1.962708    1.176523
      8          1           0        0.829431   -2.070675   -0.479034
      9          1           0        0.182132   -0.555543    0.167710
     10          1           0        0.214652   -2.008274    1.181527
     11          6           0        4.352310    0.121184    0.334035
     12          6           0        5.146001    0.906263   -0.710805
     13          6           0        6.542201    1.294715   -0.223439
     14          1           0        4.267829    0.723719    1.249026
     15          1           0        4.912136   -0.783973    0.606488
     16          1           0        4.584131    1.809558   -0.980943
     17          1           0        5.227772    0.302986   -1.624033
     18          1           0        7.124615    0.402393    0.027870
     19          1           0        6.477316    1.917526    0.674614
     20          1           0        7.092095    1.855124   -0.985947
     21          6           0       -4.179562    0.619999   -0.203848
     22          6           0       -3.740656    1.995508    0.299464
     23          6           0       -4.803960    3.072137    0.080267
     24          1           0       -4.419856    0.687601   -1.273723
     25          1           0       -5.107832    0.329309    0.307239
     26          1           0       -2.812741    2.282906   -0.211409
     27          1           0       -3.501195    1.924580    1.368222
     28          1           0       -5.729508    2.811745    0.603869
     29          1           0       -5.037143    3.172107   -0.984737
     30          1           0       -4.469399    4.047433    0.447317
     31          6           0       -3.127186   -0.466849    0.008268
     32          6           0       -3.566091   -1.842358   -0.495044
     33          6           0       -2.502787   -2.918987   -0.275847
     34          1           0       -2.198915   -0.176160   -0.502818
     35          1           0       -2.886890   -0.534452    1.078143
     36          1           0       -3.805553   -1.771430   -1.563801
     37          1           0       -4.494006   -2.129757    0.015829
     38          1           0       -2.269604   -3.018958    0.789157
     39          1           0       -1.577239   -2.658595   -0.799448
     40          1           0       -2.837348   -3.894283   -0.642898
 ---------------------------------------------------------------------

 SCF Done:  E(RHF) =  -470.731943423     A.U. after   11 cycles
 E2 =    -0.1583709452D+01 EUMP2 =    -0.47231565287477D+03

 The electronic state is 1-A.
 Alpha  occ. eigenvalues --  -11.21594 -11.21593 -11.21533 -11.21516 -11.21386
 Alpha  occ. eigenvalues --  -11.21353 -11.21327 -11.21283 -11.21065 -11.21065
 Alpha  occ. eigenvalues --  -11.20969 -11.20886  -1.08418  -1.08370  -1.03544
 Alpha  occ. eigenvalues --   -1.03432  -0.96008  -0.95869  -0.87063  -0.86862
 Alpha  occ. eigenvalues --   -0.79740  -0.79400  -0.78282  -0.78113  -0.65047
 Alpha  occ. eigenvalues --   -0.65010  -0.60920  -0.60871  -0.59429  -0.59207
 Alpha  occ. eigenvalues --   -0.57607  -0.57500  -0.55387  -0.55087  -0.52840
 Alpha  occ. eigenvalues --   -0.52612  -0.52402  -0.52173  -0.50046  -0.49691
 Alpha  occ. eigenvalues --   -0.48018  -0.47759  -0.46628  -0.46537  -0.45906
 Alpha  occ. eigenvalues --   -0.45706  -0.45677  -0.45425  -0.43743  -0.43679
 Alpha virt. eigenvalues --    0.22120   0.23032   0.23646   0.24750   0.25469
 Alpha virt. eigenvalues --    0.26416   0.26704   0.27553   0.27787   0.29341
 Alpha virt. eigenvalues --    0.29719   0.30851   0.31612   0.32037   0.32485

 Mulliken charges:
               1
     1  C   -0.298422
     2  C   -0.301093
     3  C   -0.478367
     4  H    0.149161
     5  H    0.149201
     6  H    0.151528
     7  H    0.151594
     8  H    0.153607
     9  H    0.158917
    10  H    0.163307
    11  C   -0.298151
    12  C   -0.299593
    13  C   -0.475685
    14  H    0.149513
    15  H    0.149658
    16  H    0.151813
    17  H    0.151830
    18  H    0.155182
    19  H    0.155176
    20  H    0.160187
    21  C   -0.297863
    22  C   -0.299515
    23  C   -0.475620
    24  H    0.149414
    25  H    0.149402
    26  H    0.151118
    27  H    0.151813
    28  H    0.155253
    29  H    0.155189
    30  H    0.160067
    31  C   -0.301099
    32  C   -0.299644
    33  C   -0.478860
    34  H    0.153057
    35  H    0.149491
    36  H    0.151165
    37  H    0.151173
    38  H    0.154072
    39  H    0.163497
    40  H    0.158528
 Sum of Mulliken charges =  -0.00000

 Dipole moment (field-independent basis, Debye):
    X=              0.0082    Y=             -0.0112    Z=              0.0004  Tot=              0.0139
 Quadrupole moment (field-independent basis, Debye-Ang):
   XX=            -86.3081   YY=            -84.9671   ZZ=            -83.8498
   XY=             -0.0800   XZ=             -0.8025   YZ=              0.1407

 Normal termination of Gaussian 16 at Thu May  6 06:50:20 2021.
