 Gaussian 16, Revision A.03,
 Gaussian 16:  EM64L-G16RevA.03 25-Dec-2016

 -------------
 #p 6-31g* mp2
 -------------

 ------------------------------------------------------
 Input file generated by CHIRIPA (05-May-2021 14:57:23)
 ------------------------------------------------------
 Symbolic Z-matrix:
 Charge =  0 Multiplicity = 1

                         Standard orientation:
 ---------------------------------------------------------------------
 Center     Atomic      Atomic             Coordinates (Angstroms)
 Number     Number       Type             X           Y           Z
 ---------------------------------------------------------------------
      1          6           0        1.800098   -0.719429    0.651447
      2          6           0        2.784128   -1.712358    0.699394
      3          6           0        4.112043   -1.411888    0.381733
      4          6           0        4.422091   -0.102186    0.018633
      5          6           0        3.464258    0.909044   -0.038466
      6          6           0        2.142699    0.585801    0.283319
      7          1           0        0.771011   -0.961687    0.899816
      8          1           0        2.520954   -2.726874    0.984947
      9          1           0        4.893771   -2.161211    0.410622
     10          1           0        3.757102    1.911332   -0.326701
     11          1           0        1.380577    1.358952    0.245220
     12          7           0        5.824530    0.227962   -0.319844
     13          8           0        6.071934    1.389437   -0.636711
     14          8           0        6.649803   -0.680994   -0.261865
     15          6           0       -2.972332    2.349369    0.195107
     16          6           0       -2.253217    1.173642   -0.043768
     17          6           0       -2.917960   -0.046961   -0.194734
     18          6           0       -4.308764   -0.055390   -0.100474
     19          6           0       -5.053327    1.099016    0.136714
     20          6           0       -4.367632    2.308376    0.284429
     21          1           0       -2.447805    3.293196    0.311119
     22          1           0       -1.169550    1.202481   -0.113622
     23          1           0       -2.386033   -0.972169   -0.380375
     24          1           0       -6.132965    1.038681    0.201217
     25          1           0       -4.928704    3.219889    0.469867
     26          7           0       -5.023588   -1.341637   -0.258574
     27          8           0       -6.249407   -1.322394   -0.171199
     28          8           0       -4.344513   -2.344685   -0.466874
 ---------------------------------------------------------------------

 SCF Done:  E(RHF) =  -868.336508698     A.U. after   16 cycles
 E2 =    -0.2599860873D+01 EUMP2 =    -0.87093636957005D+03

 The electronic state is 1-A.
 Alpha  occ. eigenvalues --  -20.61445 -20.61430 -20.61200 -20.61190 -15.86501
 Alpha  occ. eigenvalues --  -15.86258 -11.31985 -11.31745 -11.28660 -11.28529
 Alpha  occ. eigenvalues --  -11.28388 -11.28349 -11.28295 -11.28176 -11.27749
 Alpha  occ. eigenvalues --  -11.27544 -11.27531 -11.27324  -1.60513  -1.60271
 Alpha  occ. eigenvalues --   -1.40064  -1.39821  -1.20180  -1.19948  -1.09549
 Alpha  occ. eigenvalues --   -1.09335  -1.05620  -1.05375  -0.96361  -0.96141
 Alpha  occ. eigenvalues --   -0.87024  -0.86774  -0.83206  -0.82971  -0.78245
 Alpha  occ. eigenvalues --   -0.77981  -0.72716  -0.72475  -0.71838  -0.71595
 Alpha  occ. eigenvalues --   -0.71288  -0.71080  -0.65841  -0.65817  -0.65597
 Alpha  occ. eigenvalues --   -0.65299  -0.63015  -0.62669  -0.56100  -0.55915
 Alpha  occ. eigenvalues --   -0.53914  -0.53802  -0.53680  -0.53416  -0.49485
 Alpha  occ. eigenvalues --   -0.49464  -0.49243  -0.49219  -0.45444  -0.45199
 Alpha  occ. eigenvalues --   -0.38149  -0.37950  -0.37220  -0.36967
 Alpha virt. eigenvalues --    0.04324   0.04563   0.10428   0.10638   0.15733
 Alpha virt. eigenvalues --    0.16007   0.17316   0.22179   0.24495   0.25188
 Alpha virt. eigenvalues --    0.27939   0.28985   0.30038   0.30963   0.32315

 Mulliken charges:
               1
     1  C   -0.172158
     2  C   -0.217859
     3  C   -0.169615
     4  C    0.159251
     5  C   -0.169580
     6  C   -0.221192
     7  H    0.223019
     8  H    0.227828
     9  H    0.278342
    10  H    0.276446
    11  H    0.215767
    12  N    0.487941
    13  O   -0.459787
    14  O   -0.458130
    15  C   -0.171027
    16  C   -0.222263
    17  C   -0.173151
    18  C    0.159736
    19  C   -0.169479
    20  C   -0.218038
    21  H    0.226905
    22  H    0.218811
    23  H    0.273200
    24  H    0.278398
    25  H    0.226731
    26  N    0.488151
    27  O   -0.457532
    28  O   -0.460716
 Sum of Mulliken charges =  -0.00000

 Dipole moment (field-independent basis, Debye):
    X=             -2.4688    Y=              3.3107    Z=              1.7629  Tot=              4.4903
 Quadrupole moment (field-independent basis, Debye-Ang):
   XX=           -164.5010   YY=            -99.6012   ZZ=           -106.3776
   XY=            -28.8600   XZ=              2.1253   YZ=             -1.2634

 Normal termination of Gaussian 16 at Thu May  6 09:45:39 2021.
