 Gaussian 16, Revision A.03,
 Gaussian 16:  EM64L-G16RevA.03 25-Dec-2016

 -------------
 #p 6-31g* mp2
 -------------

 ------------------------------------------------------
 Input file generated by CHIRIPA (05-May-2021 14:55:21)
 ------------------------------------------------------
 Symbolic Z-matrix:
 Charge =  0 Multiplicity = 1

                         Standard orientation:
 ---------------------------------------------------------------------
 Center     Atomic      Atomic             Coordinates (Angstroms)
 Number     Number       Type             X           Y           Z
 ---------------------------------------------------------------------
      1          6           0       -1.165132   -1.220893    1.205833
      2          6           0       -1.097699   -0.003032    0.521151
      3          6           0       -2.229739    0.519609   -0.111209
      4          6           0       -3.418232   -0.205299   -0.038515
      5          6           0       -3.517224   -1.421304    0.635891
      6          6           0       -2.372551   -1.924900    1.260921
      7          1           0       -0.280830   -1.619495    1.694218
      8          1           0       -0.161342    0.545882    0.476722
      9          1           0       -2.205600    1.460124   -0.648113
     10          1           0       -4.464751   -1.945598    0.662824
     11          1           0       -2.427862   -2.870949    1.791936
     12          7           0       -4.623359    0.337916   -0.704086
     13          8           0       -5.658501   -0.320054   -0.625390
     14          8           0       -4.509976    1.411373   -1.291855
     15          6           0        4.764657   -0.032949   -0.061079
     16          6           0        4.704771   -1.316300   -0.890180
     17          6           0        5.999635   -2.126362   -0.820041
     18          1           0        5.603896    0.583464   -0.411304
     19          1           0        4.981054   -0.290288    0.985030
     20          1           0        4.487181   -1.056717   -1.934158
     21          1           0        3.865460   -1.929642   -0.538067
     22          1           0        6.218644   -2.413933    0.213370
     23          1           0        6.843898   -1.536050   -1.190651
     24          1           0        5.934895   -3.039543   -1.419850
     25          6           0        3.477551    0.787709   -0.121140
     26          6           0        3.537436    2.071059    0.707963
     27          6           0        2.242572    2.881122    0.637823
     28          1           0        3.261153    1.045047   -1.167247
     29          1           0        2.638311    0.171296    0.229086
     30          1           0        4.376747    2.684401    0.355849
     31          1           0        3.755027    1.811477    1.751939
     32          1           0        1.398309    2.290809    1.008434
     33          1           0        2.023563    3.168693   -0.395588
     34          1           0        2.307312    3.794302    1.237632
 ---------------------------------------------------------------------

 SCF Done:  E(RHF) =  -669.535454688     A.U. after   15 cycles
 E2 =    -0.2091290070D+01 EUMP2 =    -0.67162674475832D+03

 The electronic state is 1-A.
 Alpha  occ. eigenvalues --  -20.60723 -20.60718 -15.85776 -11.31138 -11.27712
 Alpha  occ. eigenvalues --  -11.27695 -11.27457 -11.26730 -11.26682 -11.22491
 Alpha  occ. eigenvalues --  -11.22351 -11.22277 -11.22133 -11.22094 -11.21629
 Alpha  occ. eigenvalues --   -1.59799  -1.39352  -1.19310  -1.09267  -1.08709
 Alpha  occ. eigenvalues --   -1.04713  -1.04329  -0.96790  -0.95544  -0.87804
 Alpha  occ. eigenvalues --   -0.86115  -0.82376  -0.80396  -0.79078  -0.77420
 Alpha  occ. eigenvalues --   -0.71995  -0.71121  -0.70426  -0.65924  -0.64963
 Alpha  occ. eigenvalues --   -0.64725  -0.62127  -0.61668  -0.60147  -0.58393
 Alpha  occ. eigenvalues --   -0.56102  -0.55220  -0.53450  -0.53257  -0.53039
 Alpha  occ. eigenvalues --   -0.52788  -0.50732  -0.48793  -0.48749  -0.48660
 Alpha  occ. eigenvalues --   -0.47419  -0.46610  -0.46523  -0.44758  -0.44585
 Alpha  occ. eigenvalues --   -0.37296  -0.36312
 Alpha virt. eigenvalues --    0.05111   0.11302   0.16585   0.19020   0.22531
 Alpha virt. eigenvalues --    0.23562   0.25148   0.26257   0.26589   0.28508
 Alpha virt. eigenvalues --    0.29077   0.30036   0.31108   0.31258   0.31885

 Mulliken charges:
               1
     1  C   -0.172926
     2  C   -0.228334
     3  C   -0.173323
     4  C    0.158927
     5  C   -0.171231
     6  C   -0.218471
     7  H    0.224849
     8  H    0.237485
     9  H    0.276234
    10  H    0.275436
    11  H    0.223117
    12  N    0.488047
    13  O   -0.460697
    14  O   -0.460360
    15  C   -0.298838
    16  C   -0.299647
    17  C   -0.476187
    18  H    0.153041
    19  H    0.149805
    20  H    0.154152
    21  H    0.149023
    22  H    0.155240
    23  H    0.156986
    24  H    0.162075
    25  C   -0.299155
    26  C   -0.300620
    27  C   -0.480531
    28  H    0.152853
    29  H    0.140076
    30  H    0.156780
    31  H    0.153139
    32  H    0.147802
    33  H    0.158338
    34  H    0.166917
 Sum of Mulliken charges =  -0.00000

 Dipole moment (field-independent basis, Debye):
    X=              4.4887    Y=             -1.8408    Z=              2.2988  Tot=              5.3685
 Quadrupole moment (field-independent basis, Debye-Ang):
   XX=           -122.5413   YY=            -90.9150   ZZ=            -94.5433
   XY=              9.1663   XZ=             -9.5311   YZ=             -2.2836

 Normal termination of Gaussian 16 at Thu May  6 09:20:56 2021.
