 Gaussian 16, Revision A.03,
 Gaussian 16:  EM64L-G16RevA.03 25-Dec-2016

 -------------
 #p 6-31g* mp2
 -------------

 ------------------------------------------------------
 Input file generated by CHIRIPA (05-May-2021 14:57:21)
 ------------------------------------------------------
 Symbolic Z-matrix:
 Charge =  0 Multiplicity = 1

                         Standard orientation:
 ---------------------------------------------------------------------
 Center     Atomic      Atomic             Coordinates (Angstroms)
 Number     Number       Type             X           Y           Z
 ---------------------------------------------------------------------
      1          6           0       -3.214156    1.312158    1.199728
      2          6           0       -3.398688   -0.074210    1.178448
      3          6           0       -2.711541   -0.867856    0.255136
      4          6           0       -1.843698   -0.239176   -0.636435
      5          6           0       -1.638548    1.139660   -0.640119
      6          6           0       -2.336223    1.913608    0.291977
      7          1           0       -3.752038    1.921029    1.920391
      8          1           0       -4.079868   -0.544027    1.882231
      9          1           0       -2.835609   -1.943285    0.216704
     10          1           0       -0.952825    1.579306   -1.354201
     11          1           0       -2.190944    2.990054    0.306202
     12          7           0       -1.110673   -1.068946   -1.618554
     13          8           0       -0.351749   -0.490856   -2.393462
     14          8           0       -1.308933   -2.281698   -1.594833
     15          6           0        1.643026   -2.079589    1.699888
     16          6           0        2.315550   -2.057882    0.473608
     17          6           0        2.499459   -0.854647   -0.214104
     18          6           0        1.995588    0.313369    0.356111
     19          6           0        1.321236    0.324254    1.576119
     20          6           0        1.148887   -0.890549    2.246267
     21          1           0        1.504651   -3.018785    2.227298
     22          1           0        2.700372   -2.979766    0.046894
     23          1           0        3.016306   -0.809152   -1.165007
     24          1           0        0.948878    1.259466    1.976301
     25          1           0        0.626199   -0.904400    3.198448
     26          7           0        2.184166    1.593303   -0.362643
     27          8           0        1.730756    2.608622    0.160984
     28          8           0        2.781811    1.556962   -1.436018
 ---------------------------------------------------------------------

 SCF Done:  E(RHF) =  -868.339322001     A.U. after   16 cycles
 E2 =    -0.2604311693D+01 EUMP2 =    -0.87094363369482D+03

 The electronic state is 1-A.
 Alpha  occ. eigenvalues --  -20.60869 -20.60838 -20.60672 -20.60576 -15.85876
 Alpha  occ. eigenvalues --  -15.85651 -11.31154 -11.30823 -11.27782 -11.27620
 Alpha  occ. eigenvalues --  -11.27491 -11.27481 -11.27314 -11.27161 -11.26808
 Alpha  occ. eigenvalues --  -11.26638 -11.26456 -11.26293  -1.59918  -1.59697
 Alpha  occ. eigenvalues --   -1.39476  -1.39251  -1.19345  -1.19021  -1.08758
 Alpha  occ. eigenvalues --   -1.08452  -1.04716  -1.04386  -0.95602  -0.95311
 Alpha  occ. eigenvalues --   -0.86128  -0.85790  -0.82419  -0.82144  -0.77482
 Alpha  occ. eigenvalues --   -0.77200  -0.72120  -0.71886  -0.71363  -0.70931
 Alpha  occ. eigenvalues --   -0.70411  -0.70130  -0.64987  -0.64703  -0.64668
 Alpha  occ. eigenvalues --   -0.64389  -0.62039  -0.61731  -0.55247  -0.54923
 Alpha  occ. eigenvalues --   -0.53329  -0.52787  -0.52523  -0.52449  -0.48880
 Alpha  occ. eigenvalues --   -0.48868  -0.48658  -0.48614  -0.44948  -0.44666
 Alpha  occ. eigenvalues --   -0.37483  -0.37056  -0.36225  -0.35804
 Alpha virt. eigenvalues --    0.05016   0.05313   0.11027   0.11959   0.16525
 Alpha virt. eigenvalues --    0.16825   0.21448   0.21824   0.27392   0.27712
 Alpha virt. eigenvalues --    0.28292   0.28724   0.31017   0.31290   0.32500

 Mulliken charges:
               1
     1  C   -0.173893
     2  C   -0.220849
     3  C   -0.171991
     4  C    0.162390
     5  C   -0.176281
     6  C   -0.219984
     7  H    0.225223
     8  H    0.221054
     9  H    0.272501
    10  H    0.285117
    11  H    0.231675
    12  N    0.488758
    13  O   -0.458676
    14  O   -0.464334
    15  C   -0.170477
    16  C   -0.216851
    17  C   -0.161255
    18  C    0.152100
    19  C   -0.170299
    20  C   -0.220650
    21  H    0.224759
    22  H    0.227252
    23  H    0.281260
    24  H    0.270384
    25  H    0.219037
    26  N    0.487666
    27  O   -0.472149
    28  O   -0.451485
 Sum of Mulliken charges =  -0.00000

 Dipole moment (field-independent basis, Debye):
    X=             -3.0747    Y=             -1.6212    Z=              5.6950  Tot=              6.6720
 Quadrupole moment (field-independent basis, Debye-Ang):
   XX=            -96.8518   YY=           -105.1405   ZZ=           -105.2083
   XY=            -14.0909   XZ=             -3.2996   YZ=             -3.3681

 Normal termination of Gaussian 16 at Wed May  5 19:18:41 2021.
