 Gaussian 16, Revision A.03,
 Gaussian 16:  EM64L-G16RevA.03 25-Dec-2016

 -------------
 #p 6-31g* mp2
 -------------

 ------------------------------------------------------
 Input file generated by CHIRIPA (05-May-2021 14:53:17)
 ------------------------------------------------------
 Symbolic Z-matrix:
 Charge =  0 Multiplicity = 1

                         Standard orientation:
 ---------------------------------------------------------------------
 Center     Atomic      Atomic             Coordinates (Angstroms)
 Number     Number       Type             X           Y           Z
 ---------------------------------------------------------------------
      1          6           0       -4.193624    0.717921   -0.403495
      2          6           0       -3.042605    1.193030    0.483868
      3          6           0       -2.290148    2.383701   -0.111032
      4          1           0       -3.798313    0.446870   -1.392033
      5          1           0       -4.891833    1.551110   -0.563788
      6          1           0       -2.347493    0.358807    0.643574
      7          1           0       -3.440675    1.462799    1.470469
      8          1           0       -2.965403    3.233428   -0.254543
      9          1           0       -1.866010    2.123163   -1.086135
     10          1           0       -1.471561    2.706979    0.539558
     11          6           0       -4.955441   -0.471818    0.177784
     12          6           0       -6.106459   -0.946927   -0.709579
     13          6           0       -6.858916   -2.137598   -0.114680
     14          1           0       -4.257232   -1.305007    0.338076
     15          1           0       -5.350752   -0.200767    1.166321
     16          1           0       -5.708390   -1.216696   -1.696180
     17          1           0       -6.801572   -0.112704   -0.869286
     18          1           0       -7.283055   -1.877060    0.860424
     19          1           0       -6.183662   -2.987325    0.028831
     20          1           0       -7.677504   -2.460876   -0.765269
     21          6           0        1.498345    1.135101    0.824543
     22          6           0        1.856478   -0.066482    1.444589
     23          6           0        3.004329   -0.757213    1.044744
     24          6           0        3.774506   -0.215165    0.016979
     25          6           0        3.444031    0.979813   -0.620285
     26          6           0        2.291866    1.653500   -0.204101
     27          1           0        0.604991    1.665058    1.141498
     28          1           0        1.242110   -0.471441    2.243717
     29          1           0        3.304827   -1.689371    1.507562
     30          1           0        4.076372    1.358590   -1.414066
     31          1           0        2.016171    2.586463   -0.687440
     32          7           0        4.991968   -0.937390   -0.414967
     33          8           0        5.653687   -0.438818   -1.322818
     34          8           0        5.261443   -1.988365    0.162502
 ---------------------------------------------------------------------

 SCF Done:  E(RHF) =  -669.535524007     A.U. after   15 cycles
 E2 =    -0.2090953912D+01 EUMP2 =    -0.67162647791918D+03

 The electronic state is 1-A.
 Alpha  occ. eigenvalues --  -20.60736 -20.60731 -15.85790 -11.31147 -11.27719
 Alpha  occ. eigenvalues --  -11.27714 -11.27421 -11.26726 -11.26712 -11.22589
 Alpha  occ. eigenvalues --  -11.22270 -11.22122 -11.22075 -11.21963 -11.21463
 Alpha  occ. eigenvalues --   -1.59812  -1.39366  -1.19318  -1.09140  -1.08710
 Alpha  occ. eigenvalues --   -1.04721  -1.04276  -0.96735  -0.95546  -0.87752
 Alpha  occ. eigenvalues --   -0.86116  -0.82383  -0.80350  -0.78910  -0.77433
 Alpha  occ. eigenvalues --   -0.72008  -0.71136  -0.70446  -0.65759  -0.64968
 Alpha  occ. eigenvalues --   -0.64726  -0.62070  -0.61657  -0.60187  -0.58352
 Alpha  occ. eigenvalues --   -0.56009  -0.55217  -0.53423  -0.53129  -0.53041
 Alpha  occ. eigenvalues --   -0.52810  -0.50650  -0.48770  -0.48764  -0.48658
 Alpha  occ. eigenvalues --   -0.47364  -0.46461  -0.46353  -0.44774  -0.44522
 Alpha  occ. eigenvalues --   -0.37288  -0.36330
 Alpha virt. eigenvalues --    0.05092   0.11314   0.16545   0.19639   0.22495
 Alpha virt. eigenvalues --    0.23866   0.25948   0.26045   0.26513   0.27545
 Alpha virt. eigenvalues --    0.28813   0.30149   0.30876   0.31234   0.32233

 Mulliken charges:
               1
     1  C   -0.298836
     2  C   -0.301332
     3  C   -0.478576
     4  H    0.151992
     5  H    0.151508
     6  H    0.149821
     7  H    0.153448
     8  H    0.161250
     9  H    0.158864
    10  H    0.148725
    11  C   -0.298909
    12  C   -0.300286
    13  C   -0.476125
    14  H    0.149902
    15  H    0.150059
    16  H    0.153207
    17  H    0.152693
    18  H    0.155453
    19  H    0.155817
    20  H    0.161948
    21  C   -0.174400
    22  C   -0.220709
    23  C   -0.170826
    24  C    0.158271
    25  C   -0.170998
    26  C   -0.221034
    27  H    0.233890
    28  H    0.223684
    29  H    0.275355
    30  H    0.275458
    31  H    0.223799
    32  N    0.488033
    33  O   -0.460559
    34  O   -0.460590
 Sum of Mulliken charges =  -0.00000

 Dipole moment (field-independent basis, Debye):
    X=             -4.5203    Y=              2.5256    Z=              1.4598  Tot=              5.3799
 Quadrupole moment (field-independent basis, Debye-Ang):
   XX=           -126.9354   YY=            -94.0225   ZZ=            -92.6969
   XY=             10.3682   XZ=              5.0112   YZ=             -2.6399

 Normal termination of Gaussian 16 at Thu May  6 02:48:10 2021.
