 Gaussian 16, Revision A.03,
 Gaussian 16:  EM64L-G16RevA.03 25-Dec-2016

 -------------
 #p 6-31g* mp2
 -------------

 ------------------------------------------------------
 Input file generated by CHIRIPA (05-May-2021 14:53:16)
 ------------------------------------------------------
 Symbolic Z-matrix:
 Charge =  0 Multiplicity = 1

                         Standard orientation:
 ---------------------------------------------------------------------
 Center     Atomic      Atomic             Coordinates (Angstroms)
 Number     Number       Type             X           Y           Z
 ---------------------------------------------------------------------
      1          6           0       -3.824894   -0.246923   -0.162748
      2          6           0       -2.909242   -1.192728    0.615081
      3          6           0       -1.438217   -1.044973    0.225150
      4          1           0       -3.708448   -0.436443   -1.238605
      5          1           0       -3.501364    0.789051    0.008954
      6          1           0       -3.235257   -2.226527    0.443067
      7          1           0       -3.028024   -1.001065    1.689219
      8          1           0       -1.090481   -0.024046    0.413273
      9          1           0       -1.298892   -1.256472   -0.839960
     10          1           0       -0.801505   -1.730335    0.793248
     11          6           0       -5.298611   -0.382812    0.215961
     12          6           0       -6.214263    0.562993   -0.561869
     13          6           0       -7.685289    0.415238   -0.171937
     14          1           0       -5.622142   -1.418785    0.044259
     15          1           0       -5.415057   -0.193291    1.291818
     16          1           0       -6.095482    0.371330   -1.636007
     17          1           0       -5.888248    1.596793   -0.389854
     18          1           0       -7.824613    0.626737    0.893172
     19          1           0       -8.033024   -0.605688   -0.360061
     20          1           0       -8.322001    1.100600   -0.740036
     21          6           0        5.032309   -1.793897   -0.240944
     22          6           0        3.646105   -1.938727   -0.122682
     23          6           0        2.822766   -0.815499   -0.000130
     24          6           0        3.421906    0.443199    0.000498
     25          6           0        4.799766    0.620135   -0.115625
     26          6           0        5.603707   -0.517179   -0.237044
     27          1           0        5.664363   -2.671919   -0.335705
     28          1           0        3.199589   -2.929011   -0.125409
     29          1           0        1.746747   -0.898822    0.092928
     30          1           0        5.215793    1.620287   -0.109733
     31          1           0        6.679951   -0.401684   -0.328730
     32          7           0        2.560541    1.639766    0.129639
     33          8           0        3.112939    2.737715    0.127511
     34          8           0        1.349318    1.457031    0.230541
 ---------------------------------------------------------------------

 SCF Done:  E(RHF) =  -669.535984289     A.U. after   15 cycles
 E2 =    -0.2091292644D+01 EUMP2 =    -0.67162727693278D+03

 The electronic state is 1-A.
 Alpha  occ. eigenvalues --  -20.60806 -20.60796 -15.85854 -11.31162 -11.27743
 Alpha  occ. eigenvalues --  -11.27691 -11.27485 -11.26750 -11.26730 -11.21278
 Alpha  occ. eigenvalues --  -11.21271 -11.21054 -11.20954 -11.20802 -11.20662
 Alpha  occ. eigenvalues --   -1.59875  -1.39431  -1.19338  -1.08747  -1.08075
 Alpha  occ. eigenvalues --   -1.04733  -1.03195  -0.95677  -0.95562  -0.86679
 Alpha  occ. eigenvalues --   -0.86131  -0.82425  -0.79274  -0.77887  -0.77455
 Alpha  occ. eigenvalues --   -0.72084  -0.71193  -0.70450  -0.64998  -0.64742
 Alpha  occ. eigenvalues --   -0.64695  -0.62084  -0.60576  -0.59040  -0.57258
 Alpha  occ. eigenvalues --   -0.55248  -0.54903  -0.53070  -0.52881  -0.52332
 Alpha  occ. eigenvalues --   -0.52054  -0.49580  -0.48828  -0.48805  -0.47554
 Alpha  occ. eigenvalues --   -0.46263  -0.45425  -0.45327  -0.44847  -0.43472
 Alpha  occ. eigenvalues --   -0.37327  -0.36336
 Alpha virt. eigenvalues --    0.05058   0.11314   0.16555   0.21021   0.23243
 Alpha virt. eigenvalues --    0.24420   0.26015   0.27042   0.27697   0.27932
 Alpha virt. eigenvalues --    0.29312   0.30616   0.31562   0.31801   0.32167

 Mulliken charges:
               1
     1  C   -0.299208
     2  C   -0.299296
     3  C   -0.487815
     4  H    0.148660
     5  H    0.155686
     6  H    0.147820
     7  H    0.152509
     8  H    0.185350
     9  H    0.150942
    10  H    0.145928
    11  C   -0.298217
    12  C   -0.299663
    13  C   -0.475554
    14  H    0.147561
    15  H    0.149613
    16  H    0.151422
    17  H    0.153785
    18  H    0.155069
    19  H    0.154031
    20  H    0.159863
    21  C   -0.170237
    22  C   -0.221759
    23  C   -0.177279
    24  C    0.155674
    25  C   -0.170093
    26  C   -0.219201
    27  H    0.225473
    28  H    0.223814
    29  H    0.290379
    30  H    0.275383
    31  H    0.223274
    32  N    0.492785
    33  O   -0.460148
    34  O   -0.466552
 Sum of Mulliken charges =  -0.00000

 Dipole moment (field-independent basis, Debye):
    X=              3.0760    Y=             -4.0560    Z=             -0.4479  Tot=              5.1101
 Quadrupole moment (field-independent basis, Debye-Ang):
   XX=            -72.4504   YY=            -96.9708   ZZ=            -95.2321
   XY=            -10.8253   XZ=             -1.5804   YZ=              0.2385

 Normal termination of Gaussian 16 at Thu May  6 02:44:59 2021.
