 Gaussian 16, Revision A.03,
 Gaussian 16:  EM64L-G16RevA.03 25-Dec-2016

 -------------
 #p 6-31g* mp2
 -------------

 ------------------------------------------------------
 Input file generated by CHIRIPA (05-May-2021 14:55:20)
 ------------------------------------------------------
 Symbolic Z-matrix:
 Charge =  0 Multiplicity = 1

                         Standard orientation:
 ---------------------------------------------------------------------
 Center     Atomic      Atomic             Coordinates (Angstroms)
 Number     Number       Type             X           Y           Z
 ---------------------------------------------------------------------
      1          6           0        0.993515    0.884966    0.639317
      2          6           0        1.536697   -0.164086    1.388293
      3          6           0        2.803567   -0.671505    1.084789
      4          6           0        3.502772   -0.103677    0.020846
      5          6           0        2.988610    0.942216   -0.744031
      6          6           0        1.719924    1.433801   -0.422582
      7          1           0        0.008675    1.272991    0.882056
      8          1           0        0.974827   -0.592262    2.213528
      9          1           0        3.247925   -1.483032    1.648161
     10          1           0        3.572620    1.348567   -1.560871
     11          1           0        1.300581    2.248573   -1.005972
     12          7           0        4.844911   -0.632477   -0.309959
     13          8           0        5.440724   -0.114932   -1.252186
     14          8           0        5.275653   -1.554482    0.379247
     15          6           0       -4.154255    0.733880   -0.367244
     16          6           0       -3.397584    1.686580    0.558930
     17          6           0       -3.313666    3.108647    0.003523
     18          1           0       -3.660440    0.717270   -1.348476
     19          1           0       -5.167936    1.123787   -0.534030
     20          1           0       -2.386088    1.294276    0.725030
     21          1           0       -3.893146    1.700778    1.538130
     22          1           0       -4.315694    3.523737   -0.145599
     23          1           0       -2.800074    3.114926   -0.963320
     24          1           0       -2.768712    3.772922    0.681480
     25          6           0       -4.246566   -0.691579    0.174305
     26          6           0       -5.003237   -1.644278   -0.751869
     27          6           0       -5.087156   -3.066346   -0.196463
     28          1           0       -3.232884   -1.081485    0.341091
     29          1           0       -4.740381   -0.674968    1.155536
     30          1           0       -4.507675   -1.658475   -1.731069
     31          1           0       -6.014733   -1.251974   -0.917968
     32          1           0       -5.600747   -3.072624    0.770381
     33          1           0       -4.085126   -3.481436   -0.047340
     34          1           0       -5.632109   -3.730621   -0.874418
 ---------------------------------------------------------------------

 SCF Done:  E(RHF) =  -669.535550572     A.U. after   15 cycles
 E2 =    -0.2091021061D+01 EUMP2 =    -0.67162657163328D+03

 The electronic state is 1-A.
 Alpha  occ. eigenvalues --  -20.60756 -20.60751 -15.85810 -11.31177 -11.27746
 Alpha  occ. eigenvalues --  -11.27742 -11.27464 -11.26760 -11.26750 -11.22759
 Alpha  occ. eigenvalues --  -11.22252 -11.22189 -11.22124 -11.22110 -11.21559
 Alpha  occ. eigenvalues --   -1.59832  -1.39385  -1.19348  -1.09264  -1.08742
 Alpha  occ. eigenvalues --   -1.04752  -1.04353  -0.96775  -0.95578  -0.87791
 Alpha  occ. eigenvalues --   -0.86148  -0.82413  -0.80443  -0.79051  -0.77457
 Alpha  occ. eigenvalues --   -0.72027  -0.71155  -0.70477  -0.65898  -0.64999
 Alpha  occ. eigenvalues --   -0.64754  -0.62100  -0.61759  -0.60172  -0.58387
 Alpha  occ. eigenvalues --   -0.56066  -0.55253  -0.53477  -0.53191  -0.53081
 Alpha  occ. eigenvalues --   -0.52842  -0.50718  -0.48801  -0.48782  -0.48724
 Alpha  occ. eigenvalues --   -0.47479  -0.46588  -0.46495  -0.44790  -0.44593
 Alpha  occ. eigenvalues --   -0.37326  -0.36359
 Alpha virt. eigenvalues --    0.05067   0.11295   0.16506   0.19326   0.22613
 Alpha virt. eigenvalues --    0.23686   0.25238   0.26256   0.26909   0.27680
 Alpha virt. eigenvalues --    0.28883   0.30232   0.30909   0.31125   0.32040

 Mulliken charges:
               1
     1  C   -0.178173
     2  C   -0.221231
     3  C   -0.170820
     4  C    0.158431
     5  C   -0.170801
     6  C   -0.221129
     7  H    0.237474
     8  H    0.223772
     9  H    0.275572
    10  H    0.275538
    11  H    0.223872
    12  N    0.487990
    13  O   -0.460455
    14  O   -0.460448
    15  C   -0.298051
    16  C   -0.304904
    17  C   -0.477165
    18  H    0.150928
    19  H    0.153144
    20  H    0.142489
    21  H    0.156066
    22  H    0.161119
    23  H    0.154050
    24  H    0.159645
    25  C   -0.298626
    26  C   -0.300297
    27  C   -0.476227
    28  H    0.147208
    29  H    0.150585
    30  H    0.153402
    31  H    0.153354
    32  H    0.155576
    33  H    0.155507
    34  H    0.162604
 Sum of Mulliken charges =  -0.00000

 Dipole moment (field-independent basis, Debye):
    X=             -4.9541    Y=              1.8507    Z=              1.1265  Tot=              5.4071
 Quadrupole moment (field-independent basis, Debye-Ang):
   XX=           -126.8520   YY=            -94.2773   ZZ=            -92.1170
   XY=              6.9037   XZ=              3.4082   YZ=             -2.5855

 Normal termination of Gaussian 16 at Thu May  6 02:58:34 2021.
