 Gaussian 16, Revision A.03,
 Gaussian 16:  EM64L-G16RevA.03 25-Dec-2016

 -------------
 #p 6-31g* mp2
 -------------

 ------------------------------------------------------
 Input file generated by CHIRIPA (05-May-2021 14:51:14)
 ------------------------------------------------------
 Symbolic Z-matrix:
 Charge =  0 Multiplicity = 1

                         Standard orientation:
 ---------------------------------------------------------------------
 Center     Atomic      Atomic             Coordinates (Angstroms)
 Number     Number       Type             X           Y           Z
 ---------------------------------------------------------------------
      1          6           0       -4.398906    0.022997   -0.127254
      2          6           0       -5.596253   -0.926408   -0.181803
      3          6           0       -6.829220   -0.286792   -0.820925
      4          1           0       -4.679105    0.924399    0.434804
      5          1           0       -4.155050    0.353362   -1.146464
      6          1           0       -5.836909   -1.255969    0.837064
      7          1           0       -5.313112   -1.825738   -0.743632
      8          1           0       -6.612442    0.026347   -1.847352
      9          1           0       -7.139215    0.599353   -0.257674
     10          1           0       -7.673280   -0.982921   -0.849699
     11          6           0       -3.158655   -0.602029    0.509023
     12          6           0       -1.961308    0.347376    0.563572
     13          6           0       -0.728341   -0.292240    1.202694
     14          1           0       -3.402511   -0.932394    1.528232
     15          1           0       -2.878456   -1.503431   -0.053035
     16          1           0       -2.244449    1.246706    1.125401
     17          1           0       -1.720652    0.676938   -0.455295
     18          1           0       -0.418346   -1.178385    0.639443
     19          1           0       -0.945119   -0.605379    2.229121
     20          1           0        0.115719    0.403889    1.231468
     21          6           0        4.101476   -0.306650   -0.542859
     22          6           0        5.166660   -1.005966    0.302318
     23          6           0        5.803061   -2.196609   -0.415427
     24          1           0        3.322506   -1.032500   -0.813587
     25          1           0        4.554666    0.031492   -1.485024
     26          1           0        4.711922   -1.341468    1.243205
     27          1           0        5.943086   -0.278322    0.571226
     28          1           0        6.282352   -1.874447   -1.345531
     29          1           0        5.044192   -2.943633   -0.669734
     30          1           0        6.561600   -2.681773    0.206742
     31          6           0        3.456085    0.885682    0.161090
     32          6           0        2.390901    1.584998   -0.684087
     33          6           0        1.754499    2.775640    0.033659
     34          1           0        3.002894    0.547540    1.103254
     35          1           0        4.235054    1.611531    0.431817
     36          1           0        1.614474    0.857354   -0.952995
     37          1           0        2.845639    1.920500   -1.624974
     38          1           0        2.513369    3.522665    0.287966
     39          1           0        1.275209    2.453479    0.963763
     40          1           0        0.995960    3.260805   -0.588511
 ---------------------------------------------------------------------

 SCF Done:  E(RHF) =  -470.732987014     A.U. after   11 cycles
 E2 =    -0.1583265966D+01 EUMP2 =    -0.47231625298061D+03

 The electronic state is 1-A.
 Alpha  occ. eigenvalues --  -11.21625 -11.21611 -11.21580 -11.21579 -11.21420
 Alpha  occ. eigenvalues --  -11.21387 -11.21361 -11.21327 -11.21085 -11.21078
 Alpha  occ. eigenvalues --  -11.21075 -11.21055  -1.08456  -1.08407  -1.03589
 Alpha  occ. eigenvalues --   -1.03484  -0.96039  -0.95935  -0.87025  -0.86984
 Alpha  occ. eigenvalues --   -0.79611  -0.79580  -0.78257  -0.78227  -0.65125
 Alpha  occ. eigenvalues --   -0.65037  -0.61113  -0.60912  -0.59348  -0.59273
 Alpha  occ. eigenvalues --   -0.57616  -0.57565  -0.55290  -0.55250  -0.52694
 Alpha  occ. eigenvalues --   -0.52657  -0.52462  -0.52323  -0.49974  -0.49881
 Alpha  occ. eigenvalues --   -0.47992  -0.47822  -0.46645  -0.46610  -0.45802
 Alpha  occ. eigenvalues --   -0.45764  -0.45726  -0.45688  -0.43805  -0.43745
 Alpha virt. eigenvalues --    0.20452   0.23082   0.23640   0.25274   0.26267
 Alpha virt. eigenvalues --    0.26379   0.27116   0.27258   0.28093   0.29105
 Alpha virt. eigenvalues --    0.30250   0.31249   0.31612   0.31779   0.32129

 Mulliken charges:
               1
     1  C   -0.298270
     2  C   -0.299664
     3  C   -0.475720
     4  H    0.149760
     5  H    0.149555
     6  H    0.151942
     7  H    0.151926
     8  H    0.155206
     9  H    0.155222
    10  H    0.160280
    11  C   -0.298363
    12  C   -0.299755
    13  C   -0.484249
    14  H    0.149614
    15  H    0.149558
    16  H    0.152315
    17  H    0.152508
    18  H    0.154354
    19  H    0.155055
    20  H    0.169061
    21  C   -0.298158
    22  C   -0.299754
    23  C   -0.475696
    24  H    0.149874
    25  H    0.149330
    26  H    0.152297
    27  H    0.151825
    28  H    0.155068
    29  H    0.155155
    30  H    0.160221
    31  C   -0.299508
    32  C   -0.303265
    33  C   -0.478360
    34  H    0.150552
    35  H    0.149634
    36  H    0.155100
    37  H    0.152480
    38  H    0.155562
    39  H    0.156513
    40  H    0.160793
 Sum of Mulliken charges =  -0.00000

 Dipole moment (field-independent basis, Debye):
    X=             -0.0057    Y=              0.0105    Z=             -0.0008  Tot=              0.0120
 Quadrupole moment (field-independent basis, Debye-Ang):
   XX=            -85.4499   YY=            -85.2042   ZZ=            -84.1273
   XY=              1.1233   XZ=             -0.7672   YZ=             -0.1202

 Normal termination of Gaussian 16 at Wed May  5 16:54:56 2021.
