 Gaussian 16, Revision A.03,
 Gaussian 16:  EM64L-G16RevA.03 25-Dec-2016

 -------------
 #p 6-31g* mp2
 -------------

 ------------------------------------------------------
 Input file generated by CHIRIPA (05-May-2021 14:53:17)
 ------------------------------------------------------
 Symbolic Z-matrix:
 Charge =  0 Multiplicity = 1

                         Standard orientation:
 ---------------------------------------------------------------------
 Center     Atomic      Atomic             Coordinates (Angstroms)
 Number     Number       Type             X           Y           Z
 ---------------------------------------------------------------------
      1          6           0       -4.201114    0.083526    0.034492
      2          6           0       -3.484959    0.576435    1.292326
      3          6           0       -1.984747    0.778883    1.077454
      4          1           0       -3.745395   -0.860983   -0.292871
      5          1           0       -4.040290    0.806130   -0.777527
      6          1           0       -3.648240   -0.146195    2.102117
      7          1           0       -3.942562    1.519783    1.616842
      8          1           0       -1.804626    1.515687    0.287974
      9          1           0       -1.508632   -0.159757    0.776006
     10          1           0       -1.492564    1.131422    1.989229
     11          6           0       -5.701526   -0.123583    0.233482
     12          6           0       -6.417681   -0.616492   -1.024352
     13          6           0       -7.917894   -0.818939   -0.809480
     14          1           0       -5.862350   -0.846186    1.045501
     15          1           0       -6.157245    0.820927    0.560845
     16          1           0       -5.960079   -1.559840   -1.348868
     17          1           0       -6.254401    0.106138   -1.834143
     18          1           0       -8.394008    0.119701   -0.508032
     19          1           0       -8.098014   -1.555743   -0.020000
     20          1           0       -8.410077   -1.171478   -1.721255
     21          6           0        1.706643    1.316648   -0.074454
     22          6           0        2.851335    1.874430   -0.653317
     23          6           0        4.054431    1.162669   -0.675717
     24          6           0        4.077192   -0.110129   -0.107599
     25          6           0        2.953659   -0.693000    0.476546
     26          6           0        1.761363    0.036968    0.487639
     27          1           0        0.776244    1.876632   -0.061446
     28          1           0        2.811776    2.868044   -1.090595
     29          1           0        4.955570    1.570540   -1.117315
     30          1           0        3.024043   -1.685606    0.904561
     31          1           0        0.873949   -0.398723    0.937877
     32          7           0        5.345140   -0.873277   -0.125327
     33          8           0        5.339062   -1.992821    0.381841
     34          8           0        6.321027   -0.337437   -0.646056
 ---------------------------------------------------------------------

 SCF Done:  E(RHF) =  -669.535237347     A.U. after   15 cycles
 E2 =    -0.2091487244D+01 EUMP2 =    -0.67162672459154D+03

 The electronic state is 1-A.
 Alpha  occ. eigenvalues --  -20.60673 -20.60668 -15.85725 -11.31058 -11.27631
 Alpha  occ. eigenvalues --  -11.27614 -11.27311 -11.26632 -11.26562 -11.22657
 Alpha  occ. eigenvalues --  -11.22564 -11.22214 -11.22131 -11.22014 -11.21504
 Alpha  occ. eigenvalues --   -1.59749  -1.39304  -1.19224  -1.09223  -1.08618
 Alpha  occ. eigenvalues --   -1.04628  -1.04375  -0.96870  -0.95458  -0.87911
 Alpha  occ. eigenvalues --   -0.86014  -0.82298  -0.80472  -0.78976  -0.77353
 Alpha  occ. eigenvalues --   -0.71943  -0.71072  -0.70322  -0.65857  -0.64871
 Alpha  occ. eigenvalues --   -0.64647  -0.62055  -0.61718  -0.60253  -0.58427
 Alpha  occ. eigenvalues --   -0.56228  -0.55078  -0.53581  -0.53308  -0.52947
 Alpha  occ. eigenvalues --   -0.52677  -0.50778  -0.48770  -0.48701  -0.48684
 Alpha  occ. eigenvalues --   -0.47453  -0.46531  -0.46416  -0.44716  -0.44602
 Alpha  occ. eigenvalues --   -0.37193  -0.36233
 Alpha virt. eigenvalues --    0.05179   0.11395   0.16678   0.20081   0.22267
 Alpha virt. eigenvalues --    0.23767   0.25210   0.25640   0.26900   0.27248
 Alpha virt. eigenvalues --    0.29123   0.29606   0.30705   0.31633   0.32034

 Mulliken charges:
               1
     1  C   -0.299412
     2  C   -0.299893
     3  C   -0.484750
     4  H    0.150826
     5  H    0.149843
     6  H    0.155782
     7  H    0.155583
     8  H    0.152609
     9  H    0.153524
    10  H    0.163168
    11  C   -0.299057
    12  C   -0.300221
    13  C   -0.476150
    14  H    0.150976
    15  H    0.150744
    16  H    0.152895
    17  H    0.152347
    18  H    0.155734
    19  H    0.156046
    20  H    0.161912
    21  C   -0.174883
    22  C   -0.219174
    23  C   -0.171151
    24  C    0.158483
    25  C   -0.171710
    26  C   -0.223808
    27  H    0.231046
    28  H    0.222805
    29  H    0.274993
    30  H    0.275089
    31  H    0.229510
    32  N    0.488000
    33  O   -0.460856
    34  O   -0.460851
 Sum of Mulliken charges =  -0.00000

 Dipole moment (field-independent basis, Debye):
    X=             -4.8031    Y=              2.6866    Z=              0.0885  Tot=              5.5041
 Quadrupole moment (field-independent basis, Debye-Ang):
   XX=           -131.0543   YY=            -91.8799   ZZ=            -94.2203
   XY=             13.1570   XZ=             -0.5206   YZ=             -2.6532

 Normal termination of Gaussian 16 at Wed May  5 17:14:39 2021.
