 Gaussian 16, Revision A.03,
 Gaussian 16:  EM64L-G16RevA.03 25-Dec-2016

 -------------
 #p 6-31g* mp2
 -------------

 ------------------------------------------------------
 Input file generated by CHIRIPA (05-May-2021 14:55:21)
 ------------------------------------------------------
 Symbolic Z-matrix:
 Charge =  0 Multiplicity = 1

                         Standard orientation:
 ---------------------------------------------------------------------
 Center     Atomic      Atomic             Coordinates (Angstroms)
 Number     Number       Type             X           Y           Z
 ---------------------------------------------------------------------
      1          6           0       -2.029321   -2.068693    1.536412
      2          6           0       -1.190158   -1.877876    0.433727
      3          6           0       -1.415192   -0.822898   -0.455615
      4          6           0       -2.493483    0.026029   -0.210866
      5          6           0       -3.347326   -0.137961    0.878790
      6          6           0       -3.103333   -1.199659    1.755039
      7          1           0       -1.847145   -2.890836    2.222189
      8          1           0       -0.355305   -2.551215    0.261448
      9          1           0       -0.781214   -0.652119   -1.317197
     10          1           0       -4.171532    0.549741    1.024286
     11          1           0       -3.756681   -1.345434    2.610569
     12          7           0       -2.741753    1.146444   -1.145442
     13          8           0       -3.698497    1.880433   -0.907663
     14          8           0       -1.974901    1.269422   -2.098044
     15          6           0        2.870559    0.684870    0.601015
     16          6           0        3.339038    2.126587    0.401106
     17          6           0        2.793134    3.078564    1.465776
     18          1           0        1.772325    0.658114    0.590441
     19          1           0        3.182043    0.340218    1.596800
     20          1           0        3.027965    2.467951   -0.594544
     21          1           0        4.436287    2.149887    0.411964
     22          1           0        3.114757    2.765092    2.464221
     23          1           0        1.698433    3.084963    1.451993
     24          1           0        3.140458    4.103735    1.303755
     25          6           0        3.408009   -0.278779   -0.455514
     26          6           0        2.939530   -1.720497   -0.255604
     27          6           0        3.485435   -2.672474   -1.320275
     28          1           0        3.096524    0.065872   -1.451299
     29          1           0        4.506243   -0.252024   -0.444941
     30          1           0        1.842281   -1.743796   -0.266464
     31          1           0        3.250604   -2.061861    0.740046
     32          1           0        4.580136   -2.678872   -1.306493
     33          1           0        3.163811   -2.359000   -2.318720
     34          1           0        3.138109   -3.697644   -1.158255
 ---------------------------------------------------------------------

 SCF Done:  E(RHF) =  -669.535518724     A.U. after   15 cycles
 E2 =    -0.2092049401D+01 EUMP2 =    -0.67162756812506D+03

 The electronic state is 1-A.
 Alpha  occ. eigenvalues --  -20.60811 -20.60805 -15.85864 -11.31234 -11.27804
 Alpha  occ. eigenvalues --  -11.27795 -11.27524 -11.26812 -11.26786 -11.22292
 Alpha  occ. eigenvalues --  -11.21747 -11.21653 -11.21639 -11.21564 -11.21032
 Alpha  occ. eigenvalues --   -1.59886  -1.39440  -1.19403  -1.08797  -1.08750
 Alpha  occ. eigenvalues --   -1.04808  -1.03845  -0.96267  -0.95630  -0.87288
 Alpha  occ. eigenvalues --   -0.86200  -0.82470  -0.79953  -0.78536  -0.77505
 Alpha  occ. eigenvalues --   -0.72081  -0.71210  -0.70505  -0.65424  -0.65045
 Alpha  occ. eigenvalues --   -0.64804  -0.62194  -0.61204  -0.59669  -0.57879
 Alpha  occ. eigenvalues --   -0.55542  -0.55298  -0.53142  -0.52989  -0.52902
 Alpha  occ. eigenvalues --   -0.52674  -0.50210  -0.48844  -0.48837  -0.48235
 Alpha  occ. eigenvalues --   -0.46985  -0.46070  -0.45963  -0.44844  -0.44085
 Alpha  occ. eigenvalues --   -0.37374  -0.36385
 Alpha virt. eigenvalues --    0.04986   0.11222   0.16370   0.19915   0.22809
 Alpha virt. eigenvalues --    0.23928   0.25574   0.26607   0.27263   0.28334
 Alpha virt. eigenvalues --    0.29150   0.30229   0.31258   0.31526   0.32483

 Mulliken charges:
               1
     1  C   -0.171263
     2  C   -0.219757
     3  C   -0.172293
     4  C    0.158035
     5  C   -0.170938
     6  C   -0.218321
     7  H    0.226144
     8  H    0.227979
     9  H    0.275473
    10  H    0.275786
    11  H    0.223706
    12  N    0.488168
    13  O   -0.460152
    14  O   -0.460725
    15  C   -0.299772
    16  C   -0.300567
    17  C   -0.476068
    18  H    0.150442
    19  H    0.148037
    20  H    0.156647
    21  H    0.151383
    22  H    0.153229
    23  H    0.157621
    24  H    0.161964
    25  C   -0.298986
    26  C   -0.304252
    27  C   -0.476146
    28  H    0.153031
    29  H    0.151860
    30  H    0.142909
    31  H    0.152689
    32  H    0.159178
    33  H    0.157659
    34  H    0.157302
 Sum of Mulliken charges =  -0.00000

 Dipole moment (field-independent basis, Debye):
    X=              0.9259    Y=             -3.8714    Z=              3.2884  Tot=              5.1632
 Quadrupole moment (field-independent basis, Debye-Ang):
   XX=            -95.2875   YY=            -95.7716   ZZ=            -95.2867
   XY=              8.9155   XZ=            -10.5397   YZ=              0.9852

 Normal termination of Gaussian 16 at Thu May  6 07:46:45 2021.
