 Gaussian 16, Revision A.03,
 Gaussian 16:  EM64L-G16RevA.03 25-Dec-2016

 -------------
 #p 6-31g* mp2
 -------------

 ------------------------------------------------------
 Input file generated by CHIRIPA (05-May-2021 14:55:18)
 ------------------------------------------------------
 Symbolic Z-matrix:
 Charge =  0 Multiplicity = 1

                         Standard orientation:
 ---------------------------------------------------------------------
 Center     Atomic      Atomic             Coordinates (Angstroms)
 Number     Number       Type             X           Y           Z
 ---------------------------------------------------------------------
      1          6           0       -2.499783    2.141395   -1.037110
      2          6           0       -1.370571    1.315939   -1.041957
      3          6           0       -1.439750    0.015189   -0.534204
      4          6           0       -2.659647   -0.429689   -0.027030
      5          6           0       -3.802240    0.368696   -0.008286
      6          6           0       -3.709880    1.665977   -0.521200
      7          1           0       -2.437039    3.150501   -1.433549
      8          1           0       -0.429475    1.682491   -1.441987
      9          1           0       -0.581021   -0.645061   -0.525679
     10          1           0       -4.726486   -0.024761    0.397150
     11          1           0       -4.588462    2.304814   -0.516148
     12          7           0       -2.745154   -1.804898    0.513237
     13          8           0       -3.831607   -2.173146    0.954430
     14          8           0       -1.724103   -2.488499    0.485275
     15          6           0        3.218203    0.755244    0.705165
     16          6           0        2.626976    2.068037    0.190371
     17          6           0        2.295872    3.048739    1.315710
     18          1           0        2.508497    0.289373    1.402465
     19          1           0        4.127295    0.972258    1.282963
     20          1           0        1.720033    1.848498   -0.387448
     21          1           0        3.338090    2.530742   -0.505931
     22          1           0        3.195798    3.296809    1.887721
     23          1           0        1.568548    2.610688    2.006877
     24          1           0        1.874481    3.980344    0.925323
     25          6           0        3.554416   -0.235467   -0.408019
     26          6           0        4.145643   -1.548259    0.106774
     27          6           0        4.476746   -2.528962   -1.018564
     28          1           0        2.645322   -0.452480   -0.985817
     29          1           0        4.264122    0.230404   -1.105319
     30          1           0        3.434529   -2.010964    0.803076
     31          1           0        5.052585   -1.328721    0.684593
     32          1           0        5.204070   -2.090912   -1.709731
     33          1           0        3.576820   -2.777032   -1.590575
     34          1           0        4.898138   -3.460566   -0.628177
 ---------------------------------------------------------------------

 SCF Done:  E(RHF) =  -669.535484556     A.U. after   15 cycles
 E2 =    -0.2091697355D+01 EUMP2 =    -0.67162718191117D+03

 The electronic state is 1-A.
 Alpha  occ. eigenvalues --  -20.60796 -20.60791 -15.85850 -11.31213 -11.27786
 Alpha  occ. eigenvalues --  -11.27781 -11.27517 -11.26794 -11.26770 -11.22305
 Alpha  occ. eigenvalues --  -11.21840 -11.21783 -11.21716 -11.21622 -11.21116
 Alpha  occ. eigenvalues --   -1.59871  -1.39425  -1.19385  -1.08850  -1.08777
 Alpha  occ. eigenvalues --   -1.04790  -1.03899  -0.96330  -0.95614  -0.87348
 Alpha  occ. eigenvalues --   -0.86187  -0.82452  -0.79995  -0.78650  -0.77494
 Alpha  occ. eigenvalues --   -0.72068  -0.71195  -0.70492  -0.65522  -0.65033
 Alpha  occ. eigenvalues --   -0.64792  -0.62168  -0.61259  -0.59722  -0.57943
 Alpha  occ. eigenvalues --   -0.55607  -0.55286  -0.53116  -0.53033  -0.52908
 Alpha  occ. eigenvalues --   -0.52728  -0.50268  -0.48831  -0.48823  -0.48284
 Alpha  occ. eigenvalues --   -0.47021  -0.46185  -0.46089  -0.44831  -0.44163
 Alpha  occ. eigenvalues --   -0.37361  -0.36383
 Alpha virt. eigenvalues --    0.05027   0.11233   0.16428   0.19021   0.22804
 Alpha virt. eigenvalues --    0.23856   0.24875   0.26612   0.27150   0.28261
 Alpha virt. eigenvalues --    0.29470   0.30514   0.31376   0.31472   0.32289

 Mulliken charges:
               1
     1  C   -0.171301
     2  C   -0.221322
     3  C   -0.173777
     4  C    0.158585
     5  C   -0.170689
     6  C   -0.218583
     7  H    0.226095
     8  H    0.228879
     9  H    0.276201
    10  H    0.275700
    11  H    0.223575
    12  N    0.488075
    13  O   -0.460251
    14  O   -0.460781
    15  C   -0.299910
    16  C   -0.302551
    17  C   -0.475661
    18  H    0.153636
    19  H    0.152722
    20  H    0.141577
    21  H    0.153521
    22  H    0.158565
    23  H    0.158713
    24  H    0.157416
    25  C   -0.297726
    26  C   -0.301062
    27  C   -0.476101
    28  H    0.142538
    29  H    0.150186
    30  H    0.157697
    31  H    0.152549
    32  H    0.153822
    33  H    0.156745
    34  H    0.162917
 Sum of Mulliken charges =  -0.00000

 Dipole moment (field-independent basis, Debye):
    X=              0.3971    Y=              4.8014    Z=             -1.8040  Tot=              5.1445
 Quadrupole moment (field-independent basis, Debye-Ang):
   XX=            -90.3059   YY=            -99.8316   ZZ=            -95.6593
   XY=            -13.5769   XZ=              4.3381   YZ=              0.2921

 Normal termination of Gaussian 16 at Wed May  5 23:42:47 2021.
