 Gaussian 16, Revision A.03,
 Gaussian 16:  EM64L-G16RevA.03 25-Dec-2016

 -------------
 #p 6-31g* mp2
 -------------

 ------------------------------------------------------
 Input file generated by CHIRIPA (05-May-2021 14:57:27)
 ------------------------------------------------------
 Symbolic Z-matrix:
 Charge =  0 Multiplicity = 1

                         Standard orientation:
 ---------------------------------------------------------------------
 Center     Atomic      Atomic             Coordinates (Angstroms)
 Number     Number       Type             X           Y           Z
 ---------------------------------------------------------------------
      1          6           0        3.092434    2.570966   -0.492555
      2          6           0        3.500204    1.974596    0.705187
      3          6           0        3.483471    0.583919    0.847620
      4          6           0        3.051114   -0.183509   -0.232848
      5          6           0        2.638737    0.381005   -1.438898
      6          6           0        2.663758    1.773673   -1.558896
      7          1           0        3.108652    3.652050   -0.594486
      8          1           0        3.833606    2.591293    1.534990
      9          1           0        3.793766    0.096055    1.763657
     10          1           0        2.311508   -0.259998   -2.248500
     11          1           0        2.346513    2.234078   -2.490254
     12          7           0        3.029012   -1.656810   -0.093937
     13          8           0        2.643779   -2.310755   -1.060678
     14          8           0        3.397341   -2.129742    0.979053
     15          6           0       -1.378724   -0.152258    2.139409
     16          6           0       -2.610618    0.482508    2.329220
     17          6           0       -3.546882    0.540045    1.292568
     18          6           0       -3.216789   -0.050322    0.073636
     19          6           0       -1.997887   -0.689981   -0.146379
     20          6           0       -1.076823   -0.735449    0.904392
     21          1           0       -0.657315   -0.192266    2.950188
     22          1           0       -2.847789    0.936283    3.287282
     23          1           0       -4.508044    1.025084    1.412248
     24          1           0       -1.790020   -1.133244   -1.112675
     25          1           0       -0.120900   -1.229085    0.754124
     26          7           0       -4.199924    0.004201   -1.031294
     27          8           0       -3.885003   -0.523582   -2.095676
     28          8           0       -5.266812    0.573686   -0.812036
 ---------------------------------------------------------------------

 SCF Done:  E(RHF) =  -868.338391429     A.U. after   16 cycles
 E2 =    -0.2599651459D+01 EUMP2 =    -0.87093804288830D+03

 The electronic state is 1-A.
 Alpha  occ. eigenvalues --  -20.61672 -20.61659 -20.60702 -20.60696 -15.86710
 Alpha  occ. eigenvalues --  -15.85752 -11.31933 -11.31069 -11.28490 -11.28442
 Alpha  occ. eigenvalues --  -11.28136 -11.27650 -11.27592 -11.27442 -11.27384
 Alpha  occ. eigenvalues --  -11.27356 -11.26664 -11.26581  -1.60766  -1.59779
 Alpha  occ. eigenvalues --   -1.40312  -1.39333  -1.20080  -1.19235  -1.09498
 Alpha  occ. eigenvalues --   -1.08639  -1.05443  -1.04623  -0.96354  -0.95481
 Alpha  occ. eigenvalues --   -0.86848  -0.86026  -0.83175  -0.82310  -0.78257
 Alpha  occ. eigenvalues --   -0.77367  -0.72906  -0.72130  -0.71968  -0.71156
 Alpha  occ. eigenvalues --   -0.71103  -0.70338  -0.65717  -0.65423  -0.64883
 Alpha  occ. eigenvalues --   -0.64616  -0.62787  -0.61965  -0.55922  -0.55128
 Alpha  occ. eigenvalues --   -0.53804  -0.53518  -0.52959  -0.52703  -0.49683
 Alpha  occ. eigenvalues --   -0.49660  -0.48729  -0.48725  -0.45734  -0.44749
 Alpha  occ. eigenvalues --   -0.38052  -0.37214  -0.37044  -0.36218
 Alpha virt. eigenvalues --    0.04230   0.05157   0.10600   0.11416   0.15778
 Alpha virt. eigenvalues --    0.16664   0.20800   0.21437   0.26700   0.26895
 Alpha virt. eigenvalues --    0.27804   0.28459   0.30394   0.30881   0.31867

 Mulliken charges:
               1
     1  C   -0.169533
     2  C   -0.218264
     3  C   -0.174282
     4  C    0.152742
     5  C   -0.172604
     6  C   -0.217108
     7  H    0.228838
     8  H    0.224792
     9  H    0.274748
    10  H    0.277533
    11  H    0.228153
    12  N    0.485696
    13  O   -0.458901
    14  O   -0.460366
    15  C   -0.171394
    16  C   -0.219002
    17  C   -0.171873
    18  C    0.158146
    19  C   -0.172770
    20  C   -0.219039
    21  H    0.225859
    22  H    0.222076
    23  H    0.274562
    24  H    0.277475
    25  H    0.228453
    26  N    0.487951
    27  O   -0.460490
    28  O   -0.461397
 Sum of Mulliken charges =  -0.00000

 Dipole moment (field-independent basis, Debye):
    X=              3.7043    Y=              5.1101    Z=              3.3108  Tot=              7.1272
 Quadrupole moment (field-independent basis, Debye-Ang):
   XX=           -125.3417   YY=           -106.2931   ZZ=            -98.2705
   XY=             15.2208   XZ=            -14.2991   YZ=              0.6870

 Normal termination of Gaussian 16 at Fri May  7 03:35:37 2021.
