 Gaussian 16, Revision A.03,
 Gaussian 16:  EM64L-G16RevA.03 25-Dec-2016

 -------------
 #p 6-31g* mp2
 -------------

 ------------------------------------------------------
 Input file generated by CHIRIPA (05-May-2021 14:57:23)
 ------------------------------------------------------
 Symbolic Z-matrix:
 Charge =  0 Multiplicity = 1

                         Standard orientation:
 ---------------------------------------------------------------------
 Center     Atomic      Atomic             Coordinates (Angstroms)
 Number     Number       Type             X           Y           Z
 ---------------------------------------------------------------------
      1          6           0       -1.553957    1.332095   -0.347034
      2          6           0       -2.556106    1.761240    0.529352
      3          6           0       -3.723954    1.010672    0.694663
      4          6           0       -3.857199   -0.169337   -0.035483
      5          6           0       -2.876698   -0.623320   -0.916282
      6          6           0       -1.717163    0.143280   -1.065787
      7          1           0       -0.649973    1.921381   -0.469313
      8          1           0       -2.432073    2.684078    1.088843
      9          1           0       -4.515635    1.319594    1.366396
     10          1           0       -3.028954   -1.547574   -1.460332
     11          1           0       -0.940542   -0.192442   -1.747106
     12          7           0       -5.089147   -0.972416    0.131158
     13          8           0       -5.182378   -2.008356   -0.523650
     14          8           0       -5.938189   -0.550723    0.913424
     15          6           0        5.027490   -2.045875    0.439250
     16          6           0        4.816911   -1.571435   -0.859628
     17          6           0        4.057657   -0.418381   -1.079968
     18          6           0        3.521391    0.238343    0.026568
     19          6           0        3.713407   -0.209481    1.332659
     20          6           0        4.476038   -1.364585    1.529326
     21          1           0        5.618607   -2.942391    0.601221
     22          1           0        5.243957   -2.098493   -1.708088
     23          1           0        3.878938   -0.029139   -2.074939
     24          1           0        3.274882    0.337419    2.158501
     25          1           0        4.637931   -1.730740    2.539161
     26          7           0        2.715816    1.460115   -0.194165
     27          8           0        2.254191    2.020536    0.797533
     28          8           0        2.561286    1.834183   -1.354696
 ---------------------------------------------------------------------

 SCF Done:  E(RHF) =  -868.340727397     A.U. after   16 cycles
 E2 =    -0.2598543127D+01 EUMP2 =    -0.87093927052408D+03

 The electronic state is 1-A.
 Alpha  occ. eigenvalues --  -20.62015 -20.62001 -20.60239 -20.60232 -15.87013
 Alpha  occ. eigenvalues --  -15.85288 -11.32035 -11.30456 -11.28568 -11.28543
 Alpha  occ. eigenvalues --  -11.28221 -11.27488 -11.27467 -11.27052 -11.27017
 Alpha  occ. eigenvalues --  -11.26483 -11.25933 -11.25879  -1.61080  -1.59320
 Alpha  occ. eigenvalues --   -1.40632  -1.38879  -1.20172  -1.18600  -1.09630
 Alpha  occ. eigenvalues --   -1.07981  -1.05516  -1.03991  -0.96519  -0.94853
 Alpha  occ. eigenvalues --   -0.86930  -0.85367  -0.83360  -0.81712  -0.78451
 Alpha  occ. eigenvalues --   -0.76831  -0.73225  -0.72402  -0.71507  -0.71265
 Alpha  occ. eigenvalues --   -0.70644  -0.69552  -0.65820  -0.65508  -0.64228
 Alpha  occ. eigenvalues --   -0.63968  -0.62865  -0.61356  -0.56023  -0.54308
 Alpha  occ. eigenvalues --   -0.53856  -0.53597  -0.52320  -0.52061  -0.50007
 Alpha  occ. eigenvalues --   -0.49968  -0.48275  -0.48244  -0.46109  -0.44330
 Alpha  occ. eigenvalues --   -0.38127  -0.37103  -0.36497  -0.35626
 Alpha virt. eigenvalues --    0.04009   0.05721   0.10556   0.12049   0.15587
 Alpha virt. eigenvalues --    0.17284   0.20750   0.22411   0.26691   0.27599
 Alpha virt. eigenvalues --    0.28073   0.29372   0.30444   0.31776   0.32221

 Mulliken charges:
               1
     1  C   -0.177273
     2  C   -0.220538
     3  C   -0.172060
     4  C    0.156774
     5  C   -0.172107
     6  C   -0.222307
     7  H    0.249191
     8  H    0.225460
     9  H    0.272996
    10  H    0.271731
    11  H    0.221822
    12  N    0.488311
    13  O   -0.463445
    14  O   -0.462407
    15  C   -0.169284
    16  C   -0.218519
    17  C   -0.171869
    18  C    0.157564
    19  C   -0.169824
    20  C   -0.218363
    21  H    0.228987
    22  H    0.226020
    23  H    0.275317
    24  H    0.276704
    25  H    0.226682
    26  N    0.487090
    27  O   -0.462450
    28  O   -0.464203
 Sum of Mulliken charges =  -0.00000

 Dipole moment (field-independent basis, Debye):
    X=              7.7004    Y=             -1.4417    Z=              0.2668  Tot=              7.8388
 Quadrupole moment (field-independent basis, Debye-Ang):
   XX=           -119.0889   YY=           -106.3535   ZZ=            -98.0981
   XY=            -28.7380   XZ=              3.0372   YZ=              3.0174

 Normal termination of Gaussian 16 at Thu May  6 22:43:50 2021.
