 Gaussian 16, Revision A.03,
 Gaussian 16:  EM64L-G16RevA.03 25-Dec-2016

 -------------
 #p 6-31g* mp2
 -------------

 ------------------------------------------------------
 Input file generated by CHIRIPA (05-May-2021 14:57:22)
 ------------------------------------------------------
 Symbolic Z-matrix:
 Charge =  0 Multiplicity = 1

                         Standard orientation:
 ---------------------------------------------------------------------
 Center     Atomic      Atomic             Coordinates (Angstroms)
 Number     Number       Type             X           Y           Z
 ---------------------------------------------------------------------
      1          6           0       -2.330507    2.303103   -0.299915
      2          6           0       -3.440825    2.006134    0.497283
      3          6           0       -3.899227    0.690587    0.614549
      4          6           0       -3.220440   -0.307832   -0.082372
      5          6           0       -2.111321   -0.043717   -0.884486
      6          6           0       -1.670462    1.279035   -0.987044
      7          1           0       -1.981224    3.327851   -0.385297
      8          1           0       -3.955383    2.799415    1.032055
      9          1           0       -4.756255    0.432657    1.224789
     10          1           0       -1.619014   -0.855827   -1.405571
     11          1           0       -0.807908    1.506728   -1.606884
     12          7           0       -3.696443   -1.704357    0.033987
     13          8           0       -3.081015   -2.565958   -0.590135
     14          8           0       -4.675949   -1.910909    0.747107
     15          6           0        4.184477   -2.219625    0.061727
     16          6           0        3.919145   -1.550443   -1.137571
     17          6           0        3.341755   -0.277232   -1.127499
     18          6           0        3.041205    0.299762    0.105399
     19          6           0        3.293492   -0.341510    1.317180
     20          6           0        3.871355   -1.614091    1.283121
     21          1           0        4.633192   -3.208442    0.044587
     22          1           0        4.161262   -2.018275   -2.087600
     23          1           0        3.125694    0.263284   -2.041052
     24          1           0        3.041005    0.150495    2.248630
     25          1           0        4.076299   -2.131433    2.216073
     26          7           0        2.429697    1.647320    0.128758
     27          8           0        2.174310    2.133999    1.228101
     28          8           0        2.217364    2.191340   -0.952720
 ---------------------------------------------------------------------

 SCF Done:  E(RHF) =  -868.340159863     A.U. after   15 cycles
 E2 =    -0.2598595492D+01 EUMP2 =    -0.87093875535531D+03

 The electronic state is 1-A.
 Alpha  occ. eigenvalues --  -20.61577 -20.61514 -20.60407 -20.60397 -15.86568
 Alpha  occ. eigenvalues --  -15.85450 -11.31660 -11.30609 -11.28218 -11.28168
 Alpha  occ. eigenvalues --  -11.27858 -11.27162 -11.27146 -11.27140 -11.27114
 Alpha  occ. eigenvalues --  -11.26730 -11.26101 -11.25963  -1.60610  -1.59485
 Alpha  occ. eigenvalues --   -1.40173  -1.39044  -1.19801  -1.18739  -1.09242
 Alpha  occ. eigenvalues --   -1.08143  -1.05162  -1.04113  -0.96125  -0.95025
 Alpha  occ. eigenvalues --   -0.86572  -0.85496  -0.82968  -0.81872  -0.78053
 Alpha  occ. eigenvalues --   -0.76969  -0.72798  -0.71916  -0.71672  -0.70898
 Alpha  occ. eigenvalues --   -0.70806  -0.69796  -0.65455  -0.65157  -0.64376
 Alpha  occ. eigenvalues --   -0.64068  -0.62517  -0.61463  -0.55657  -0.54532
 Alpha  occ. eigenvalues --   -0.53503  -0.53248  -0.52451  -0.52176  -0.49572
 Alpha  occ. eigenvalues --   -0.49531  -0.48442  -0.48407  -0.45625  -0.44498
 Alpha  occ. eigenvalues --   -0.37752  -0.36753  -0.36658  -0.35728
 Alpha virt. eigenvalues --    0.04434   0.05554   0.10903   0.11938   0.15974
 Alpha virt. eigenvalues --    0.17123   0.21064   0.22248   0.26974   0.27680
 Alpha virt. eigenvalues --    0.28295   0.29090   0.30633   0.31684   0.32369

 Mulliken charges:
               1
     1  C   -0.167802
     2  C   -0.218886
     3  C   -0.172326
     4  C    0.157937
     5  C   -0.174108
     6  C   -0.224108
     7  H    0.232683
     8  H    0.222349
     9  H    0.273107
    10  H    0.270827
    11  H    0.235657
    12  N    0.488225
    13  O   -0.464096
    14  O   -0.462088
    15  C   -0.169085
    16  C   -0.217804
    17  C   -0.173120
    18  C    0.157766
    19  C   -0.169774
    20  C   -0.217740
    21  H    0.228639
    22  H    0.225333
    23  H    0.272983
    24  H    0.276516
    25  H    0.226209
    26  N    0.488878
    27  O   -0.456820
    28  O   -0.469350
 Sum of Mulliken charges =  -0.00000

 Dipole moment (field-independent basis, Debye):
    X=              4.1379    Y=              0.2435    Z=             -0.3987  Tot=              4.1642
 Quadrupole moment (field-independent basis, Debye-Ang):
   XX=           -101.0963   YY=           -111.0581   ZZ=            -98.3265
   XY=            -32.7200   XZ=             -1.2684   YZ=              0.0849

 Normal termination of Gaussian 16 at Wed May  5 22:36:25 2021.
