 Gaussian 16, Revision A.03,
 Gaussian 16:  EM64L-G16RevA.03 25-Dec-2016

 -------------
 #p 6-31g* mp2
 -------------

 ------------------------------------------------------
 Input file generated by CHIRIPA (05-May-2021 14:57:26)
 ------------------------------------------------------
 Symbolic Z-matrix:
 Charge =  0 Multiplicity = 1

                         Standard orientation:
 ---------------------------------------------------------------------
 Center     Atomic      Atomic             Coordinates (Angstroms)
 Number     Number       Type             X           Y           Z
 ---------------------------------------------------------------------
      1          6           0       -5.807698    1.472217    0.010205
      2          6           0       -4.594248    1.847244    0.596222
      3          6           0       -3.504994    0.970847    0.596308
      4          6           0       -3.664952   -0.278440   -0.001175
      5          6           0       -4.861048   -0.681186   -0.593155
      6          6           0       -5.936997    0.211421   -0.581570
      7          1           0       -6.648689    2.159320    0.014672
      8          1           0       -4.490954    2.825759    1.056532
      9          1           0       -2.554205    1.235506    1.042821
     10          1           0       -4.933675   -1.663318   -1.044332
     11          1           0       -6.878185   -0.082521   -1.037429
     12          7           0       -2.518850   -1.214823   -0.007262
     13          8           0       -2.685390   -2.309790   -0.540131
     14          8           0       -1.475697   -0.836064    0.520951
     15          6           0        3.556493   -2.359612    0.329740
     16          6           0        4.805531   -1.846466   -0.035098
     17          6           0        4.981848   -0.472015   -0.220416
     18          6           0        3.882590    0.364230   -0.031690
     19          6           0        2.625647   -0.116656    0.331809
     20          6           0        2.472449   -1.494595    0.511707
     21          1           0        3.428506   -3.428674    0.471594
     22          1           0        5.649190   -2.515883   -0.177104
     23          1           0        5.937784   -0.047953   -0.502861
     24          1           0        1.803354    0.575595    0.466129
     25          1           0        1.501274   -1.890301    0.795047
     26          7           0        4.057011    1.821147   -0.225009
     27          8           0        3.072769    2.536821   -0.052630
     28          8           0        5.174663    2.219817   -0.545252
 ---------------------------------------------------------------------

 SCF Done:  E(RHF) =  -868.340994545     A.U. after   16 cycles
 E2 =    -0.2598203003D+01 EUMP2 =    -0.87093919754780D+03

 The electronic state is 1-A.
 Alpha  occ. eigenvalues --  -20.61579 -20.61559 -20.60075 -20.60069 -15.86590
 Alpha  occ. eigenvalues --  -15.85114 -11.31619 -11.30224 -11.28152 -11.28136
 Alpha  occ. eigenvalues --  -11.27831 -11.27097 -11.27068 -11.26808 -11.26626
 Alpha  occ. eigenvalues --  -11.26419 -11.25810 -11.25470  -1.60622  -1.59153
 Alpha  occ. eigenvalues --   -1.40187  -1.38714  -1.19760  -1.18353  -1.09218
 Alpha  occ. eigenvalues --   -1.07802  -1.05111  -1.03681  -0.96110  -0.94684
 Alpha  occ. eigenvalues --   -0.86526  -0.85102  -0.82959  -0.81499  -0.78036
 Alpha  occ. eigenvalues --   -0.76576  -0.72836  -0.71911  -0.71343  -0.70866
 Alpha  occ. eigenvalues --   -0.70470  -0.69471  -0.65419  -0.65111  -0.63989
 Alpha  occ. eigenvalues --   -0.63644  -0.62461  -0.61004  -0.55628  -0.54224
 Alpha  occ. eigenvalues --   -0.53458  -0.53199  -0.52074  -0.51740  -0.49587
 Alpha  occ. eigenvalues --   -0.49545  -0.48108  -0.48070  -0.45661  -0.44175
 Alpha  occ. eigenvalues --   -0.37721  -0.36697  -0.36351  -0.35282
 Alpha virt. eigenvalues --    0.04475   0.05896   0.10962   0.12356   0.16036
 Alpha virt. eigenvalues --    0.17462   0.21088   0.22569   0.27039   0.27696
 Alpha virt. eigenvalues --    0.28725   0.29286   0.30785   0.32159   0.32221

 Mulliken charges:
               1
     1  C   -0.169646
     2  C   -0.218424
     3  C   -0.169768
     4  C    0.157644
     5  C   -0.170359
     6  C   -0.218619
     7  H    0.227735
     8  H    0.226678
     9  H    0.276009
    10  H    0.275623
    11  H    0.224819
    12  N    0.491484
    13  O   -0.458153
    14  O   -0.471908
    15  C   -0.172194
    16  C   -0.218763
    17  C   -0.173515
    18  C    0.157894
    19  C   -0.173420
    20  C   -0.223960
    21  H    0.224511
    22  H    0.219507
    23  H    0.271646
    24  H    0.277737
    25  H    0.246362
    26  N    0.488297
    27  O   -0.463605
    28  O   -0.463612
 Sum of Mulliken charges =  -0.00000

 Dipole moment (field-independent basis, Debye):
    X=             -5.2318    Y=             -1.8888    Z=              0.7321  Tot=              5.6103
 Quadrupole moment (field-independent basis, Debye-Ang):
   XX=            -74.7881   YY=           -108.9249   ZZ=           -104.9388
   XY=            -30.5984   XZ=              3.1171   YZ=              2.5595

 Normal termination of Gaussian 16 at Fri May  7 11:12:58 2021.
