 Gaussian 16, Revision A.03,
 Gaussian 16:  EM64L-G16RevA.03 25-Dec-2016

 -------------
 #p 6-31g* mp2
 -------------

 ------------------------------------------------------
 Input file generated by CHIRIPA (05-May-2021 14:51:10)
 ------------------------------------------------------
 Symbolic Z-matrix:
 Charge =  0 Multiplicity = 1

                         Standard orientation:
 ---------------------------------------------------------------------
 Center     Atomic      Atomic             Coordinates (Angstroms)
 Number     Number       Type             X           Y           Z
 ---------------------------------------------------------------------
      1          6           0        3.227000   -0.217799    0.215501
      2          6           0        4.218223   -1.161883   -0.465796
      3          6           0        4.094104   -2.604366    0.025761
      4          1           0        3.385977   -0.251383    1.302029
      5          1           0        2.204944   -0.580043    0.037805
      6          1           0        5.238037   -0.797196   -0.288032
      7          1           0        4.056995   -1.125902   -1.550843
      8          1           0        3.088177   -2.991532   -0.166107
      9          1           0        4.275929   -2.660957    1.103879
     10          1           0        4.811868   -3.262081   -0.474325
     11          6           0        3.338849    1.227865   -0.265409
     12          6           0        2.347626    2.171948    0.415889
     13          6           0        2.471745    3.614432   -0.075668
     14          1           0        4.360905    1.590109   -0.087712
     15          1           0        3.179871    1.261449   -1.351937
     16          1           0        2.508854    2.135968    1.500936
     17          1           0        1.327812    1.807261    0.238125
     18          1           0        2.289920    3.671023   -1.153786
     19          1           0        3.477672    4.001597    0.116200
     20          1           0        1.753980    4.272147    0.424418
     21          6           0       -2.695863   -0.875033   -0.294249
     22          6           0       -1.549633   -1.148682    0.680049
     23          6           0       -0.382555   -1.889519    0.026686
     24          1           0       -3.051088   -1.828088   -0.709516
     25          1           0       -2.315477   -0.287442   -1.141268
     26          1           0       -1.932369   -1.734402    1.525662
     27          1           0       -1.197223   -0.194880    1.093189
     28          1           0        0.026509   -1.306730   -0.804953
     29          1           0       -0.712814   -2.854999   -0.370023
     30          1           0        0.425690   -2.074803    0.741018
     31          6           0       -3.869986   -0.135033    0.344157
     32          6           0       -5.016216    0.138616   -0.630142
     33          6           0       -6.183295    0.879453    0.023221
     34          1           0       -4.250371   -0.722624    1.191175
     35          1           0       -3.514761    0.818022    0.759423
     36          1           0       -5.368626   -0.815186   -1.043281
     37          1           0       -4.633479    0.724336   -1.475755
     38          1           0       -5.853035    1.844934    0.419930
     39          1           0       -6.592358    0.296665    0.854861
     40          1           0       -6.991539    1.064738   -0.691110
 ---------------------------------------------------------------------

 SCF Done:  E(RHF) =  -470.732594126     A.U. after   11 cycles
 E2 =    -0.1583549126D+01 EUMP2 =    -0.47231614325264D+03

 The electronic state is 1-A.
 Alpha  occ. eigenvalues --  -11.21668 -11.21629 -11.21601 -11.21522 -11.21451
 Alpha  occ. eigenvalues --  -11.21388 -11.21333 -11.21191 -11.21145 -11.21091
 Alpha  occ. eigenvalues --  -11.21076 -11.21005  -1.08482  -1.08366  -1.03589
 Alpha  occ. eigenvalues --   -1.03484  -0.96051  -0.95924  -0.87080  -0.86937
 Alpha  occ. eigenvalues --   -0.79692  -0.79521  -0.78295  -0.78172  -0.65185
 Alpha  occ. eigenvalues --   -0.64955  -0.61001  -0.60885  -0.59461  -0.59248
 Alpha  occ. eigenvalues --   -0.57646  -0.57545  -0.55452  -0.55118  -0.52789
 Alpha  occ. eigenvalues --   -0.52625  -0.52462  -0.52346  -0.50104  -0.49778
 Alpha  occ. eigenvalues --   -0.47986  -0.47845  -0.46764  -0.46529  -0.45863
 Alpha  occ. eigenvalues --   -0.45765  -0.45712  -0.45502  -0.43766  -0.43718
 Alpha virt. eigenvalues --    0.20859   0.23065   0.23750   0.24155   0.26219
 Alpha virt. eigenvalues --    0.26822   0.27014   0.27503   0.27637   0.29621
 Alpha virt. eigenvalues --    0.30388   0.31306   0.31808   0.31826   0.32373

 Mulliken charges:
               1
     1  C   -0.309891
     2  C   -0.298531
     3  C   -0.478354
     4  H    0.147944
     5  H    0.164192
     6  H    0.151345
     7  H    0.151249
     8  H    0.158012
     9  H    0.154549
    10  H    0.160004
    11  C   -0.297548
    12  C   -0.300412
    13  C   -0.475607
    14  H    0.149250
    15  H    0.148796
    16  H    0.152018
    17  H    0.151419
    18  H    0.154992
    19  H    0.155448
    20  H    0.159936
    21  C   -0.298653
    22  C   -0.301548
    23  C   -0.481384
    24  H    0.149893
    25  H    0.149457
    26  H    0.152642
    27  H    0.153495
    28  H    0.155306
    29  H    0.156057
    30  H    0.165396
    31  C   -0.298356
    32  C   -0.299684
    33  C   -0.475741
    34  H    0.149706
    35  H    0.149818
    36  H    0.151992
    37  H    0.151933
    38  H    0.155267
    39  H    0.155246
    40  H    0.160346
 Sum of Mulliken charges =  -0.00000

 Dipole moment (field-independent basis, Debye):
    X=             -0.0610    Y=             -0.0326    Z=              0.0093  Tot=              0.0698
 Quadrupole moment (field-independent basis, Debye-Ang):
   XX=            -85.2138   YY=            -85.4150   ZZ=            -84.3651
   XY=              1.0452   XZ=              0.6695   YZ=              0.0029

 Normal termination of Gaussian 16 at Wed May  5 16:41:36 2021.
