 Gaussian 16, Revision A.03,
 Gaussian 16:  EM64L-G16RevA.03 25-Dec-2016

 -------------
 #p 6-31g* mp2
 -------------

 ------------------------------------------------------
 Input file generated by CHIRIPA (05-May-2021 14:55:19)
 ------------------------------------------------------
 Symbolic Z-matrix:
 Charge =  0 Multiplicity = 1

                         Standard orientation:
 ---------------------------------------------------------------------
 Center     Atomic      Atomic             Coordinates (Angstroms)
 Number     Number       Type             X           Y           Z
 ---------------------------------------------------------------------
      1          6           0        2.320914    2.528645    0.636023
      2          6           0        3.646150    2.255359    0.281647
      3          6           0        4.011824    0.985163   -0.173803
      4          6           0        3.022163    0.007454   -0.262937
      5          6           0        1.693409    0.248882    0.082626
      6          6           0        1.350483    1.526301    0.535559
      7          1           0        2.045685    3.518170    0.988850
      8          1           0        4.401908    3.031855    0.358655
      9          1           0        5.030377    0.746370   -0.454777
     10          1           0        0.962250   -0.545585   -0.004821
     11          1           0        0.320511    1.735686    0.810078
     12          7           0        3.397245   -1.341070   -0.743769
     13          8           0        2.506595   -2.185196   -0.813279
     14          8           0        4.574781   -1.528382   -1.042031
     15          6           0       -4.345993   -0.364372   -0.283057
     16          6           0       -5.041336    0.957774   -0.609266
     17          6           0       -6.152762    0.800760   -1.647472
     18          1           0       -3.929744   -0.789985   -1.206386
     19          1           0       -5.092511   -1.082588    0.083372
     20          1           0       -4.293506    1.673721   -0.973664
     21          1           0       -5.455812    1.380384    0.314978
     22          1           0       -6.919924    0.107004   -1.288629
     23          1           0       -5.751014    0.402009   -2.584593
     24          1           0       -6.636374    1.758009   -1.865769
     25          6           0       -3.232492   -0.223676    0.753305
     26          6           0       -2.537148   -1.545823    1.079514
     27          6           0       -1.425722   -1.388809    2.117720
     28          1           0       -2.485974    0.494540    0.386874
     29          1           0       -3.648740    0.201936    1.676634
     30          1           0       -2.122672   -1.968432    0.155270
     31          1           0       -3.284978   -2.261770    1.443911
     32          1           0       -1.827471   -0.990058    3.054841
     33          1           0       -0.658561   -0.695053    1.758877
     34          1           0       -0.942110   -2.346058    2.336017
 ---------------------------------------------------------------------

 SCF Done:  E(RHF) =  -669.535219463     A.U. after   15 cycles
 E2 =    -0.2091951658D+01 EUMP2 =    -0.67162717112103D+03

 The electronic state is 1-A.
 Alpha  occ. eigenvalues --  -20.60758 -20.60753 -15.85811 -11.31175 -11.27756
 Alpha  occ. eigenvalues --  -11.27727 -11.27498 -11.26771 -11.26756 -11.22047
 Alpha  occ. eigenvalues --  -11.21983 -11.21967 -11.21768 -11.21603 -11.21351
 Alpha  occ. eigenvalues --   -1.59833  -1.39386  -1.19356  -1.08893  -1.08749
 Alpha  occ. eigenvalues --   -1.04768  -1.03957  -0.96419  -0.95583  -0.87432
 Alpha  occ. eigenvalues --   -0.86156  -0.82424  -0.80017  -0.78711  -0.77465
 Alpha  occ. eigenvalues --   -0.72032  -0.71156  -0.70476  -0.65545  -0.65009
 Alpha  occ. eigenvalues --   -0.64767  -0.62236  -0.61258  -0.59764  -0.58012
 Alpha  occ. eigenvalues --   -0.55757  -0.55234  -0.53124  -0.53063  -0.52879
 Alpha  occ. eigenvalues --   -0.52775  -0.50359  -0.48789  -0.48784  -0.48326
 Alpha  occ. eigenvalues --   -0.47054  -0.46248  -0.46169  -0.44792  -0.44211
 Alpha  occ. eigenvalues --   -0.37335  -0.36349
 Alpha virt. eigenvalues --    0.05042   0.11290   0.16468   0.18955   0.22839
 Alpha virt. eigenvalues --    0.23759   0.24965   0.26518   0.27322   0.28245
 Alpha virt. eigenvalues --    0.29576   0.29618   0.31404   0.31546   0.31931

 Mulliken charges:
               1
     1  C   -0.170896
     2  C   -0.218634
     3  C   -0.170776
     4  C    0.158045
     5  C   -0.173459
     6  C   -0.221772
     7  H    0.225875
     8  H    0.223492
     9  H    0.275616
    10  H    0.279629
    11  H    0.226293
    12  N    0.488184
    13  O   -0.460552
    14  O   -0.460466
    15  C   -0.298806
    16  C   -0.299718
    17  C   -0.476049
    18  H    0.152407
    19  H    0.152112
    20  H    0.149840
    21  H    0.151758
    22  H    0.156382
    23  H    0.156672
    24  H    0.160687
    25  C   -0.297907
    26  C   -0.303405
    27  C   -0.479383
    28  H    0.139700
    29  H    0.150503
    30  H    0.157070
    31  H    0.156267
    32  H    0.156473
    33  H    0.144992
    34  H    0.169825
 Sum of Mulliken charges =  -0.00000

 Dipole moment (field-independent basis, Debye):
    X=             -1.4361    Y=              4.6392    Z=              1.6986  Tot=              5.1449
 Quadrupole moment (field-independent basis, Debye-Ang):
   XX=            -97.8916   YY=            -94.4980   ZZ=            -96.3378
   XY=             16.6538   XZ=              3.8388   YZ=             -1.6210

 Normal termination of Gaussian 16 at Thu May  6 10:48:53 2021.
