 Gaussian 16, Revision A.03,
 Gaussian 16:  EM64L-G16RevA.03 25-Dec-2016

 -------------
 #p 6-31g* mp2
 -------------

 ------------------------------------------------------
 Input file generated by CHIRIPA (05-May-2021 14:55:24)
 ------------------------------------------------------
 Symbolic Z-matrix:
 Charge =  0 Multiplicity = 1

                         Standard orientation:
 ---------------------------------------------------------------------
 Center     Atomic      Atomic             Coordinates (Angstroms)
 Number     Number       Type             X           Y           Z
 ---------------------------------------------------------------------
      1          6           0       -1.361146    2.699326   -0.179538
      2          6           0       -1.837095    2.015261   -1.302948
      3          6           0       -2.473853    0.778410   -1.164069
      4          6           0       -2.618358    0.252558    0.118852
      5          6           0       -2.154930    0.909856    1.257485
      6          6           0       -1.521301    2.145416    1.094846
      7          1           0       -0.867713    3.659640   -0.296652
      8          1           0       -1.714109    2.443027   -2.293875
      9          1           0       -2.851820    0.227430   -2.016700
     10          1           0       -2.292206    0.458077    2.232405
     11          1           0       -1.152670    2.674427    1.969091
     12          7           0       -3.290809   -1.056157    0.278454
     13          8           0       -3.405726   -1.498024    1.419588
     14          8           0       -3.690227   -1.615282   -0.740605
     15          6           0        3.721077   -0.041176   -0.219909
     16          6           0        5.068416   -0.325087    0.444966
     17          6           0        6.081057    0.800739    0.233141
     18          1           0        3.876403    0.116552   -1.295985
     19          1           0        3.314409    0.898752    0.178276
     20          1           0        5.471773   -1.264911    0.046657
     21          1           0        4.909840   -0.482347    1.519553
     22          1           0        5.703417    1.741428    0.646777
     23          1           0        6.268542    0.954416   -0.834489
     24          1           0        7.037075    0.577050    0.716725
     25          6           0        2.698199   -1.157545   -0.017014
     26          6           0        1.350860   -0.873634   -0.681888
     27          6           0        0.338219   -1.999460   -0.470064
     28          1           0        3.104867   -2.097473   -0.415199
     29          1           0        2.542873   -1.315273    1.059063
     30          1           0        1.509436   -0.716375   -1.756477
     31          1           0        0.947504    0.066190   -0.283580
     32          1           0        0.150734   -2.153137    0.597566
     33          1           0        0.715858   -2.940149   -0.883699
     34          1           0       -0.617799   -1.775771   -0.953647
 ---------------------------------------------------------------------

 SCF Done:  E(RHF) =  -669.535603961     A.U. after   15 cycles
 E2 =    -0.2093840088D+01 EUMP2 =    -0.67162944404898D+03

 The electronic state is 1-A.
 Alpha  occ. eigenvalues --  -20.60857 -20.60851 -15.85876 -11.31234 -11.27819
 Alpha  occ. eigenvalues --  -11.27801 -11.27570 -11.26861 -11.26839 -11.21746
 Alpha  occ. eigenvalues --  -11.21535 -11.21509 -11.21379 -11.21265 -11.20798
 Alpha  occ. eigenvalues --   -1.59909  -1.39467  -1.19429  -1.08825  -1.08488
 Alpha  occ. eigenvalues --   -1.04833  -1.03549  -0.95999  -0.95655  -0.87013
 Alpha  occ. eigenvalues --   -0.86230  -0.82490  -0.79619  -0.78302  -0.77535
 Alpha  occ. eigenvalues --   -0.72109  -0.71242  -0.70536  -0.65127  -0.65084
 Alpha  occ. eigenvalues --   -0.64836  -0.62181  -0.60958  -0.59394  -0.57643
 Alpha  occ. eigenvalues --   -0.55341  -0.55301  -0.53194  -0.52925  -0.52592
 Alpha  occ. eigenvalues --   -0.52384  -0.49937  -0.48869  -0.48867  -0.47940
 Alpha  occ. eigenvalues --   -0.46655  -0.45838  -0.45760  -0.44870  -0.43793
 Alpha  occ. eigenvalues --   -0.37357  -0.36422
 Alpha virt. eigenvalues --    0.04993   0.11147   0.16486   0.21338   0.22744
 Alpha virt. eigenvalues --    0.24154   0.26524   0.27192   0.27400   0.27685
 Alpha virt. eigenvalues --    0.28366   0.30709   0.31285   0.31587   0.31767

 Mulliken charges:
               1
     1  C   -0.171316
     2  C   -0.216575
     3  C   -0.173142
     4  C    0.161808
     5  C   -0.171751
     6  C   -0.218857
     7  H    0.226093
     8  H    0.224043
     9  H    0.275674
    10  H    0.275685
    11  H    0.223740
    12  N    0.490595
    13  O   -0.458933
    14  O   -0.460111
    15  C   -0.297198
    16  C   -0.299591
    17  C   -0.475440
    18  H    0.148801
    19  H    0.145461
    20  H    0.153263
    21  H    0.151989
    22  H    0.153103
    23  H    0.154984
    24  H    0.160923
    25  C   -0.298052
    26  C   -0.302903
    27  C   -0.480858
    28  H    0.150755
    29  H    0.149524
    30  H    0.148531
    31  H    0.153044
    32  H    0.157835
    33  H    0.157219
    34  H    0.161658
 Sum of Mulliken charges =  -0.00000

 Dipole moment (field-independent basis, Debye):
    X=              2.2636    Y=              4.5969    Z=             -0.5398  Tot=              5.1523
 Quadrupole moment (field-independent basis, Debye-Ang):
   XX=           -108.6026   YY=            -93.2274   ZZ=            -89.2481
   XY=            -12.3566   XZ=              2.2825   YZ=              1.0890

 Normal termination of Gaussian 16 at Thu May  6 11:04:03 2021.
