 Gaussian 16, Revision A.03,
 Gaussian 16:  EM64L-G16RevA.03 25-Dec-2016

 -------------
 #p 6-31g* mp2
 -------------

 ------------------------------------------------------
 Input file generated by CHIRIPA (05-May-2021 14:53:15)
 ------------------------------------------------------
 Symbolic Z-matrix:
 Charge =  0 Multiplicity = 1

                         Standard orientation:
 ---------------------------------------------------------------------
 Center     Atomic      Atomic             Coordinates (Angstroms)
 Number     Number       Type             X           Y           Z
 ---------------------------------------------------------------------
      1          6           0       -3.196968    0.808697   -0.019041
      2          6           0       -3.305572    1.928347   -1.054692
      3          6           0       -2.619388    3.218473   -0.604668
      4          1           0       -3.638242    1.149430    0.927596
      5          1           0       -2.135868    0.608882    0.184763
      6          1           0       -4.366134    2.125042   -1.257509
      7          1           0       -2.864160    1.584840   -1.999030
      8          1           0       -1.554240    3.044413   -0.420920
      9          1           0       -3.064749    3.587684    0.324815
     10          1           0       -2.709198    4.005483   -1.359922
     11          6           0       -3.878141   -0.487492   -0.454501
     12          6           0       -3.769537   -1.607143    0.581150
     13          6           0       -4.455721   -2.897268    0.131126
     14          1           0       -4.939241   -0.287677   -0.658305
     15          1           0       -3.436867   -0.828225   -1.401138
     16          1           0       -4.210949   -1.263636    1.525488
     17          1           0       -2.708975   -1.803837    0.783967
     18          1           0       -4.010360   -3.266480   -0.798357
     19          1           0       -5.520869   -2.723209   -0.052622
     20          1           0       -4.365911   -3.684279    0.886380
     21          6           0        4.393696   -0.649294   -1.668315
     22          6           0        4.857706   -0.138727   -0.451541
     23          6           0        3.963637    0.155135    0.582303
     24          6           0        2.606134   -0.074829    0.364146
     25          6           0        2.113018   -0.582580   -0.836818
     26          6           0        3.025246   -0.869202   -1.856737
     27          1           0        5.095284   -0.874761   -2.466020
     28          1           0        5.919916    0.033062   -0.302395
     29          1           0        4.295671    0.551228    1.534291
     30          1           0        1.048386   -0.743240   -0.955843
     31          1           0        2.662040   -1.265628   -2.800651
     32          7           0        1.650010    0.232438    1.451260
     33          8           0        0.458918    0.020900    1.234031
     34          8           0        2.109798    0.678992    2.499984
 ---------------------------------------------------------------------

 SCF Done:  E(RHF) =  -669.536118170     A.U. after   15 cycles
 E2 =    -0.2091235806D+01 EUMP2 =    -0.67162735397685D+03

 The electronic state is 1-A.
 Alpha  occ. eigenvalues --  -20.60988 -20.60970 -15.86022 -11.31329 -11.27898
 Alpha  occ. eigenvalues --  -11.27885 -11.27624 -11.26897 -11.26886 -11.20904
 Alpha  occ. eigenvalues --  -11.20810 -11.20654 -11.20526 -11.20377 -11.20297
 Alpha  occ. eigenvalues --   -1.60043  -1.39600  -1.19497  -1.08902  -1.07627
 Alpha  occ. eigenvalues --   -1.04893  -1.02817  -0.95747  -0.95265  -0.86294
 Alpha  occ. eigenvalues --   -0.86284  -0.82584  -0.78866  -0.77664  -0.77370
 Alpha  occ. eigenvalues --   -0.72245  -0.71357  -0.70606  -0.65157  -0.64895
 Alpha  occ. eigenvalues --   -0.64259  -0.62242  -0.60228  -0.58633  -0.56866
 Alpha  occ. eigenvalues --   -0.55395  -0.54559  -0.53224  -0.52985  -0.51999
 Alpha  occ. eigenvalues --   -0.51682  -0.49220  -0.49001  -0.48986  -0.47188
 Alpha  occ. eigenvalues --   -0.45912  -0.45105  -0.44978  -0.44690  -0.43036
 Alpha  occ. eigenvalues --   -0.37474  -0.36493
 Alpha virt. eigenvalues --    0.04875   0.11161   0.16360   0.21054   0.23353
 Alpha virt. eigenvalues --    0.24977   0.26545   0.27414   0.27882   0.28503
 Alpha virt. eigenvalues --    0.29094   0.31106   0.32058   0.32398   0.32596

 Mulliken charges:
               1
     1  C   -0.310387
     2  C   -0.298192
     3  C   -0.474933
     4  H    0.149829
     5  H    0.175248
     6  H    0.148623
     7  H    0.144978
     8  H    0.158073
     9  H    0.156441
    10  H    0.155199
    11  C   -0.296670
    12  C   -0.301034
    13  C   -0.475047
    14  H    0.145983
    15  H    0.142156
    16  H    0.153036
    17  H    0.160173
    18  H    0.150785
    19  H    0.153282
    20  H    0.159234
    21  C   -0.170565
    22  C   -0.218494
    23  C   -0.170753
    24  C    0.157774
    25  C   -0.170578
    26  C   -0.218442
    27  H    0.226182
    28  H    0.223994
    29  H    0.275994
    30  H    0.274951
    31  H    0.224009
    32  N    0.494769
    33  O   -0.467370
    34  O   -0.458249
 Sum of Mulliken charges =  -0.00000

 Dipole moment (field-independent basis, Debye):
    X=              3.6534    Y=             -1.0761    Z=             -3.6518  Tot=              5.2765
 Quadrupole moment (field-independent basis, Debye-Ang):
   XX=            -74.7406   YY=            -96.3568   ZZ=            -96.2606
   XY=             -2.6130   XZ=             -7.4599   YZ=              1.1043

 Normal termination of Gaussian 16 at Thu May  6 13:48:48 2021.
