 Gaussian 16, Revision A.03,
 Gaussian 16:  EM64L-G16RevA.03 25-Dec-2016

 -------------
 #p 6-31g* mp2
 -------------

 ------------------------------------------------------
 Input file generated by CHIRIPA (05-May-2021 14:53:11)
 ------------------------------------------------------
 Symbolic Z-matrix:
 Charge =  0 Multiplicity = 1

                         Standard orientation:
 ---------------------------------------------------------------------
 Center     Atomic      Atomic             Coordinates (Angstroms)
 Number     Number       Type             X           Y           Z
 ---------------------------------------------------------------------
      1          6           0       -2.004147    1.113533   -0.000206
      2          6           0       -1.917482    2.601785   -0.340178
      3          6           0       -0.534594    3.192017   -0.062615
      4          1           0       -1.748564    0.970319    1.058619
      5          1           0       -1.248009    0.567260   -0.580927
      6          1           0       -2.674484    3.144906    0.239980
      7          1           0       -2.173487    2.741495   -1.398270
      8          1           0        0.229915    2.676185   -0.652569
      9          1           0       -0.273929    3.081888    0.994989
     10          1           0       -0.494979    4.256794   -0.312697
     11          6           0       -3.380512    0.509113   -0.272280
     12          6           0       -3.467177   -0.979139    0.067692
     13          6           0       -4.850065   -1.569371   -0.209871
     14          1           0       -4.136650    1.055386    0.308440
     15          1           0       -3.636095    0.652328   -1.331106
     16          1           0       -3.211172   -1.118849    1.125783
     17          1           0       -2.710175   -1.522260   -0.512466
     18          1           0       -5.110730   -1.459242   -1.267475
     19          1           0       -5.614574   -1.053539    0.380083
     20          1           0       -4.889679   -2.634148    0.040211
     21          6           0        0.762098   -2.767505    0.226346
     22          6           0        1.881135   -2.690169   -0.609294
     23          6           0        2.631722   -1.513040   -0.683684
     24          6           0        2.233053   -0.427572    0.094848
     25          6           0        1.123094   -0.473593    0.936966
     26          6           0        0.387309   -1.660921    0.995454
     27          1           0        0.184773   -3.685889    0.277957
     28          1           0        2.174536   -3.547981   -1.207726
     29          1           0        3.502425   -1.425789   -1.322183
     30          1           0        0.855233    0.398131    1.521574
     31          1           0       -0.481290   -1.718111    1.645307
     32          7           0        3.019831    0.824001    0.024512
     33          8           0        2.647819    1.766272    0.720479
     34          8           0        3.993620    0.839014   -0.725251
 ---------------------------------------------------------------------

 SCF Done:  E(RHF) =  -669.534269952     A.U. after   15 cycles
 E2 =    -0.2095172708D+01 EUMP2 =    -0.67162944265959D+03

 The electronic state is 1-A.
 Alpha  occ. eigenvalues --  -20.60817 -20.60788 -15.85831 -11.31159 -11.27730
 Alpha  occ. eigenvalues --  -11.27687 -11.27463 -11.26737 -11.26678 -11.22242
 Alpha  occ. eigenvalues --  -11.21759 -11.21624 -11.21614 -11.21476 -11.20530
 Alpha  occ. eigenvalues --   -1.59870  -1.39425  -1.19339  -1.08761  -1.08708
 Alpha  occ. eigenvalues --   -1.04729  -1.03718  -0.96119  -0.95579  -0.87136
 Alpha  occ. eigenvalues --   -0.86125  -0.82412  -0.79823  -0.78625  -0.77386
 Alpha  occ. eigenvalues --   -0.72054  -0.71194  -0.70440  -0.65371  -0.64983
 Alpha  occ. eigenvalues --   -0.64730  -0.62076  -0.61112  -0.59573  -0.57747
 Alpha  occ. eigenvalues --   -0.55397  -0.55233  -0.53196  -0.52856  -0.52753
 Alpha  occ. eigenvalues --   -0.52464  -0.50074  -0.48839  -0.48814  -0.48084
 Alpha  occ. eigenvalues --   -0.46886  -0.46085  -0.45973  -0.44690  -0.43978
 Alpha  occ. eigenvalues --   -0.37324  -0.36210
 Alpha virt. eigenvalues --    0.05054   0.11189   0.16466   0.20076   0.22894
 Alpha virt. eigenvalues --    0.23474   0.24722   0.26517   0.27068   0.28420
 Alpha virt. eigenvalues --    0.29560   0.30484   0.31439   0.31547   0.32140

 Mulliken charges:
               1
     1  C   -0.301167
     2  C   -0.301518
     3  C   -0.473535
     4  H    0.137670
     5  H    0.155793
     6  H    0.150308
     7  H    0.151763
     8  H    0.160580
     9  H    0.156634
    10  H    0.161678
    11  C   -0.297112
    12  C   -0.301965
    13  C   -0.475383
    14  H    0.150839
    15  H    0.152213
    16  H    0.143828
    17  H    0.151455
    18  H    0.157680
    19  H    0.157412
    20  H    0.157895
    21  C   -0.172950
    22  C   -0.219020
    23  C   -0.171473
    24  C    0.155668
    25  C   -0.169384
    26  C   -0.216603
    27  H    0.225812
    28  H    0.223145
    29  H    0.275251
    30  H    0.278398
    31  H    0.226792
    32  N    0.487489
    33  O   -0.457992
    34  O   -0.460202
 Sum of Mulliken charges =  -0.00000

 Dipole moment (field-independent basis, Debye):
    X=             -2.7051    Y=             -4.2905    Z=              0.1863  Tot=              5.0755
 Quadrupole moment (field-independent basis, Debye-Ang):
   XX=           -106.6588   YY=            -90.6365   ZZ=            -92.1359
   XY=            -10.7038   XZ=             -2.2265   YZ=              1.2261

 Normal termination of Gaussian 16 at Thu May  6 00:53:02 2021.
