 Gaussian 16, Revision A.03,
 Gaussian 16:  EM64L-G16RevA.03 25-Dec-2016

 -------------
 #p 6-31g* mp2
 -------------

 ------------------------------------------------------
 Input file generated by CHIRIPA (05-May-2021 14:57:25)
 ------------------------------------------------------
 Symbolic Z-matrix:
 Charge =  0 Multiplicity = 1

                         Standard orientation:
 ---------------------------------------------------------------------
 Center     Atomic      Atomic             Coordinates (Angstroms)
 Number     Number       Type             X           Y           Z
 ---------------------------------------------------------------------
      1          6           0        2.056569    1.522431    0.002481
      2          6           0        2.058131    0.152246   -0.278787
      3          6           0        3.258025   -0.564512   -0.311373
      4          6           0        4.443276    0.123716   -0.056794
      5          6           0        4.474420    1.488302    0.226448
      6          6           0        3.262592    2.184918    0.253757
      7          1           0        1.119827    2.071403    0.025745
      8          1           0        1.123029   -0.364856   -0.474322
      9          1           0        3.288089   -1.625761   -0.526466
     10          1           0        5.422500    1.976316    0.417249
     11          1           0        3.264403    3.248970    0.472471
     12          7           0        5.719867   -0.624422   -0.088498
     13          8           0        6.750631    0.005092    0.139264
     14          8           0        5.665523   -1.826159   -0.340509
     15          6           0       -6.504133    0.722083   -0.466285
     16          6           0       -5.621455    0.412580   -1.506289
     17          6           0       -4.360485   -0.124787   -1.231084
     18          6           0       -4.013302   -0.340708    0.101632
     19          6           0       -4.870576   -0.042709    1.159729
     20          6           0       -6.126542    0.493852    0.861065
     21          1           0       -7.481741    1.139209   -0.689182
     22          1           0       -5.912014    0.588765   -2.538073
     23          1           0       -3.657592   -0.373542   -2.016884
     24          1           0       -4.552651   -0.229519    2.178279
     25          1           0       -6.809991    0.733257    1.670773
     26          7           0       -2.681018   -0.909168    0.405397
     27          8           0       -2.399028   -1.089956    1.587952
     28          8           0       -1.943992   -1.163175   -0.544819
 ---------------------------------------------------------------------

 SCF Done:  E(RHF) =  -868.340168532     A.U. after   16 cycles
 E2 =    -0.2598340682D+01 EUMP2 =    -0.87093850921395D+03

 The electronic state is 1-A.
 Alpha  occ. eigenvalues --  -20.61846 -20.61820 -20.60027 -20.60015 -15.86847
 Alpha  occ. eigenvalues --  -15.85067 -11.31962 -11.30280 -11.28502 -11.28484
 Alpha  occ. eigenvalues --  -11.28181 -11.27448 -11.27435 -11.26860 -11.26717
 Alpha  occ. eigenvalues --  -11.26500 -11.25888 -11.25561  -1.60893  -1.59102
 Alpha  occ. eigenvalues --   -1.40451  -1.38659  -1.20107  -1.18412  -1.09548
 Alpha  occ. eigenvalues --   -1.07839  -1.05468  -1.03768  -0.96423  -0.94709
 Alpha  occ. eigenvalues --   -0.86877  -0.85171  -0.83262  -0.81529  -0.78341
 Alpha  occ. eigenvalues --   -0.76595  -0.73069  -0.72199  -0.71291  -0.71204
 Alpha  occ. eigenvalues --   -0.70421  -0.69539  -0.65759  -0.65462  -0.64055
 Alpha  occ. eigenvalues --   -0.63724  -0.62815  -0.61095  -0.55970  -0.54296
 Alpha  occ. eigenvalues --   -0.53815  -0.53551  -0.52137  -0.51829  -0.49838
 Alpha  occ. eigenvalues --   -0.49801  -0.48055  -0.48030  -0.45905  -0.44099
 Alpha  occ. eigenvalues --   -0.38072  -0.37061  -0.36402  -0.35367
 Alpha virt. eigenvalues --    0.04147   0.05893   0.10597   0.12282   0.15688
 Alpha virt. eigenvalues --    0.17440   0.20782   0.22503   0.26716   0.27621
 Alpha virt. eigenvalues --    0.28569   0.29193   0.30386   0.31793   0.32171

 Mulliken charges:
               1
     1  C   -0.172209
     2  C   -0.225857
     3  C   -0.173081
     4  C    0.158378
     5  C   -0.173333
     6  C   -0.218615
     7  H    0.222889
     8  H    0.247536
     9  H    0.276010
    10  H    0.272099
    11  H    0.218967
    12  N    0.488072
    13  O   -0.463574
    14  O   -0.461137
    15  C   -0.169845
    16  C   -0.218567
    17  C   -0.171323
    18  C    0.156855
    19  C   -0.170685
    20  C   -0.218601
    21  H    0.228180
    22  H    0.225626
    23  H    0.275363
    24  H    0.276843
    25  H    0.225850
    26  N    0.488546
    27  O   -0.456107
    28  O   -0.468283
 Sum of Mulliken charges =  -0.00000

 Dipole moment (field-independent basis, Debye):
    X=             -9.7776    Y=              4.5469    Z=             -0.9378  Tot=             10.8239
 Quadrupole moment (field-independent basis, Debye-Ang):
   XX=           -106.7252   YY=           -103.3025   ZZ=           -100.7209
   XY=              6.4151   XZ=              3.9868   YZ=              1.6175

 Normal termination of Gaussian 16 at Fri May  7 05:02:41 2021.
