 Gaussian 16, Revision A.03,
 Gaussian 16:  EM64L-G16RevA.03 25-Dec-2016

 -------------
 #p 6-31g* mp2
 -------------

 ------------------------------------------------------
 Input file generated by CHIRIPA (05-May-2021 14:51:08)
 ------------------------------------------------------
 Symbolic Z-matrix:
 Charge =  0 Multiplicity = 1

                         Standard orientation:
 ---------------------------------------------------------------------
 Center     Atomic      Atomic             Coordinates (Angstroms)
 Number     Number       Type             X           Y           Z
 ---------------------------------------------------------------------
      1          6           0       -4.031635    0.557452    0.010952
      2          6           0       -3.629299    2.018470   -0.192859
      3          6           0       -4.640607    2.998671    0.402335
      4          1           0       -5.018193    0.388830   -0.442055
      5          1           0       -4.143963    0.361934    1.086382
      6          1           0       -3.516417    2.210812   -1.267512
      7          1           0       -2.643499    2.183586    0.260518
      8          1           0       -4.747166    2.835482    1.479654
      9          1           0       -5.625043    2.862863   -0.057058
     10          1           0       -4.333312    4.037309    0.245293
     11          6           0       -3.030545   -0.434494   -0.578615
     12          6           0       -3.432881   -1.895511   -0.374804
     13          6           0       -2.421574   -2.875713   -0.969998
     14          1           0       -2.918218   -0.238976   -1.654045
     15          1           0       -2.043987   -0.265872   -0.125609
     16          1           0       -4.418681   -2.060628   -0.828181
     17          1           0       -3.545764   -2.087853    0.699848
     18          1           0       -1.437137   -2.739904   -0.510606
     19          1           0       -2.315014   -2.712524   -2.047317
     20          1           0       -2.728868   -3.914350   -0.812956
     21          6           0        4.013623    0.528750    0.236689
     22          6           0        5.116419    0.328808   -0.803432
     23          6           0        6.073805    1.518088   -0.886004
     24          1           0        3.449327    1.439332   -0.006943
     25          1           0        4.473276    0.699585    1.220015
     26          1           0        4.654805    0.157026   -1.784258
     27          1           0        5.678034   -0.581507   -0.557404
     28          1           0        6.561103    1.688117    0.079517
     29          1           0        5.532061    2.430847   -1.154307
     30          1           0        6.854171    1.353976   -1.635641
     31          6           0        3.048557   -0.651710    0.330975
     32          6           0        1.945762   -0.451767    1.371096
     33          6           0        0.988375   -1.641047    1.453667
     34          1           0        2.588905   -0.822543   -0.652351
     35          1           0        3.612853   -1.562290    0.574607
     36          1           0        1.384146    0.458549    1.125067
     37          1           0        2.407376   -0.279985    2.351921
     38          1           0        1.530120   -2.553805    1.721970
     39          1           0        0.501077   -1.811076    0.488146
     40          1           0        0.208010   -1.476934    2.203305
 ---------------------------------------------------------------------

 SCF Done:  E(RHF) =  -470.733276318     A.U. after   11 cycles
 E2 =    -0.1582719116D+01 EUMP2 =    -0.47231599543458D+03

 The electronic state is 1-A.
 Alpha  occ. eigenvalues --  -11.21658 -11.21613 -11.21604 -11.21567 -11.21431
 Alpha  occ. eigenvalues --  -11.21390 -11.21370 -11.21330 -11.21142 -11.21080
 Alpha  occ. eigenvalues --  -11.21072 -11.21006  -1.08462  -1.08413  -1.03574
 Alpha  occ. eigenvalues --   -1.03504  -0.96029  -0.95952  -0.87053  -0.86963
 Alpha  occ. eigenvalues --   -0.79660  -0.79548  -0.78276  -0.78224  -0.65136
 Alpha  occ. eigenvalues --   -0.65006  -0.61077  -0.60813  -0.59385  -0.59328
 Alpha  occ. eigenvalues --   -0.57675  -0.57537  -0.55417  -0.55156  -0.52718
 Alpha  occ. eigenvalues --   -0.52651  -0.52526  -0.52313  -0.50094  -0.49792
 Alpha  occ. eigenvalues --   -0.48022  -0.47819  -0.46770  -0.46484  -0.45855
 Alpha  occ. eigenvalues --   -0.45761  -0.45727  -0.45597  -0.43819  -0.43765
 Alpha virt. eigenvalues --    0.20938   0.23150   0.23579   0.24703   0.25991
 Alpha virt. eigenvalues --    0.26842   0.26995   0.27404   0.28076   0.29052
 Alpha virt. eigenvalues --    0.30361   0.31527   0.31688   0.31789   0.32196

 Mulliken charges:
               1
     1  C   -0.298200
     2  C   -0.299586
     3  C   -0.475685
     4  H    0.149699
     5  H    0.149550
     6  H    0.151794
     7  H    0.151631
     8  H    0.155226
     9  H    0.155219
    10  H    0.160177
    11  C   -0.300628
    12  C   -0.298765
    13  C   -0.482886
    14  H    0.149050
    15  H    0.151752
    16  H    0.151724
    17  H    0.152005
    18  H    0.162419
    19  H    0.154449
    20  H    0.160345
    21  C   -0.298369
    22  C   -0.299715
    23  C   -0.475736
    24  H    0.149774
    25  H    0.149534
    26  H    0.152099
    27  H    0.151984
    28  H    0.155174
    29  H    0.155232
    30  H    0.160328
    31  C   -0.298595
    32  C   -0.299674
    33  C   -0.482598
    34  H    0.150070
    35  H    0.149825
    36  H    0.151839
    37  H    0.152216
    38  H    0.155966
    39  H    0.161307
    40  H    0.160046
 Sum of Mulliken charges =  -0.00000

 Dipole moment (field-independent basis, Debye):
    X=              0.0313    Y=             -0.0070    Z=              0.0095  Tot=              0.0334
 Quadrupole moment (field-independent basis, Debye-Ang):
   XX=            -85.1868   YY=            -85.9195   ZZ=            -83.6724
   XY=             -0.3806   XZ=              1.2330   YZ=             -0.5406

 Normal termination of Gaussian 16 at Thu May  6 02:04:47 2021.
