 Gaussian 16, Revision A.03,
 Gaussian 16:  EM64L-G16RevA.03 25-Dec-2016

 -------------
 #p 6-31g* mp2
 -------------

 ------------------------------------------------------
 Input file generated by CHIRIPA (05-May-2021 14:51:14)
 ------------------------------------------------------
 Symbolic Z-matrix:
 Charge =  0 Multiplicity = 1

                         Standard orientation:
 ---------------------------------------------------------------------
 Center     Atomic      Atomic             Coordinates (Angstroms)
 Number     Number       Type             X           Y           Z
 ---------------------------------------------------------------------
      1          6           0        2.822347   -0.226865   -0.505383
      2          6           0        4.143477   -0.905328   -0.869099
      3          6           0        3.955209   -2.341134   -1.359823
      4          1           0        2.315520   -0.817416    0.270066
      5          1           0        2.161837   -0.231581   -1.383506
      6          1           0        4.801821   -0.898100    0.009051
      7          1           0        4.647307   -0.312991   -1.643636
      8          1           0        3.319330   -2.363493   -2.250754
      9          1           0        3.474722   -2.951927   -0.588678
     10          1           0        4.912244   -2.807171   -1.614292
     11          6           0        2.994137    1.209050   -0.013080
     12          6           0        1.673007    1.887513    0.350636
     13          6           0        1.861275    3.323319    0.841360
     14          1           0        3.654647    1.213766    0.865043
     15          1           0        3.500963    1.799601   -0.788529
     16          1           0        1.169177    1.295176    1.125173
     17          1           0        1.014663    1.880285   -0.527514
     18          1           0        2.341762    3.934111    0.070215
     19          1           0        2.497154    3.345677    1.732292
     20          1           0        0.904240    3.789355    1.095829
     21          6           0       -2.579778   -1.095153    0.591878
     22          6           0       -1.507106   -0.716045    1.613464
     23          6           0       -0.859191   -1.935245    2.270390
     24          1           0       -3.351569   -1.699936    1.087378
     25          1           0       -2.130577   -1.733944   -0.181142
     26          1           0       -1.957880   -0.077025    2.383575
     27          1           0       -0.737877   -0.111934    1.115518
     28          1           0       -0.383724   -2.571618    1.517022
     29          1           0       -1.610660   -2.536511    2.792285
     30          1           0       -0.095436   -1.641271    2.997108
     31          6           0       -3.236706    0.112968   -0.073415
     32          6           0       -4.309377   -0.266139   -1.095001
     33          6           0       -4.957293    0.953061   -1.751927
     34          1           0       -3.685906    0.751759    0.699606
     35          1           0       -2.464914    0.717752   -0.568916
     36          1           0       -5.078607   -0.870251   -0.597054
     37          1           0       -3.858603   -0.905159   -1.865112
     38          1           0       -4.205823    1.554327   -2.273822
     39          1           0       -5.432760    1.589434   -0.998559
     40          1           0       -5.721047    0.659087   -2.478646
 ---------------------------------------------------------------------

 SCF Done:  E(RHF) =  -470.733297441     A.U. after   11 cycles
 E2 =    -0.1583177899D+01 EUMP2 =    -0.47231647533967D+03

 The electronic state is 1-A.
 Alpha  occ. eigenvalues --  -11.21633 -11.21632 -11.21585 -11.21523 -11.21444
 Alpha  occ. eigenvalues --  -11.21385 -11.21374 -11.21313 -11.21097 -11.21094
 Alpha  occ. eigenvalues --  -11.21077 -11.21062  -1.08475  -1.08396  -1.03570
 Alpha  occ. eigenvalues --   -1.03502  -0.96009  -0.95964  -0.87030  -0.86975
 Alpha  occ. eigenvalues --   -0.79704  -0.79515  -0.78349  -0.78148  -0.65148
 Alpha  occ. eigenvalues --   -0.64990  -0.61016  -0.60862  -0.59417  -0.59294
 Alpha  occ. eigenvalues --   -0.57626  -0.57570  -0.55298  -0.55249  -0.52707
 Alpha  occ. eigenvalues --   -0.52657  -0.52440  -0.52385  -0.49993  -0.49874
 Alpha  occ. eigenvalues --   -0.48133  -0.47797  -0.46824  -0.46485  -0.46026
 Alpha  occ. eigenvalues --   -0.45762  -0.45709  -0.45318  -0.43816  -0.43758
 Alpha virt. eigenvalues --    0.21027   0.23225   0.23806   0.23956   0.25817
 Alpha virt. eigenvalues --    0.26314   0.27127   0.27897   0.28217   0.29425
 Alpha virt. eigenvalues --    0.30294   0.31546   0.31689   0.31869   0.32031

 Mulliken charges:
               1
     1  C   -0.300237
     2  C   -0.299570
     3  C   -0.475805
     4  H    0.151417
     5  H    0.148907
     6  H    0.152156
     7  H    0.152089
     8  H    0.154985
     9  H    0.155349
    10  H    0.160447
    11  C   -0.297774
    12  C   -0.306212
    13  C   -0.475230
    14  H    0.149623
    15  H    0.149762
    16  H    0.159036
    17  H    0.151051
    18  H    0.155165
    19  H    0.155214
    20  H    0.160749
    21  C   -0.297557
    22  C   -0.308811
    23  C   -0.476038
    24  H    0.149301
    25  H    0.149567
    26  H    0.151167
    27  H    0.161763
    28  H    0.155392
    29  H    0.155380
    30  H    0.159113
    31  C   -0.298555
    32  C   -0.299645
    33  C   -0.475657
    34  H    0.149363
    35  H    0.149940
    36  H    0.151933
    37  H    0.151859
    38  H    0.155011
    39  H    0.155163
    40  H    0.160189
 Sum of Mulliken charges =  -0.00000

 Dipole moment (field-independent basis, Debye):
    X=              0.0290    Y=              0.0162    Z=              0.0006  Tot=              0.0332
 Quadrupole moment (field-independent basis, Debye-Ang):
   XX=            -84.5995   YY=            -86.3938   ZZ=            -83.8061
   XY=              0.4153   XZ=             -0.7242   YZ=             -0.2242

 Normal termination of Gaussian 16 at Wed May  5 16:54:01 2021.
