 Gaussian 16, Revision A.03,
 Gaussian 16:  EM64L-G16RevA.03 25-Dec-2016

 -------------
 #p 6-31g* mp2
 -------------

 ------------------------------------------------------
 Input file generated by CHIRIPA (05-May-2021 14:57:25)
 ------------------------------------------------------
 Symbolic Z-matrix:
 Charge =  0 Multiplicity = 1

                         Standard orientation:
 ---------------------------------------------------------------------
 Center     Atomic      Atomic             Coordinates (Angstroms)
 Number     Number       Type             X           Y           Z
 ---------------------------------------------------------------------
      1          6           0       -5.278529    0.074679    0.643226
      2          6           0       -4.873754   -0.967136   -0.197786
      3          6           0       -3.552822   -1.042586   -0.649441
      4          6           0       -2.659006   -0.054866   -0.238596
      5          6           0       -3.031877    0.995496    0.598659
      6          6           0       -4.357921    1.050949    1.038068
      7          1           0       -6.306646    0.125523    0.989326
      8          1           0       -5.586545   -1.726711   -0.506039
      9          1           0       -3.212621   -1.838204   -1.301111
     10          1           0       -2.298519    1.738023    0.888932
     11          1           0       -4.669461    1.861181    1.691147
     12          7           0       -1.257889   -0.124156   -0.710261
     13          8           0       -0.489697    0.758399   -0.333946
     14          8           0       -0.954415   -1.059710   -1.447337
     15          6           0        3.108191   -2.382482    0.819006
     16          6           0        2.893129   -1.407916    1.799052
     17          6           0        2.770661   -0.060758    1.445904
     18          6           0        2.868827    0.277976    0.097233
     19          6           0        3.082739   -0.669771   -0.902420
     20          6           0        3.202143   -2.010954   -0.526230
     21          1           0        3.202137   -3.426666    1.102289
     22          1           0        2.819742   -1.693543    2.844555
     23          1           0        2.603850    0.714222    2.184143
     24          1           0        3.151451   -0.354415   -1.936463
     25          1           0        3.369130   -2.765666   -1.289494
     26          7           0        2.740796    1.700989   -0.288825
     27          8           0        2.831030    1.973554   -1.483900
     28          8           0        2.552637    2.516837    0.610966
 ---------------------------------------------------------------------

 SCF Done:  E(RHF) =  -868.338681942     A.U. after   16 cycles
 E2 =    -0.2600975589D+01 EUMP2 =    -0.87093965753101D+03

 The electronic state is 1-A.
 Alpha  occ. eigenvalues --  -20.60919 -20.60870 -20.59225 -20.59200 -15.85924
 Alpha  occ. eigenvalues --  -15.84273 -11.31219 -11.29637 -11.27805 -11.27738
 Alpha  occ. eigenvalues --  -11.27525 -11.26802 -11.26760 -11.26300 -11.26205
 Alpha  occ. eigenvalues --  -11.26115 -11.25420 -11.25324  -1.59951  -1.58251
 Alpha  occ. eigenvalues --   -1.39508  -1.37827  -1.19387  -1.17841  -1.08801
 Alpha  occ. eigenvalues --   -1.07255  -1.04777  -1.03301  -0.95648  -0.94097
 Alpha  occ. eigenvalues --   -0.86180  -0.84710  -0.82483  -0.80967  -0.77527
 Alpha  occ. eigenvalues --   -0.75978  -0.72227  -0.71256  -0.70546  -0.70496
 Alpha  occ. eigenvalues --   -0.69428  -0.69057  -0.65040  -0.64781  -0.63553
 Alpha  occ. eigenvalues --   -0.63379  -0.62119  -0.60684  -0.55293  -0.53883
 Alpha  occ. eigenvalues --   -0.53117  -0.52868  -0.51616  -0.51452  -0.48906
 Alpha  occ. eigenvalues --   -0.48883  -0.47288  -0.47267  -0.44930  -0.43253
 Alpha  occ. eigenvalues --   -0.37374  -0.36380  -0.35778  -0.34878
 Alpha virt. eigenvalues --    0.04996   0.06664   0.11276   0.12767   0.16501
 Alpha virt. eigenvalues --    0.18092   0.21425   0.22628   0.27342   0.28327
 Alpha virt. eigenvalues --    0.28507   0.29544   0.30983   0.32085   0.32593

 Mulliken charges:
               1
     1  C   -0.170638
     2  C   -0.218842
     3  C   -0.171046
     4  C    0.157720
     5  C   -0.171194
     6  C   -0.218931
     7  H    0.225684
     8  H    0.222913
     9  H    0.274219
    10  H    0.280433
    11  H    0.224658
    12  N    0.491382
    13  O   -0.460987
    14  O   -0.463000
    15  C   -0.172371
    16  C   -0.220803
    17  C   -0.170963
    18  C    0.176353
    19  C   -0.160708
    20  C   -0.215653
    21  H    0.218701
    22  H    0.215639
    23  H    0.269513
    24  H    0.274031
    25  H    0.218882
    26  N    0.496337
    27  O   -0.462695
    28  O   -0.468634
 Sum of Mulliken charges =  -0.00000

 Dipole moment (field-independent basis, Debye):
    X=             -4.7616    Y=             -4.5936    Z=              2.8226  Tot=              7.1932
 Quadrupole moment (field-independent basis, Debye-Ang):
   XX=            -77.8808   YY=           -105.3111   ZZ=           -100.4721
   XY=            -13.7716   XZ=             -0.1634   YZ=              3.8177

 Normal termination of Gaussian 16 at Fri May  7 00:24:29 2021.
