 Gaussian 16, Revision A.03,
 Gaussian 16:  EM64L-G16RevA.03 25-Dec-2016

 -------------
 #p 6-31g* mp2
 -------------

 ------------------------------------------------------
 Input file generated by CHIRIPA (05-May-2021 14:55:21)
 ------------------------------------------------------
 Symbolic Z-matrix:
 Charge =  0 Multiplicity = 1

                         Standard orientation:
 ---------------------------------------------------------------------
 Center     Atomic      Atomic             Coordinates (Angstroms)
 Number     Number       Type             X           Y           Z
 ---------------------------------------------------------------------
      1          6           0       -0.733622   -0.160410    1.412749
      2          6           0       -1.009254    0.899892    0.543089
      3          6           0       -2.221040    0.951217   -0.152245
      4          6           0       -3.138583   -0.079216    0.046784
      5          6           0       -2.893192   -1.148910    0.906334
      6          6           0       -1.674811   -1.179630    1.591281
      7          1           0        0.210284   -0.192277    1.948867
      8          1           0       -0.280181    1.692815    0.402482
      9          1           0       -2.460215    1.760340   -0.831608
     10          1           0       -3.639642   -1.924757    1.025883
     11          1           0       -1.463455   -2.004303    2.266031
     12          7           0       -4.424937   -0.035787   -0.683837
     13          8           0       -5.216684   -0.955907   -0.491087
     14          8           0       -4.617078    0.917551   -1.435413
     15          6           0        3.953244    0.845396   -0.236420
     16          6           0        2.844613    1.801757    0.204369
     17          6           0        3.274374    3.268242    0.154131
     18          1           0        4.832861    0.993367    0.404923
     19          1           0        4.264734    1.102359   -1.258348
     20          1           0        2.534346    1.542189    1.224651
     21          1           0        1.967465    1.651357   -0.437976
     22          1           0        3.564701    3.549963   -0.863191
     23          1           0        4.134803    3.440173    0.808882
     24          1           0        2.466762    3.934424    0.473232
     25          6           0        3.538792   -0.624281   -0.191610
     26          6           0        4.647421   -1.580642   -0.632399
     27          6           0        4.217662   -3.047126   -0.582160
     28          1           0        3.227300   -0.881244    0.830319
     29          1           0        2.659173   -0.772253   -0.832954
     30          1           0        5.524570   -1.430243    0.009946
     31          1           0        4.957688   -1.321073   -1.652681
     32          1           0        3.357231   -3.219058   -1.236912
     33          1           0        3.927333   -3.328848    0.435162
     34          1           0        5.025274   -3.713308   -0.901262
 ---------------------------------------------------------------------

 SCF Done:  E(RHF) =  -669.535480485     A.U. after   15 cycles
 E2 =    -0.2091846463D+01 EUMP2 =    -0.67162732694739D+03

 The electronic state is 1-A.
 Alpha  occ. eigenvalues --  -20.60712 -20.60706 -15.85764 -11.31111 -11.27682
 Alpha  occ. eigenvalues --  -11.27667 -11.27397 -11.26689 -11.26620 -11.22825
 Alpha  occ. eigenvalues --  -11.22325 -11.22289 -11.22228 -11.22054 -11.21665
 Alpha  occ. eigenvalues --   -1.59788  -1.39342  -1.19278  -1.09349  -1.08670
 Alpha  occ. eigenvalues --   -1.04683  -1.04413  -0.96824  -0.95512  -0.87842
 Alpha  occ. eigenvalues --   -0.86078  -0.82347  -0.80531  -0.79167  -0.77393
 Alpha  occ. eigenvalues --   -0.71982  -0.71111  -0.70378  -0.65978  -0.64926
 Alpha  occ. eigenvalues --   -0.64694  -0.62082  -0.61773  -0.60202  -0.58450
 Alpha  occ. eigenvalues --   -0.56089  -0.55168  -0.53530  -0.53249  -0.53009
 Alpha  occ. eigenvalues --   -0.52777  -0.50757  -0.48852  -0.48739  -0.48684
 Alpha  occ. eigenvalues --   -0.47544  -0.46679  -0.46589  -0.44752  -0.44662
 Alpha  occ. eigenvalues --   -0.37245  -0.36280
 Alpha virt. eigenvalues --    0.05129   0.11290   0.16598   0.19581   0.22425
 Alpha virt. eigenvalues --    0.23312   0.24374   0.25720   0.26511   0.28273
 Alpha virt. eigenvalues --    0.29563   0.30017   0.30850   0.31537   0.31709

 Mulliken charges:
               1
     1  C   -0.172872
     2  C   -0.223069
     3  C   -0.172358
     4  C    0.158623
     5  C   -0.171146
     6  C   -0.218788
     7  H    0.227324
     8  H    0.231118
     9  H    0.275235
    10  H    0.275255
    11  H    0.223068
    12  N    0.488052
    13  O   -0.460695
    14  O   -0.460715
    15  C   -0.297803
    16  C   -0.307030
    17  C   -0.476568
    18  H    0.152508
    19  H    0.153892
    20  H    0.145487
    21  H    0.150965
    22  H    0.159923
    23  H    0.159306
    24  H    0.159155
    25  C   -0.299739
    26  C   -0.300295
    27  C   -0.476263
    28  H    0.143203
    29  H    0.152940
    30  H    0.153123
    31  H    0.154658
    32  H    0.157105
    33  H    0.153422
    34  H    0.162978
 Sum of Mulliken charges =  -0.00000

 Dipole moment (field-independent basis, Debye):
    X=              4.7843    Y=             -0.1514    Z=              2.4836  Tot=              5.3926
 Quadrupole moment (field-independent basis, Debye-Ang):
   XX=           -122.6625   YY=            -92.1656   ZZ=            -93.2880
   XY=              1.4156   XZ=             -8.5929   YZ=             -2.4765

 Normal termination of Gaussian 16 at Thu May  6 20:46:38 2021.
