 Gaussian 16, Revision A.03,
 Gaussian 16:  EM64L-G16RevA.03 25-Dec-2016

 -------------
 #p 6-31g* mp2
 -------------

 ------------------------------------------------------
 Input file generated by CHIRIPA (05-May-2021 14:55:20)
 ------------------------------------------------------
 Symbolic Z-matrix:
 Charge =  0 Multiplicity = 1

                         Standard orientation:
 ---------------------------------------------------------------------
 Center     Atomic      Atomic             Coordinates (Angstroms)
 Number     Number       Type             X           Y           Z
 ---------------------------------------------------------------------
      1          6           0        4.436585    1.129278   -0.143529
      2          6           0        3.288042    1.549229    0.535450
      3          6           0        2.193701    0.690923    0.677841
      4          6           0        2.282440   -0.586277    0.126321
      5          6           0        3.412829   -1.033910   -0.555687
      6          6           0        4.495209   -0.158680   -0.685975
      7          1           0        5.282049    1.802605   -0.249441
      8          1           0        3.239709    2.548917    0.957744
      9          1           0        1.292245    0.990247    1.198610
     10          1           0        3.431452   -2.036320   -0.965864
     11          1           0        5.385893   -0.487522   -1.213790
     12          7           0        1.130241   -1.503885    0.270657
     13          8           0        1.233376   -2.624143   -0.224340
     14          8           0        0.145830   -1.085474    0.876052
     15          6           0       -3.752471    0.069707   -0.108570
     16          6           0       -3.323354   -1.397649   -0.081857
     17          6           0       -4.510603   -2.360031   -0.036581
     18          1           0       -4.364948    0.282218    0.778366
     19          1           0       -4.397278    0.240086   -0.981834
     20          1           0       -2.678422   -1.564893    0.790329
     21          1           0       -2.711667   -1.606642   -0.968861
     22          1           0       -5.151887   -2.222190   -0.913140
     23          1           0       -5.118452   -2.180204    0.856046
     24          1           0       -4.181050   -3.403541   -0.018044
     25          6           0       -2.576710    1.044006   -0.153912
     26          6           0       -3.005827    2.511361   -0.180626
     27          6           0       -1.818577    3.473745   -0.225902
     28          1           0       -1.931902    0.873627    0.719351
     29          1           0       -1.964233    0.831495   -1.040848
     30          1           0       -3.617513    2.720355    0.706379
     31          1           0       -3.650759    2.678606   -1.052812
     32          1           0       -1.210728    3.293917   -1.118529
     33          1           0       -1.177294    3.335904    0.650657
     34          1           0       -2.148130    4.517254   -0.244438
 ---------------------------------------------------------------------

 SCF Done:  E(RHF) =  -669.535846517     A.U. after   15 cycles
 E2 =    -0.2092564090D+01 EUMP2 =    -0.67162841060767D+03

 The electronic state is 1-A.
 Alpha  occ. eigenvalues --  -20.60970 -20.60943 -15.85979 -11.31281 -11.27843
 Alpha  occ. eigenvalues --  -11.27838 -11.27576 -11.26846 -11.26833 -11.21066
 Alpha  occ. eigenvalues --  -11.20928 -11.20396 -11.20290 -11.19977 -11.19845
 Alpha  occ. eigenvalues --   -1.60012  -1.39571  -1.19447  -1.08857  -1.07454
 Alpha  occ. eigenvalues --   -1.04840  -1.02615  -0.95705  -0.95134  -0.86242
 Alpha  occ. eigenvalues --   -0.86169  -0.82547  -0.78698  -0.77638  -0.77099
 Alpha  occ. eigenvalues --   -0.72206  -0.71317  -0.70558  -0.65108  -0.64844
 Alpha  occ. eigenvalues --   -0.64093  -0.62189  -0.60026  -0.58551  -0.56687
 Alpha  occ. eigenvalues --   -0.55347  -0.54458  -0.53173  -0.52932  -0.51874
 Alpha  occ. eigenvalues --   -0.51560  -0.49192  -0.48978  -0.48945  -0.46961
 Alpha  occ. eigenvalues --   -0.45710  -0.45244  -0.44625  -0.44304  -0.42837
 Alpha  occ. eigenvalues --   -0.37425  -0.36438
 Alpha virt. eigenvalues --    0.04919   0.11208   0.16406   0.20765   0.23357
 Alpha virt. eigenvalues --    0.24767   0.26379   0.27541   0.27884   0.28813
 Alpha virt. eigenvalues --    0.29385   0.31089   0.31724   0.32390   0.32743

 Mulliken charges:
               1
     1  C   -0.170531
     2  C   -0.218759
     3  C   -0.170436
     4  C    0.157331
     5  C   -0.170649
     6  C   -0.218685
     7  H    0.226008
     8  H    0.224255
     9  H    0.276541
    10  H    0.275691
    11  H    0.223726
    12  N    0.492146
    13  O   -0.459225
    14  O   -0.462238
    15  C   -0.299040
    16  C   -0.301048
    17  C   -0.476181
    18  H    0.145082
    19  H    0.143600
    20  H    0.174938
    21  H    0.151797
    22  H    0.148959
    23  H    0.150307
    24  H    0.161159
    25  C   -0.299270
    26  C   -0.298974
    27  C   -0.474047
    28  H    0.162279
    29  H    0.145780
    30  H    0.150436
    31  H    0.150344
    32  H    0.153357
    33  H    0.146837
    34  H    0.158509
 Sum of Mulliken charges =  -0.00000

 Dipole moment (field-independent basis, Debye):
    X=              4.3359    Y=              3.0410    Z=             -0.4193  Tot=              5.3126
 Quadrupole moment (field-independent basis, Debye-Ang):
   XX=            -77.1891   YY=            -97.6383   ZZ=            -93.3001
   XY=              2.6824   XZ=             -2.4272   YZ=              2.7946

 Normal termination of Gaussian 16 at Thu May  6 10:49:53 2021.
