 Gaussian 16, Revision A.03,
 Gaussian 16:  EM64L-G16RevA.03 25-Dec-2016

 -------------
 #p 6-31g* mp2
 -------------

 ------------------------------------------------------
 Input file generated by CHIRIPA (05-May-2021 14:53:11)
 ------------------------------------------------------
 Symbolic Z-matrix:
 Charge =  0 Multiplicity = 1

                         Standard orientation:
 ---------------------------------------------------------------------
 Center     Atomic      Atomic             Coordinates (Angstroms)
 Number     Number       Type             X           Y           Z
 ---------------------------------------------------------------------
      1          6           0       -4.491645   -0.391222   -0.015281
      2          6           0       -3.946312   -1.793356    0.257880
      3          6           0       -5.049428   -2.847163    0.359963
      4          1           0       -5.191903   -0.114757    0.784813
      5          1           0       -5.072742   -0.406605   -0.947742
      6          1           0       -3.365261   -1.775023    1.188825
      7          1           0       -3.247124   -2.066438   -0.542857
      8          1           0       -5.624056   -2.894748   -0.570703
      9          1           0       -5.742864   -2.601677    1.170817
     10          1           0       -4.637360   -3.842062    0.555501
     11          6           0       -3.400919    0.673240   -0.120003
     12          6           0       -3.946251    2.075374   -0.393163
     13          6           0       -2.843135    3.129181   -0.495247
     14          1           0       -2.819821    0.688623    0.812459
     15          1           0       -2.700660    0.396775   -0.920097
     16          1           0       -4.645439    2.348456    0.407573
     17          1           0       -4.527302    2.057041   -1.324109
     18          1           0       -2.149699    2.883695   -1.306101
     19          1           0       -2.268508    3.176765    0.435420
     20          1           0       -3.255203    4.124080   -0.690785
     21          6           0        0.591195    0.153440    0.348108
     22          6           0        1.094881   -0.565362   -0.740994
     23          6           0        2.473711   -0.717819   -0.914575
     24          6           0        3.323934   -0.135648    0.024300
     25          6           0        2.852724    0.586314    1.119755
     26          6           0        1.470174    0.725975    1.273376
     27          1           0       -0.481359    0.266902    0.475197
     28          1           0        0.414614   -1.011086   -1.461142
     29          1           0        2.890670   -1.269173   -1.748585
     30          1           0        3.555724    1.019191    1.821059
     31          1           0        1.081837    1.284742    2.120146
     32          7           0        4.785609   -0.290273   -0.148897
     33          8           0        5.513653    0.232281    0.692249
     34          8           0        5.175549   -0.931095   -1.122515
 ---------------------------------------------------------------------

 SCF Done:  E(RHF) =  -669.535473783     A.U. after   15 cycles
 E2 =    -0.2091834807D+01 EUMP2 =    -0.67162730859045D+03

 The electronic state is 1-A.
 Alpha  occ. eigenvalues --  -20.60675 -20.60670 -15.85729 -11.31063 -11.27644
 Alpha  occ. eigenvalues --  -11.27640 -11.27266 -11.26631 -11.26619 -11.22783
 Alpha  occ. eigenvalues --  -11.22639 -11.22613 -11.22427 -11.22046 -11.21850
 Alpha  occ. eigenvalues --   -1.59752  -1.39306  -1.19232  -1.09562  -1.08619
 Alpha  occ. eigenvalues --   -1.04639  -1.04527  -0.96984  -0.95463  -0.87992
 Alpha  occ. eigenvalues --   -0.86032  -0.82313  -0.80605  -0.79444  -0.77364
 Alpha  occ. eigenvalues --   -0.71947  -0.71076  -0.70314  -0.66181  -0.64879
 Alpha  occ. eigenvalues --   -0.64649  -0.61995  -0.61909  -0.60353  -0.58617
 Alpha  occ. eigenvalues --   -0.56273  -0.55158  -0.53611  -0.53371  -0.52963
 Alpha  occ. eigenvalues --   -0.52729  -0.50917  -0.48905  -0.48704  -0.48701
 Alpha  occ. eigenvalues --   -0.47641  -0.46886  -0.46862  -0.44826  -0.44719
 Alpha  occ. eigenvalues --   -0.37189  -0.36254
 Alpha virt. eigenvalues --    0.05173   0.11395   0.16647   0.19739   0.22520
 Alpha virt. eigenvalues --    0.23337   0.24320   0.25470   0.26953   0.28019
 Alpha virt. eigenvalues --    0.29943   0.30373   0.30723   0.31018   0.31473

 Mulliken charges:
               1
     1  C   -0.297362
     2  C   -0.300961
     3  C   -0.476205
     4  H    0.153475
     5  H    0.153514
     6  H    0.151064
     7  H    0.148542
     8  H    0.157244
     9  H    0.157423
    10  H    0.163083
    11  C   -0.305508
    12  C   -0.299325
    13  C   -0.477518
    14  H    0.144493
    15  H    0.146059
    16  H    0.155482
    17  H    0.156195
    18  H    0.156780
    19  H    0.151573
    20  H    0.165782
    21  C   -0.177445
    22  C   -0.223163
    23  C   -0.170642
    24  C    0.157800
    25  C   -0.170563
    26  C   -0.222024
    27  H    0.240739
    28  H    0.222578
    29  H    0.274983
    30  H    0.275047
    31  H    0.222551
    32  N    0.488054
    33  O   -0.460845
    34  O   -0.460899
 Sum of Mulliken charges =  -0.00000

 Dipole moment (field-independent basis, Debye):
    X=             -5.5108    Y=              0.5807    Z=              0.5813  Tot=              5.5718
 Quadrupole moment (field-independent basis, Debye-Ang):
   XX=           -128.7859   YY=            -94.3373   ZZ=            -90.5198
   XY=              2.3396   XZ=              2.7439   YZ=              2.6530

 Normal termination of Gaussian 16 at Wed May  5 23:17:49 2021.
