 Gaussian 16, Revision A.03,
 Gaussian 16:  EM64L-G16RevA.03 25-Dec-2016

 -------------
 #p 6-31g* mp2
 -------------

 ------------------------------------------------------
 Input file generated by CHIRIPA (05-May-2021 14:53:16)
 ------------------------------------------------------
 Symbolic Z-matrix:
 Charge =  0 Multiplicity = 1

                         Standard orientation:
 ---------------------------------------------------------------------
 Center     Atomic      Atomic             Coordinates (Angstroms)
 Number     Number       Type             X           Y           Z
 ---------------------------------------------------------------------
      1          6           0        3.445450    0.765956   -0.456729
      2          6           0        2.288350    1.652894   -0.917647
      3          6           0        2.759384    2.994943   -1.478739
      4          1           0        4.027112    1.300391    0.306812
      5          1           0        4.124898    0.592581   -1.302711
      6          1           0        1.610556    1.823406   -0.071398
      7          1           0        1.709263    1.116210   -1.680041
      8          1           0        3.418403    2.842619   -2.339606
      9          1           0        3.319136    3.553833   -0.721824
     10          1           0        1.916090    3.613064   -1.802224
     11          6           0        2.990516   -0.579152    0.106697
     12          6           0        4.147617   -1.466090    0.567615
     13          6           0        3.676583   -2.808139    1.128707
     14          1           0        2.311069   -0.405777    0.952679
     15          1           0        2.408855   -1.113586   -0.656844
     16          1           0        4.726704   -0.929406    1.330009
     17          1           0        4.825411   -1.636602   -0.278634
     18          1           0        3.116831   -3.367029    0.371792
     19          1           0        3.017564   -2.655815    1.989574
     20          1           0        4.519876   -3.426260    1.452192
     21          6           0       -1.857798    1.285234    2.159239
     22          6           0       -3.208942    1.104611    1.845697
     23          6           0       -3.584145    0.353994    0.727509
     24          6           0       -2.577493   -0.204277   -0.058798
     25          6           0       -1.222829   -0.042284    0.227442
     26          6           0       -0.870795    0.712221    1.350536
     27          1           0       -1.575330    1.869842    3.029780
     28          1           0       -3.977615    1.548451    2.471949
     29          1           0       -4.622666    0.198306    0.461700
     30          1           0       -0.479261   -0.497044   -0.415768
     31          1           0        0.179305    0.850834    1.591619
     32          7           0       -2.962440   -1.000980   -1.245170
     33          8           0       -2.056429   -1.482418   -1.921924
     34          8           0       -4.162885   -1.128911   -1.475831
 ---------------------------------------------------------------------

 SCF Done:  E(RHF) =  -669.535029048     A.U. after   15 cycles
 E2 =    -0.2092980232D+01 EUMP2 =    -0.67162800927969D+03

 The electronic state is 1-A.
 Alpha  occ. eigenvalues --  -20.60719 -20.60714 -15.85771 -11.31106 -11.27697
 Alpha  occ. eigenvalues --  -11.27646 -11.27435 -11.26705 -11.26650 -11.22273
 Alpha  occ. eigenvalues --  -11.22196 -11.22112 -11.22007 -11.21554 -11.21446
 Alpha  occ. eigenvalues --   -1.59794  -1.39349  -1.19287  -1.09094  -1.08690
 Alpha  occ. eigenvalues --   -1.04686  -1.04079  -0.96521  -0.95526  -0.87533
 Alpha  occ. eigenvalues --   -0.86091  -0.82375  -0.80167  -0.78981  -0.77372
 Alpha  occ. eigenvalues --   -0.71991  -0.71116  -0.70397  -0.65811  -0.64936
 Alpha  occ. eigenvalues --   -0.64642  -0.62057  -0.61461  -0.59883  -0.58142
 Alpha  occ. eigenvalues --   -0.55805  -0.55203  -0.53191  -0.53051  -0.52903
 Alpha  occ. eigenvalues --   -0.52803  -0.50462  -0.48752  -0.48747  -0.48466
 Alpha  occ. eigenvalues --   -0.47198  -0.46416  -0.46352  -0.44760  -0.44368
 Alpha  occ. eigenvalues --   -0.37276  -0.36261
 Alpha virt. eigenvalues --    0.05107   0.11306   0.16500   0.19433   0.22949
 Alpha virt. eigenvalues --    0.23893   0.24246   0.24809   0.27446   0.28429
 Alpha virt. eigenvalues --    0.30274   0.30797   0.31400   0.31485   0.31737

 Mulliken charges:
               1
     1  C   -0.298053
     2  C   -0.306707
     3  C   -0.475675
     4  H    0.149642
     5  H    0.154666
     6  H    0.145337
     7  H    0.157670
     8  H    0.158743
     9  H    0.154588
    10  H    0.163189
    11  C   -0.306009
    12  C   -0.299577
    13  C   -0.476909
    14  H    0.140968
    15  H    0.155386
    16  H    0.152144
    17  H    0.155871
    18  H    0.159467
    19  H    0.153543
    20  H    0.162545
    21  C   -0.171661
    22  C   -0.218896
    23  C   -0.170453
    24  C    0.157979
    25  C   -0.172721
    26  C   -0.223544
    27  H    0.225329
    28  H    0.223048
    29  H    0.275311
    30  H    0.280002
    31  H    0.228316
    32  N    0.488098
    33  O   -0.460917
    34  O   -0.460720
 Sum of Mulliken charges =  -0.00000

 Dipole moment (field-independent basis, Debye):
    X=              1.5375    Y=              2.7693    Z=              4.0598  Tot=              5.1492
 Quadrupole moment (field-independent basis, Debye-Ang):
   XX=            -96.5153   YY=            -97.0981   ZZ=            -94.9365
   XY=             -8.8734   XZ=            -12.3930   YZ=             -0.0779

 Normal termination of Gaussian 16 at Thu May  6 15:32:41 2021.
