 Gaussian 16, Revision A.03,
 Gaussian 16:  EM64L-G16RevA.03 25-Dec-2016

 -------------
 #p 6-31g* mp2
 -------------

 ------------------------------------------------------
 Input file generated by CHIRIPA (05-May-2021 14:55:22)
 ------------------------------------------------------
 Symbolic Z-matrix:
 Charge =  0 Multiplicity = 1

                         Standard orientation:
 ---------------------------------------------------------------------
 Center     Atomic      Atomic             Coordinates (Angstroms)
 Number     Number       Type             X           Y           Z
 ---------------------------------------------------------------------
      1          6           0       -0.971873    1.539017   -0.140624
      2          6           0       -2.094661    2.150513    0.426775
      3          6           0       -3.330768    1.497427    0.434893
      4          6           0       -3.408514    0.227893   -0.135659
      5          6           0       -2.308008   -0.407639   -0.708612
      6          6           0       -1.081936    0.264141   -0.705511
      7          1           0       -0.015534    2.053611   -0.142573
      8          1           0       -2.012137    3.140538    0.866189
      9          1           0       -4.216012    1.947635    0.867413
     10          1           0       -2.421373   -1.395185   -1.139097
     11          1           0       -0.211644   -0.213186   -1.146866
     12          7           0       -4.711813   -0.473395   -0.133003
     13          8           0       -4.754051   -1.591315   -0.642030
     14          8           0       -5.666423    0.108134    0.378055
     15          6           0        4.583200    0.134395    0.267162
     16          6           0        5.847642   -0.012467   -0.579951
     17          6           0        6.828691    1.143634   -0.383054
     18          1           0        4.089357    1.083057    0.015957
     19          1           0        4.865853    0.200195    1.326960
     20          1           0        5.562598   -0.079361   -1.637727
     21          1           0        6.338430   -0.960980   -0.326838
     22          1           0        7.141674    1.209203    0.664010
     23          1           0        6.361432    2.095832   -0.654328
     24          1           0        7.725380    1.018397   -0.997973
     25          6           0        3.592710   -1.013688    0.081245
     26          6           0        2.328267   -0.866825    0.928358
     27          6           0        1.347219   -2.022926    0.731461
     28          1           0        3.310056   -1.079487   -0.978553
     29          1           0        4.086553   -1.962350    0.332450
     30          1           0        1.837479    0.081688    0.675245
     31          1           0        2.613312   -0.799932    1.986135
     32          1           0        1.814477   -2.975124    1.002734
     33          1           0        1.034235   -2.088496   -0.315603
     34          1           0        0.450529   -1.897690    1.346381
 ---------------------------------------------------------------------

 SCF Done:  E(RHF) =  -669.534659154     A.U. after   15 cycles
 E2 =    -0.2092694831D+01 EUMP2 =    -0.67162735398526D+03

 The electronic state is 1-A.
 Alpha  occ. eigenvalues --  -20.60750 -20.60745 -15.85802 -11.31175 -11.27731
 Alpha  occ. eigenvalues --  -11.27719 -11.27473 -11.26760 -11.26714 -11.22538
 Alpha  occ. eigenvalues --  -11.22238 -11.22216 -11.22127 -11.21912 -11.21620
 Alpha  occ. eigenvalues --   -1.59825  -1.39378  -1.19343  -1.09230  -1.08738
 Alpha  occ. eigenvalues --   -1.04758  -1.04281  -0.96729  -0.95573  -0.87747
 Alpha  occ. eigenvalues --   -0.86141  -0.82406  -0.80357  -0.79027  -0.77454
 Alpha  occ. eigenvalues --   -0.72021  -0.71148  -0.70458  -0.65959  -0.64993
 Alpha  occ. eigenvalues --   -0.64748  -0.62271  -0.61494  -0.60085  -0.58328
 Alpha  occ. eigenvalues --   -0.56061  -0.55242  -0.53439  -0.53178  -0.52973
 Alpha  occ. eigenvalues --   -0.52802  -0.50662  -0.48783  -0.48776  -0.48653
 Alpha  occ. eigenvalues --   -0.47423  -0.46565  -0.46499  -0.44782  -0.44535
 Alpha  occ. eigenvalues --   -0.37311  -0.36316
 Alpha virt. eigenvalues --    0.05062   0.11228   0.16506   0.19240   0.22738
 Alpha virt. eigenvalues --    0.23798   0.24927   0.25628   0.27066   0.28461
 Alpha virt. eigenvalues --    0.28821   0.29911   0.30983   0.31502   0.31963

 Mulliken charges:
               1
     1  C   -0.173200
     2  C   -0.218692
     3  C   -0.171321
     4  C    0.158431
     5  C   -0.173328
     6  C   -0.214327
     7  H    0.225459
     8  H    0.223388
     9  H    0.275499
    10  H    0.275705
    11  H    0.227138
    12  N    0.488089
    13  O   -0.460273
    14  O   -0.460514
    15  C   -0.297573
    16  C   -0.300123
    17  C   -0.476002
    18  H    0.144868
    19  H    0.151848
    20  H    0.151989
    21  H    0.154097
    22  H    0.156300
    23  H    0.154382
    24  H    0.162371
    25  C   -0.298526
    26  C   -0.302992
    27  C   -0.476859
    28  H    0.146228
    29  H    0.153980
    30  H    0.142924
    31  H    0.157289
    32  H    0.160556
    33  H    0.145209
    34  H    0.167978
 Sum of Mulliken charges =  -0.00000

 Dipole moment (field-independent basis, Debye):
    X=              4.7293    Y=              2.3959    Z=              0.0793  Tot=              5.3021
 Quadrupole moment (field-independent basis, Debye-Ang):
   XX=           -125.5657   YY=            -91.0619   ZZ=            -93.6729
   XY=            -10.3162   XZ=             -1.2328   YZ=              1.2092

 Normal termination of Gaussian 16 at Thu May  6 06:15:22 2021.
