 Gaussian 16, Revision A.03,
 Gaussian 16:  EM64L-G16RevA.03 25-Dec-2016

 -------------
 #p 6-31g* mp2
 -------------

 ------------------------------------------------------
 Input file generated by CHIRIPA (05-May-2021 14:51:09)
 ------------------------------------------------------
 Symbolic Z-matrix:
 Charge =  0 Multiplicity = 1

                         Standard orientation:
 ---------------------------------------------------------------------
 Center     Atomic      Atomic             Coordinates (Angstroms)
 Number     Number       Type             X           Y           Z
 ---------------------------------------------------------------------
      1          6           0        2.075016   -0.625928    0.357771
      2          6           0        1.727341   -1.342449    1.663031
      3          6           0        0.223084   -1.551280    1.840217
      4          1           0        1.563025    0.345762    0.332695
      5          1           0        1.682598   -1.207908   -0.487630
      6          1           0        2.121501   -0.759998    2.505649
      7          1           0        2.240371   -2.312464    1.685088
      8          1           0       -0.181867   -2.151584    1.019089
      9          1           0       -0.301413   -0.590297    1.844313
     10          1           0       -0.002975   -2.065169    2.779725
     11          6           0        3.575141   -0.409855    0.166285
     12          6           0        3.922816    0.306666   -1.138976
     13          6           0        5.427073    0.515497   -1.316162
     14          1           0        3.967559    0.172125    1.011686
     15          1           0        4.087131   -1.381545    0.191360
     16          1           0        3.409785    1.276681   -1.161032
     17          1           0        3.528656   -0.275784   -1.981593
     18          1           0        5.951569   -0.445485   -1.320257
     19          1           0        5.832024    1.115801   -0.495034
     20          1           0        5.653131    1.029387   -2.255670
     21          6           0       -2.573514    1.220721   -0.423824
     22          6           0       -2.158929    2.016354    0.814349
     23          6           0       -1.657919    3.420360    0.474424
     24          1           0       -1.718359    1.150314   -1.109897
     25          1           0       -3.359139    1.771781   -0.959100
     26          1           0       -1.375294    1.463294    1.347883
     27          1           0       -3.015115    2.084711    1.497642
     28          1           0       -2.437185    3.993960   -0.037754
     29          1           0       -0.788048    3.369013   -0.188363
     30          1           0       -1.366890    3.971526    1.374079
     31          6           0       -3.076642   -0.184939   -0.100232
     32          6           0       -3.491228   -0.980572   -1.338405
     33          6           0       -3.992238   -2.384578   -0.998480
     34          1           0       -2.291017   -0.735999    0.435045
     35          1           0       -3.931798   -0.114532    0.585841
     36          1           0       -2.635041   -1.048928   -2.021697
     37          1           0       -4.274863   -0.427512   -1.871938
     38          1           0       -4.862110   -2.333230   -0.335692
     39          1           0       -3.212971   -2.958178   -0.486301
     40          1           0       -4.283266   -2.935744   -1.898135
 ---------------------------------------------------------------------

 SCF Done:  E(RHF) =  -470.732435450     A.U. after   11 cycles
 E2 =    -0.1584197624D+01 EUMP2 =    -0.47231663307381D+03

 The electronic state is 1-A.
 Alpha  occ. eigenvalues --  -11.21685 -11.21652 -11.21603 -11.21524 -11.21485
 Alpha  occ. eigenvalues --  -11.21418 -11.21325 -11.21191 -11.21155 -11.21107
 Alpha  occ. eigenvalues --  -11.21087 -11.21023  -1.08510  -1.08364  -1.03606
 Alpha  occ. eigenvalues --   -1.03495  -0.96069  -0.95928  -0.87087  -0.86952
 Alpha  occ. eigenvalues --   -0.79695  -0.79562  -0.78357  -0.78129  -0.65187
 Alpha  occ. eigenvalues --   -0.64981  -0.61103  -0.60809  -0.59421  -0.59304
 Alpha  occ. eigenvalues --   -0.57717  -0.57517  -0.55359  -0.55226  -0.52751
 Alpha  occ. eigenvalues --   -0.52677  -0.52518  -0.52330  -0.50053  -0.49858
 Alpha  occ. eigenvalues --   -0.48098  -0.47888  -0.46836  -0.46481  -0.46051
 Alpha  occ. eigenvalues --   -0.45771  -0.45684  -0.45196  -0.43856  -0.43727
 Alpha virt. eigenvalues --    0.20422   0.22884   0.23401   0.24525   0.25740
 Alpha virt. eigenvalues --    0.26601   0.26881   0.27679   0.28099   0.29470
 Alpha virt. eigenvalues --    0.30223   0.31502   0.31778   0.31803   0.32415

 Mulliken charges:
               1
     1  C   -0.299285
     2  C   -0.299408
     3  C   -0.485577
     4  H    0.149667
     5  H    0.149342
     6  H    0.152259
     7  H    0.152340
     8  H    0.155615
     9  H    0.163900
    10  H    0.161476
    11  C   -0.298278
    12  C   -0.299719
    13  C   -0.475763
    14  H    0.149842
    15  H    0.149975
    16  H    0.151916
    17  H    0.151929
    18  H    0.155272
    19  H    0.155341
    20  H    0.160452
    21  C   -0.297911
    22  C   -0.306627
    23  C   -0.475354
    24  H    0.149750
    25  H    0.149280
    26  H    0.156732
    27  H    0.152309
    28  H    0.155619
    29  H    0.154778
    30  H    0.159934
    31  C   -0.307854
    32  C   -0.299150
    33  C   -0.475810
    34  H    0.161830
    35  H    0.148530
    36  H    0.151276
    37  H    0.151427
    38  H    0.155235
    39  H    0.154858
    40  H    0.159854
 Sum of Mulliken charges =  -0.00000

 Dipole moment (field-independent basis, Debye):
    X=              0.0460    Y=             -0.0189    Z=              0.0353  Tot=              0.0609
 Quadrupole moment (field-independent basis, Debye-Ang):
   XX=            -85.2073   YY=            -85.0142   ZZ=            -84.6202
   XY=             -1.0629   XZ=              0.1354   YZ=              0.5742

 Normal termination of Gaussian 16 at Wed May  5 18:07:56 2021.
