 Gaussian 16, Revision A.03,
 Gaussian 16:  EM64L-G16RevA.03 25-Dec-2016

 -------------
 #p 6-31g* mp2
 -------------

 ------------------------------------------------------
 Input file generated by CHIRIPA (05-May-2021 14:55:22)
 ------------------------------------------------------
 Symbolic Z-matrix:
 Charge =  0 Multiplicity = 1

                         Standard orientation:
 ---------------------------------------------------------------------
 Center     Atomic      Atomic             Coordinates (Angstroms)
 Number     Number       Type             X           Y           Z
 ---------------------------------------------------------------------
      1          6           0       -2.231718    2.637831    0.170457
      2          6           0       -3.621272    2.498153    0.248876
      3          6           0       -4.215785    1.238009    0.134245
      4          6           0       -3.386889    0.134000   -0.059105
      5          6           0       -1.999403    0.240733   -0.141448
      6          6           0       -1.426637    1.510662   -0.024112
      7          1           0       -1.778333    3.620542    0.260556
      8          1           0       -4.248985    3.371768    0.399934
      9          1           0       -5.288850    1.101259    0.191237
     10          1           0       -1.399761   -0.648663   -0.292521
     11          1           0       -0.347210    1.616138   -0.085403
     12          7           0       -4.004761   -1.205238   -0.181891
     13          8           0       -3.252473   -2.162225   -0.351817
     14          8           0       -5.229638   -1.272586   -0.105881
     15          6           0        3.560420   -0.752980   -0.230876
     16          6           0        2.834457   -1.665655    0.758056
     17          6           0        1.547028   -2.256071    0.182096
     18          1           0        2.885820    0.059705   -0.533201
     19          1           0        3.792331   -1.321912   -1.141882
     20          1           0        2.605211   -1.095550    1.667475
     21          1           0        3.510928   -2.476155    1.058208
     22          1           0        1.761695   -2.848287   -0.713337
     23          1           0        0.850831   -1.459837   -0.100608
     24          1           0        1.044230   -2.905255    0.905709
     25          6           0        4.849323   -0.155108    0.330378
     26          6           0        5.575286    0.757566   -0.658554
     27          6           0        6.862714    1.347983   -0.082595
     28          1           0        4.617412    0.413823    1.241383
     29          1           0        5.523923   -0.967794    0.632702
     30          1           0        4.898814    1.568066   -0.958707
     31          1           0        5.804532    0.187461   -1.567974
     32          1           0        7.558912    0.551748    0.200110
     33          1           0        6.648049    1.940198    0.812838
     34          1           0        7.365512    1.997166   -0.806207
 ---------------------------------------------------------------------

 SCF Done:  E(RHF) =  -669.535371594     A.U. after   15 cycles
 E2 =    -0.2091135704D+01 EUMP2 =    -0.67162650729852D+03

 The electronic state is 1-A.
 Alpha  occ. eigenvalues --  -20.60727 -20.60719 -15.85778 -11.31149 -11.27730
 Alpha  occ. eigenvalues --  -11.27701 -11.27484 -11.26752 -11.26743 -11.22040
 Alpha  occ. eigenvalues --  -11.22011 -11.21900 -11.21799 -11.21533 -11.21420
 Alpha  occ. eigenvalues --   -1.59801  -1.39353  -1.19330  -1.08884  -1.08726
 Alpha  occ. eigenvalues --   -1.04739  -1.03955  -0.96405  -0.95557  -0.87418
 Alpha  occ. eigenvalues --   -0.86135  -0.82391  -0.80014  -0.78698  -0.77434
 Alpha  occ. eigenvalues --   -0.71997  -0.71124  -0.70451  -0.65527  -0.64985
 Alpha  occ. eigenvalues --   -0.64750  -0.62149  -0.61319  -0.59753  -0.58005
 Alpha  occ. eigenvalues --   -0.55734  -0.55225  -0.53082  -0.53062  -0.52934
 Alpha  occ. eigenvalues --   -0.52705  -0.50347  -0.48758  -0.48750  -0.48325
 Alpha  occ. eigenvalues --   -0.47058  -0.46243  -0.46164  -0.44757  -0.44203
 Alpha  occ. eigenvalues --   -0.37317  -0.36340
 Alpha virt. eigenvalues --    0.05101   0.11312   0.16586   0.19350   0.22624
 Alpha virt. eigenvalues --    0.23745   0.25306   0.26150   0.26861   0.28219
 Alpha virt. eigenvalues --    0.29054   0.30217   0.31372   0.31552   0.31791

 Mulliken charges:
               1
     1  C   -0.170726
     2  C   -0.218997
     3  C   -0.170275
     4  C    0.160085
     5  C   -0.180534
     6  C   -0.221543
     7  H    0.225402
     8  H    0.223366
     9  H    0.275542
    10  H    0.287126
    11  H    0.222721
    12  N    0.487408
    13  O   -0.459670
    14  O   -0.460730
    15  C   -0.297041
    16  C   -0.301122
    17  C   -0.476209
    18  H    0.141542
    19  H    0.152530
    20  H    0.151048
    21  H    0.155709
    22  H    0.160831
    23  H    0.142300
    24  H    0.169123
    25  C   -0.298539
    26  C   -0.299476
    27  C   -0.475887
    28  H    0.148694
    29  H    0.152059
    30  H    0.149346
    31  H    0.153477
    32  H    0.156606
    33  H    0.154809
    34  H    0.161027
 Sum of Mulliken charges =  -0.00000

 Dipole moment (field-independent basis, Debye):
    X=              2.3089    Y=              4.5833    Z=              0.4560  Tot=              5.1522
 Quadrupole moment (field-independent basis, Debye-Ang):
   XX=           -105.6141   YY=            -92.3328   ZZ=            -95.5994
   XY=            -19.1826   XZ=             -2.6366   YZ=              0.1758

 Normal termination of Gaussian 16 at Wed May  5 23:52:20 2021.
