 Gaussian 16, Revision A.03,
 Gaussian 16:  EM64L-G16RevA.03 25-Dec-2016

 -------------
 #p 6-31g* mp2
 -------------

 ------------------------------------------------------
 Input file generated by CHIRIPA (05-May-2021 14:51:08)
 ------------------------------------------------------
 Symbolic Z-matrix:
 Charge =  0 Multiplicity = 1

                         Standard orientation:
 ---------------------------------------------------------------------
 Center     Atomic      Atomic             Coordinates (Angstroms)
 Number     Number       Type             X           Y           Z
 ---------------------------------------------------------------------
      1          6           0        2.835662   -0.289991    0.241472
      2          6           0        2.169455   -0.336737    1.616960
      3          6           0        0.643199   -0.293897    1.536333
      4          1           0        2.520150    0.623559   -0.280853
      5          1           0        2.475551   -1.135027   -0.361545
      6          1           0        2.531765    0.507347    2.217685
      7          1           0        2.486740   -1.250187    2.136148
      8          1           0        0.263889   -1.143665    0.959602
      9          1           0        0.309169    0.623854    1.041603
     10          1           0        0.187513   -0.328361    2.530829
     11          6           0        4.361392   -0.332052    0.305573
     12          6           0        5.027599   -0.285306   -1.069915
     13          6           0        6.553856   -0.328146   -0.989287
     14          1           0        4.721503    0.512983    0.908591
     15          1           0        4.676904   -1.245602    0.827899
     16          1           0        4.710314    0.628144   -1.589102
     17          1           0        4.665289   -1.129390   -1.670639
     18          1           0        6.887885   -1.245897   -0.494557
     19          1           0        6.933166    0.521622   -0.412556
     20          1           0        7.009542   -0.293683   -1.983783
     21          6           0       -2.994912    0.722954   -0.495767
     22          6           0       -2.942794    2.113207    0.138635
     23          6           0       -1.729560    2.925239   -0.315750
     24          1           0       -2.073585    0.178646   -0.247111
     25          1           0       -3.010949    0.827026   -1.589525
     26          1           0       -2.928256    2.006584    1.230897
     27          1           0       -3.864436    2.654199   -0.111401
     28          1           0       -1.741847    3.061120   -1.402022
     29          1           0       -0.800348    2.409825   -0.052098
     30          1           0       -1.712074    3.915574    0.149858
     31          6           0       -4.202142   -0.100911   -0.051279
     32          6           0       -4.254261   -1.491164   -0.685681
     33          6           0       -5.467493   -2.303196   -0.231296
     34          1           0       -4.186106   -0.204982    1.042479
     35          1           0       -5.123469    0.443397   -0.299934
     36          1           0       -3.332618   -2.032157   -0.435646
     37          1           0       -4.268798   -1.384541   -1.777943
     38          1           0       -6.396706   -1.787782   -0.494948
     39          1           0       -5.455208   -2.439077    0.854976
     40          1           0       -5.484980   -3.293530   -0.696904
 ---------------------------------------------------------------------

 SCF Done:  E(RHF) =  -470.733092572     A.U. after   11 cycles
 E2 =    -0.1583113729D+01 EUMP2 =    -0.47231620630089D+03

 The electronic state is 1-A.
 Alpha  occ. eigenvalues --  -11.21663 -11.21614 -11.21556 -11.21549 -11.21437
 Alpha  occ. eigenvalues --  -11.21376 -11.21324 -11.21250 -11.21162 -11.21080
 Alpha  occ. eigenvalues --  -11.21057 -11.21036  -1.08468  -1.08365  -1.03582
 Alpha  occ. eigenvalues --   -1.03481  -0.96031  -0.95935  -0.87050  -0.86955
 Alpha  occ. eigenvalues --   -0.79669  -0.79527  -0.78292  -0.78158  -0.65118
 Alpha  occ. eigenvalues --   -0.64986  -0.61091  -0.60797  -0.59398  -0.59302
 Alpha  occ. eigenvalues --   -0.57639  -0.57546  -0.55450  -0.55104  -0.52723
 Alpha  occ. eigenvalues --   -0.52640  -0.52468  -0.52366  -0.50085  -0.49776
 Alpha  occ. eigenvalues --   -0.48083  -0.47795  -0.46741  -0.46481  -0.45924
 Alpha  occ. eigenvalues --   -0.45740  -0.45684  -0.45456  -0.43826  -0.43731
 Alpha virt. eigenvalues --    0.21013   0.22938   0.23576   0.24701   0.25805
 Alpha virt. eigenvalues --    0.26204   0.27167   0.27520   0.27990   0.29416
 Alpha virt. eigenvalues --    0.30228   0.31665   0.31728   0.31861   0.32078

 Mulliken charges:
               1
     1  C   -0.298516
     2  C   -0.299733
     3  C   -0.484090
     4  H    0.149734
     5  H    0.149697
     6  H    0.152261
     7  H    0.152208
     8  H    0.155476
     9  H    0.162712
    10  H    0.160614
    11  C   -0.298343
    12  C   -0.299730
    13  C   -0.475740
    14  H    0.149656
    15  H    0.149705
    16  H    0.152198
    17  H    0.151986
    18  H    0.155161
    19  H    0.155233
    20  H    0.160350
    21  C   -0.303989
    22  C   -0.298973
    23  C   -0.481089
    24  H    0.156931
    25  H    0.148733
    26  H    0.152185
    27  H    0.151746
    28  H    0.155369
    29  H    0.158714
    30  H    0.160193
    31  C   -0.297952
    32  C   -0.299557
    33  C   -0.475660
    34  H    0.149589
    35  H    0.149207
    36  H    0.151724
    37  H    0.151741
    38  H    0.155096
    39  H    0.155160
    40  H    0.159993
 Sum of Mulliken charges =  -0.00000

 Dipole moment (field-independent basis, Debye):
    X=              0.0385    Y=             -0.0087    Z=              0.0116  Tot=              0.0412
 Quadrupole moment (field-independent basis, Debye-Ang):
   XX=            -86.4842   YY=            -84.1565   ZZ=            -84.2444
   XY=             -0.7298   XZ=              0.7116   YZ=             -0.0790

 Normal termination of Gaussian 16 at Thu May  6 00:30:38 2021.
