 Gaussian 16, Revision A.03,
 Gaussian 16:  EM64L-G16RevA.03 25-Dec-2016

 -------------
 #p 6-31g* mp2
 -------------

 ------------------------------------------------------
 Input file generated by CHIRIPA (05-May-2021 14:57:21)
 ------------------------------------------------------
 Symbolic Z-matrix:
 Charge =  0 Multiplicity = 1

                         Standard orientation:
 ---------------------------------------------------------------------
 Center     Atomic      Atomic             Coordinates (Angstroms)
 Number     Number       Type             X           Y           Z
 ---------------------------------------------------------------------
      1          6           0        2.389796   -1.109712    1.432228
      2          6           0        2.094523   -0.246488    0.371955
      3          6           0        3.119379    0.291481   -0.412141
      4          6           0        4.434183   -0.056639   -0.106539
      5          6           0        4.760411   -0.913979    0.943143
      6          6           0        3.719453   -1.440120    1.713942
      7          1           0        1.587409   -1.523025    2.036168
      8          1           0        1.062815    0.011862    0.150867
      9          1           0        2.919060    0.962153   -1.238876
     10          1           0        5.798582   -1.153069    1.139245
     11          1           0        3.951729   -2.110260    2.536745
     12          7           0        5.527676    0.506624   -0.929588
     13          8           0        6.677819    0.184358   -0.639845
     14          8           0        5.213906    1.259711   -1.848852
     15          6           0       -2.989279    2.076432    0.997204
     16          6           0       -4.350804    2.208939    0.705297
     17          6           0       -5.061562    1.147849    0.136560
     18          6           0       -4.376228   -0.036820   -0.128329
     19          6           0       -3.020225   -0.199613    0.151040
     20          6           0       -2.329498    0.874698    0.719634
     21          1           0       -2.444925    2.905848    1.438957
     22          1           0       -4.865786    3.141051    0.919782
     23          1           0       -6.116069    1.223277   -0.099543
     24          1           0       -2.534133   -1.141116   -0.074135
     25          1           0       -1.272167    0.768945    0.945273
     26          7           0       -5.118072   -1.167147   -0.730350
     27          8           0       -4.491272   -2.200434   -0.954124
     28          8           0       -6.312284   -0.998406   -0.967040
 ---------------------------------------------------------------------

 SCF Done:  E(RHF) =  -868.336682267     A.U. after   16 cycles
 E2 =    -0.2599384341D+01 EUMP2 =    -0.87093606660807D+03

 The electronic state is 1-A.
 Alpha  occ. eigenvalues --  -20.61309 -20.61299 -20.61172 -20.61165 -15.86368
 Alpha  occ. eigenvalues --  -15.86232 -11.31848 -11.31708 -11.28516 -11.28404
 Alpha  occ. eigenvalues --  -11.28345 -11.28278 -11.28211 -11.28115 -11.27607
 Alpha  occ. eigenvalues --  -11.27468 -11.27411 -11.27299  -1.60381  -1.60245
 Alpha  occ. eigenvalues --   -1.39931  -1.39795  -1.20046  -1.19911  -1.09413
 Alpha  occ. eigenvalues --   -1.09293  -1.05489  -1.05340  -0.96224  -0.96100
 Alpha  occ. eigenvalues --   -0.86886  -0.86735  -0.83076  -0.82932  -0.78116
 Alpha  occ. eigenvalues --   -0.77946  -0.72583  -0.72448  -0.71706  -0.71570
 Alpha  occ. eigenvalues --   -0.71138  -0.71026  -0.65708  -0.65669  -0.65568
 Alpha  occ. eigenvalues --   -0.65257  -0.62914  -0.62610  -0.55962  -0.55850
 Alpha  occ. eigenvalues --   -0.53787  -0.53705  -0.53643  -0.53340  -0.49352
 Alpha  occ. eigenvalues --   -0.49331  -0.49216  -0.49194  -0.45312  -0.45176
 Alpha  occ. eigenvalues --   -0.38013  -0.37905  -0.37092  -0.36940
 Alpha virt. eigenvalues --    0.04463   0.04600   0.10549   0.10672   0.15883
 Alpha virt. eigenvalues --    0.16045   0.17855   0.21924   0.24531   0.27603
 Alpha virt. eigenvalues --    0.27672   0.28577   0.29735   0.31408   0.31746

 Mulliken charges:
               1
     1  C   -0.171101
     2  C   -0.223566
     3  C   -0.170394
     4  C    0.159097
     5  C   -0.169742
     6  C   -0.218303
     7  H    0.224622
     8  H    0.218794
     9  H    0.277212
    10  H    0.277728
    11  H    0.225880
    12  N    0.487976
    13  O   -0.458723
    14  O   -0.459476
    15  C   -0.170417
    16  C   -0.218282
    17  C   -0.169424
    18  C    0.159033
    19  C   -0.171347
    20  C   -0.223111
    21  H    0.228223
    22  H    0.226348
    23  H    0.278113
    24  H    0.273278
    25  H    0.217717
    26  N    0.488150
    27  O   -0.460221
    28  O   -0.458065
 Sum of Mulliken charges =  -0.00000

 Dipole moment (field-independent basis, Debye):
    X=             -1.2667    Y=              2.0307    Z=              5.0194  Tot=              5.5608
 Quadrupole moment (field-independent basis, Debye-Ang):
   XX=           -154.5563   YY=           -102.9011   ZZ=           -105.7315
   XY=            -31.2884   XZ=              5.9246   YZ=             -2.1794

 Normal termination of Gaussian 16 at Thu May  6 21:03:26 2021.
