 Gaussian 16, Revision A.03,
 Gaussian 16:  EM64L-G16RevA.03 25-Dec-2016

 -------------
 #p 6-31g* mp2
 -------------

 ------------------------------------------------------
 Input file generated by CHIRIPA (05-May-2021 14:57:25)
 ------------------------------------------------------
 Symbolic Z-matrix:
 Charge =  0 Multiplicity = 1

                         Standard orientation:
 ---------------------------------------------------------------------
 Center     Atomic      Atomic             Coordinates (Angstroms)
 Number     Number       Type             X           Y           Z
 ---------------------------------------------------------------------
      1          6           0       -4.657997    1.465948    0.235076
      2          6           0       -3.515436    1.947790   -0.412153
      3          6           0       -2.437770    1.097526   -0.677171
      4          6           0       -2.536905   -0.234833   -0.279322
      5          6           0       -3.661706   -0.744768    0.367267
      6          6           0       -4.727363    0.123573    0.622038
      7          1           0       -5.490489    2.133475    0.436968
      8          1           0       -3.458789    2.989826   -0.713811
      9          1           0       -1.541274    1.444201   -1.176698
     10          1           0       -3.688915   -1.788475    0.655979
     11          1           0       -5.613436   -0.253394    1.124845
     12          7           0       -1.402385   -1.144538   -0.554460
     13          8           0       -1.514425   -2.314165   -0.193827
     14          8           0       -0.422590   -0.670713   -1.125538
     15          6           0        3.339946    2.524621    0.049127
     16          6           0        3.825908    1.606985   -0.888053
     17          6           0        3.491068    0.252787   -0.795426
     18          6           0        2.664329   -0.150960    0.251846
     19          6           0        2.164288    0.739086    1.201092
     20          6           0        2.512146    2.088511    1.088875
     21          1           0        3.605114    3.574741   -0.030438
     22          1           0        4.468972    1.942828   -1.696585
     23          1           0        3.853286   -0.478984   -1.507273
     24          1           0        1.525182    0.374323    1.996020
     25          1           0        2.133274    2.798920    1.818135
     26          7           0        2.302958   -1.582063    0.360276
     27          8           0        1.572969   -1.912458    1.292259
     28          8           0        2.756549   -2.346269   -0.488773
 ---------------------------------------------------------------------

 SCF Done:  E(RHF) =  -868.336875251     A.U. after   16 cycles
 E2 =    -0.2602583181D+01 EUMP2 =    -0.87093945843270D+03

 The electronic state is 1-A.
 Alpha  occ. eigenvalues --  -20.60487 -20.60349 -20.59277 -20.59249 -15.85453
 Alpha  occ. eigenvalues --  -15.84345 -11.31030 -11.30106 -11.27646 -11.27586
 Alpha  occ. eigenvalues --  -11.27407 -11.26775 -11.26707 -11.26706 -11.26657
 Alpha  occ. eigenvalues --  -11.26630 -11.25953 -11.25890  -1.59459  -1.58282
 Alpha  occ. eigenvalues --   -1.39020  -1.37861  -1.19220  -1.18329  -1.08578
 Alpha  occ. eigenvalues --   -1.07654  -1.04654  -1.03835  -0.95381  -0.94432
 Alpha  occ. eigenvalues --   -0.86041  -0.85215  -0.82219  -0.81300  -0.77226
 Alpha  occ. eigenvalues --   -0.76256  -0.71751  -0.70927  -0.70575  -0.70326
 Alpha  occ. eigenvalues --   -0.69502  -0.69367  -0.64870  -0.64655  -0.64012
 Alpha  occ. eigenvalues --   -0.63884  -0.61996  -0.61199  -0.55148  -0.54364
 Alpha  occ. eigenvalues --   -0.52975  -0.52747  -0.52107  -0.51964  -0.48466
 Alpha  occ. eigenvalues --   -0.48403  -0.47339  -0.47309  -0.44392  -0.43200
 Alpha  occ. eigenvalues --   -0.37215  -0.36302  -0.36256  -0.35459
 Alpha virt. eigenvalues --    0.05283   0.06406   0.11380   0.12192   0.16758
 Alpha virt. eigenvalues --    0.17757   0.21497   0.22138   0.27391   0.27998
 Alpha virt. eigenvalues --    0.28415   0.29077   0.31015   0.31613   0.32663

 Mulliken charges:
               1
     1  C   -0.171584
     2  C   -0.219073
     3  C   -0.172887
     4  C    0.158865
     5  C   -0.170319
     6  C   -0.218750
     7  H    0.224453
     8  H    0.221010
     9  H    0.274197
    10  H    0.278261
    11  H    0.223507
    12  N    0.491162
    13  O   -0.443778
    14  O   -0.472750
    15  C   -0.174127
    16  C   -0.219171
    17  C   -0.169059
    18  C    0.175849
    19  C   -0.172803
    20  C   -0.220921
    21  H    0.219672
    22  H    0.219402
    23  H    0.275297
    24  H    0.270707
    25  H    0.216799
    26  N    0.498911
    27  O   -0.463363
    28  O   -0.459511
 Sum of Mulliken charges =  -0.00000

 Dipole moment (field-independent basis, Debye):
    X=             -2.9274    Y=              7.7125    Z=              0.5172  Tot=              8.2656
 Quadrupole moment (field-independent basis, Debye-Ang):
   XX=            -76.8439   YY=           -105.9300   ZZ=           -102.6139
   XY=              7.2699   XZ=             -6.3086   YZ=             -0.7774

 Normal termination of Gaussian 16 at Thu May  6 00:23:44 2021.
