 Gaussian 16, Revision A.03,
 Gaussian 16:  EM64L-G16RevA.03 25-Dec-2016

 -------------
 #p 6-31g* mp2
 -------------

 ------------------------------------------------------
 Input file generated by CHIRIPA (05-May-2021 14:57:20)
 ------------------------------------------------------
 Symbolic Z-matrix:
 Charge =  0 Multiplicity = 1

                         Standard orientation:
 ---------------------------------------------------------------------
 Center     Atomic      Atomic             Coordinates (Angstroms)
 Number     Number       Type             X           Y           Z
 ---------------------------------------------------------------------
      1          6           0       -1.598134    0.149119    0.027923
      2          6           0       -2.229864   -0.808040    0.828727
      3          6           0       -3.623184   -0.922906    0.832455
      4          6           0       -4.357170   -0.060499    0.019554
      5          6           0       -3.757008    0.903270   -0.789300
      6          6           0       -2.362375    1.000218   -0.777115
      7          1           0       -0.515260    0.231390    0.031208
      8          1           0       -1.638883   -1.470350    1.454931
      9          1           0       -4.138053   -1.654969    1.442710
     10          1           0       -4.372875    1.549425   -1.402985
     11          1           0       -1.874471    1.744496   -1.400047
     12          7           0       -5.832910   -0.172618    0.015078
     13          8           0       -6.456972    0.599041   -0.709992
     14          8           0       -6.337591   -1.030033    0.736724
     15          6           0        3.492348    2.452137    0.393074
     16          6           0        4.817107    2.033292    0.554634
     17          6           0        5.172947    0.700358    0.328331
     18          6           0        4.174045   -0.190981   -0.060255
     19          6           0        2.845504    0.195775   -0.229631
     20          6           0        2.512501    1.533661    0.002145
     21          1           0        3.224793    3.489515    0.570997
     22          1           0        5.580164    2.744395    0.858150
     23          1           0        6.190899    0.349148    0.445985
     24          1           0        2.106932   -0.536243   -0.533072
     25          1           0        1.482876    1.856116   -0.124102
     26          7           0        4.538668   -1.604719   -0.302729
     27          8           0        3.639992   -2.370440   -0.644329
     28          8           0        5.716230   -1.920318   -0.146588
 ---------------------------------------------------------------------

 SCF Done:  E(RHF) =  -868.336384017     A.U. after   16 cycles
 E2 =    -0.2600084055D+01 EUMP2 =    -0.87093646807206D+03

 The electronic state is 1-A.
 Alpha  occ. eigenvalues --  -20.61516 -20.61501 -20.61071 -20.61064 -15.86572
 Alpha  occ. eigenvalues --  -15.86126 -11.32075 -11.31612 -11.28767 -11.28602
 Alpha  occ. eigenvalues --  -11.28402 -11.28197 -11.28146 -11.28090 -11.27817
 Alpha  occ. eigenvalues --  -11.27614 -11.27324 -11.27219  -1.60584  -1.60142
 Alpha  occ. eigenvalues --   -1.40135  -1.39692  -1.20262  -1.19802  -1.09617
 Alpha  occ. eigenvalues --   -1.09207  -1.05712  -1.05212  -0.96434  -0.96020
 Alpha  occ. eigenvalues --   -0.87087  -0.86622  -0.83297  -0.82830  -0.78324
 Alpha  occ. eigenvalues --   -0.77834  -0.72786  -0.72345  -0.71910  -0.71465
 Alpha  occ. eigenvalues --   -0.71388  -0.70983  -0.65921  -0.65737  -0.65465
 Alpha  occ. eigenvalues --   -0.65227  -0.63073  -0.62547  -0.56201  -0.55777
 Alpha  occ. eigenvalues --   -0.53991  -0.53816  -0.53536  -0.53315  -0.49555
 Alpha  occ. eigenvalues --   -0.49534  -0.49114  -0.49090  -0.45512  -0.45070
 Alpha  occ. eigenvalues --   -0.38212  -0.37831  -0.37310  -0.36797
 Alpha virt. eigenvalues --    0.04242   0.04677   0.10354   0.10838   0.15646
 Alpha virt. eigenvalues --    0.16105   0.17571   0.22084   0.24763   0.25786
 Alpha virt. eigenvalues --    0.27567   0.29201   0.30289   0.30760   0.32806

 Mulliken charges:
               1
     1  C   -0.175078
     2  C   -0.218610
     3  C   -0.169897
     4  C    0.159330
     5  C   -0.170067
     6  C   -0.219501
     7  H    0.220584
     8  H    0.228199
     9  H    0.278106
    10  H    0.276809
    11  H    0.219896
    12  N    0.487879
    13  O   -0.459559
    14  O   -0.458440
    15  C   -0.169804
    16  C   -0.218078
    17  C   -0.169360
    18  C    0.160007
    19  C   -0.174396
    20  C   -0.219871
    21  H    0.228533
    22  H    0.227074
    23  H    0.278665
    24  H    0.271228
    25  H    0.215932
    26  N    0.488353
    27  O   -0.460858
    28  O   -0.457073
 Sum of Mulliken charges =  -0.00000

 Dipole moment (field-independent basis, Debye):
    X=              4.0224    Y=              5.3389    Z=              0.9532  Tot=              6.7522
 Quadrupole moment (field-independent basis, Debye-Ang):
   XX=           -154.5773   YY=           -104.4212   ZZ=           -103.7266
   XY=             20.4884   XZ=              5.2310   YZ=             -3.0646

 Normal termination of Gaussian 16 at Thu May  6 04:50:56 2021.
