 Gaussian 16, Revision A.03,
 Gaussian 16:  EM64L-G16RevA.03 25-Dec-2016

 -------------
 #p 6-31g* mp2
 -------------

 ------------------------------------------------------
 Input file generated by CHIRIPA (05-May-2021 14:53:12)
 ------------------------------------------------------
 Symbolic Z-matrix:
 Charge =  0 Multiplicity = 1

                         Standard orientation:
 ---------------------------------------------------------------------
 Center     Atomic      Atomic             Coordinates (Angstroms)
 Number     Number       Type             X           Y           Z
 ---------------------------------------------------------------------
      1          6           0       -2.922716   -1.029931    0.183383
      2          6           0       -1.931201   -1.310812    1.312980
      3          6           0       -1.129574   -2.593665    1.090551
      4          1           0       -3.610110   -1.881513    0.087250
      5          1           0       -2.375354   -0.961244   -0.766918
      6          1           0       -2.480106   -1.377575    2.261064
      7          1           0       -1.246207   -0.458379    1.406561
      8          1           0       -0.556879   -2.533504    0.159421
      9          1           0       -1.797788   -3.457922    1.018779
     10          1           0       -0.426971   -2.775172    1.909858
     11          6           0       -3.731570    0.249216    0.391389
     12          6           0       -4.723085    0.530097   -0.738208
     13          6           0       -5.524712    1.812950   -0.515778
     14          1           0       -4.278932    0.180529    1.341690
     15          1           0       -3.044175    1.100798    0.487522
     16          1           0       -5.408079   -0.322336   -0.831789
     17          1           0       -4.174180    0.596859   -1.686291
     18          1           0       -4.856498    2.677207   -0.444007
     19          1           0       -6.097407    1.752788    0.415351
     20          1           0       -6.227315    1.994457   -1.335086
     21          6           0        2.471852   -2.092724   -0.999601
     22          6           0        1.427185   -1.207875   -1.286367
     23          6           0        1.487117    0.122825   -0.861878
     24          6           0        2.611655    0.536767   -0.149588
     25          6           0        3.668590   -0.320798    0.151672
     26          6           0        3.587254   -1.647147   -0.282760
     27          1           0        2.416982   -3.124754   -1.333216
     28          1           0        0.559724   -1.551142   -1.842897
     29          1           0        0.692583    0.829050   -1.070163
     30          1           0        4.520419    0.050622    0.708317
     31          1           0        4.400046   -2.332110   -0.058617
     32          7           0        2.686431    1.943217    0.305062
     33          8           0        3.688041    2.283217    0.931014
     34          8           0        1.742016    2.678960    0.026856
 ---------------------------------------------------------------------

 SCF Done:  E(RHF) =  -669.534739246     A.U. after   15 cycles
 E2 =    -0.2092977505D+01 EUMP2 =    -0.67162771675096D+03

 The electronic state is 1-A.
 Alpha  occ. eigenvalues --  -20.60826 -20.60820 -15.85880 -11.31261 -11.27831
 Alpha  occ. eigenvalues --  -11.27815 -11.27557 -11.26848 -11.26833 -11.21905
 Alpha  occ. eigenvalues --  -11.21804 -11.21787 -11.21576 -11.21417 -11.21133
 Alpha  occ. eigenvalues --   -1.59901  -1.39454  -1.19435  -1.08831  -1.08712
 Alpha  occ. eigenvalues --   -1.04850  -1.03774  -0.96238  -0.95655  -0.87261
 Alpha  occ. eigenvalues --   -0.86239  -0.82492  -0.79847  -0.78528  -0.77540
 Alpha  occ. eigenvalues --   -0.72098  -0.71224  -0.70530  -0.65389  -0.65086
 Alpha  occ. eigenvalues --   -0.64854  -0.62225  -0.61158  -0.59600  -0.57844
 Alpha  occ. eigenvalues --   -0.55609  -0.55323  -0.53176  -0.52966  -0.52885
 Alpha  occ. eigenvalues --   -0.52604  -0.50165  -0.48859  -0.48852  -0.48156
 Alpha  occ. eigenvalues --   -0.46882  -0.46070  -0.45988  -0.44856  -0.44045
 Alpha  occ. eigenvalues --   -0.37368  -0.36390
 Alpha virt. eigenvalues --    0.04982   0.11092   0.16411   0.19744   0.22892
 Alpha virt. eigenvalues --    0.24091   0.25439   0.26572   0.27368   0.28542
 Alpha virt. eigenvalues --    0.29146   0.30383   0.31461   0.31713   0.32209

 Mulliken charges:
               1
     1  C   -0.297011
     2  C   -0.301613
     3  C   -0.476218
     4  H    0.150482
     5  H    0.138706
     6  H    0.154799
     7  H    0.155517
     8  H    0.149607
     9  H    0.153385
    10  H    0.161951
    11  C   -0.299917
    12  C   -0.299356
    13  C   -0.476329
    14  H    0.151678
    15  H    0.154000
    16  H    0.151424
    17  H    0.149575
    18  H    0.158281
    19  H    0.155893
    20  H    0.160434
    21  C   -0.169288
    22  C   -0.217862
    23  C   -0.171718
    24  C    0.158372
    25  C   -0.170736
    26  C   -0.218254
    27  H    0.226608
    28  H    0.224880
    29  H    0.275489
    30  H    0.275872
    31  H    0.223898
    32  N    0.488137
    33  O   -0.460016
    34  O   -0.460670
 Sum of Mulliken charges =  -0.00000

 Dipole moment (field-independent basis, Debye):
    X=             -0.2411    Y=             -4.8923    Z=             -1.5323  Tot=              5.1323
 Quadrupole moment (field-independent basis, Debye-Ang):
   XX=            -91.8073   YY=           -101.1952   ZZ=            -93.8279
   XY=            -13.5547   XZ=             -2.5984   YZ=             -0.7820

 Normal termination of Gaussian 16 at Wed May  5 16:58:47 2021.
