 Gaussian 16, Revision A.03,
 Gaussian 16:  EM64L-G16RevA.03 25-Dec-2016

 -------------
 #p 6-31g* mp2
 -------------

 ------------------------------------------------------
 Input file generated by CHIRIPA (05-May-2021 14:53:16)
 ------------------------------------------------------
 Symbolic Z-matrix:
 Charge =  0 Multiplicity = 1

                         Standard orientation:
 ---------------------------------------------------------------------
 Center     Atomic      Atomic             Coordinates (Angstroms)
 Number     Number       Type             X           Y           Z
 ---------------------------------------------------------------------
      1          6           0        4.516685   -0.359761   -0.368313
      2          6           0        4.495556   -1.778691    0.201053
      3          6           0        5.374356   -2.746842   -0.591530
      4          1           0        4.183749   -0.386477   -1.414919
      5          1           0        5.552007    0.008192   -0.378953
      6          1           0        3.460408   -2.143339    0.211902
      7          1           0        4.828399   -1.748568    1.246483
      8          1           0        6.415898   -2.409514   -0.591904
      9          1           0        5.040136   -2.806527   -1.632364
     10          1           0        5.344508   -3.755290   -0.167265
     11          6           0        3.642922    0.619707    0.413292
     12          6           0        3.664051    2.038637   -0.156074
     13          6           0        2.785251    3.006788    0.636510
     14          1           0        2.607600    0.251754    0.423932
     15          1           0        3.975858    0.646423    1.459898
     16          1           0        3.331209    2.008514   -1.201504
     17          1           0        4.699199    2.403285   -0.166922
     18          1           0        3.119471    3.066473    1.677344
     19          1           0        1.743709    2.669460    0.636884
     20          1           0        2.815099    4.015236    0.212244
     21          6           0       -0.743654    0.526198   -0.002221
     22          6           0       -1.680106    1.372868   -0.604490
     23          6           0       -3.036680    1.035163   -0.618921
     24          6           0       -3.423594   -0.162229   -0.019054
     25          6           0       -2.514606   -1.026728    0.588953
     26          6           0       -1.163154   -0.668792    0.591532
     27          1           0        0.308176    0.796393    0.004387
     28          1           0       -1.357188    2.301542   -1.066373
     29          1           0       -3.782845    1.672150   -1.078162
     30          1           0       -2.866761   -1.945853    1.041295
     31          1           0       -0.438115   -1.328264    1.059997
     32          7           0       -4.857027   -0.530451   -0.028058
     33          8           0       -5.172355   -1.590946    0.507252
     34          8           0       -5.638082    0.248403   -0.570255
 ---------------------------------------------------------------------

 SCF Done:  E(RHF) =  -669.535067326     A.U. after   15 cycles
 E2 =    -0.2091910513D+01 EUMP2 =    -0.67162697783933D+03

 The electronic state is 1-A.
 Alpha  occ. eigenvalues --  -20.60740 -20.60735 -15.85794 -11.31159 -11.27727
 Alpha  occ. eigenvalues --  -11.27724 -11.27432 -11.26742 -11.26732 -11.22739
 Alpha  occ. eigenvalues --  -11.22615 -11.22458 -11.22319 -11.22274 -11.21742
 Alpha  occ. eigenvalues --   -1.59816  -1.39369  -1.19330  -1.09488  -1.08725
 Alpha  occ. eigenvalues --   -1.04733  -1.04524  -0.96973  -0.95564  -0.87982
 Alpha  occ. eigenvalues --   -0.86130  -0.82402  -0.80590  -0.79293  -0.77440
 Alpha  occ. eigenvalues --   -0.72012  -0.71139  -0.70498  -0.66126  -0.64982
 Alpha  occ. eigenvalues --   -0.64732  -0.62084  -0.61928  -0.60348  -0.58574
 Alpha  occ. eigenvalues --   -0.56291  -0.55254  -0.53630  -0.53392  -0.53058
 Alpha  occ. eigenvalues --   -0.52823  -0.50928  -0.48892  -0.48767  -0.48766
 Alpha  occ. eigenvalues --   -0.47622  -0.46809  -0.46731  -0.44785  -0.44775
 Alpha  occ. eigenvalues --   -0.37305  -0.36339
 Alpha virt. eigenvalues --    0.05080   0.11305   0.16526   0.18493   0.22664
 Alpha virt. eigenvalues --    0.23295   0.25031   0.25936   0.26489   0.27908
 Alpha virt. eigenvalues --    0.29537   0.30369   0.30801   0.31126   0.31272

 Mulliken charges:
               1
     1  C   -0.298555
     2  C   -0.299628
     3  C   -0.476345
     4  H    0.151098
     5  H    0.153491
     6  H    0.147988
     7  H    0.153676
     8  H    0.157130
     9  H    0.156611
    10  H    0.162534
    11  C   -0.301747
    12  C   -0.302157
    13  C   -0.478453
    14  H    0.138819
    15  H    0.154512
    16  H    0.151759
    17  H    0.157989
    18  H    0.160874
    19  H    0.146024
    20  H    0.165091
    21  C   -0.180266
    22  C   -0.221227
    23  C   -0.170588
    24  C    0.158268
    25  C   -0.170742
    26  C   -0.221797
    27  H    0.240434
    28  H    0.223876
    29  H    0.275505
    30  H    0.275533
    31  H    0.223281
    32  N    0.487964
    33  O   -0.460487
    34  O   -0.460465
 Sum of Mulliken charges =  -0.00000

 Dipole moment (field-independent basis, Debye):
    X=              5.3483    Y=              1.3197    Z=              0.0312  Tot=              5.5087
 Quadrupole moment (field-independent basis, Debye-Ang):
   XX=           -128.0666   YY=            -92.0603   ZZ=            -94.0085
   XY=             -5.5301   XZ=              1.1998   YZ=             -2.6511

 Normal termination of Gaussian 16 at Wed May  5 21:58:41 2021.
