 Gaussian 16, Revision A.03,
 Gaussian 16:  EM64L-G16RevA.03 25-Dec-2016

 -------------
 #p 6-31g* mp2
 -------------

 ------------------------------------------------------
 Input file generated by CHIRIPA (05-May-2021 14:51:11)
 ------------------------------------------------------
 Symbolic Z-matrix:
 Charge =  0 Multiplicity = 1

                         Standard orientation:
 ---------------------------------------------------------------------
 Center     Atomic      Atomic             Coordinates (Angstroms)
 Number     Number       Type             X           Y           Z
 ---------------------------------------------------------------------
      1          6           0       -3.946185    0.666073   -0.328016
      2          6           0       -5.043147    1.460889    0.381157
      3          6           0       -5.417988    2.743628   -0.361721
      4          1           0       -3.056182    1.300474   -0.439261
      5          1           0       -4.281894    0.417538   -1.344345
      6          1           0       -4.706023    1.706659    1.396322
      7          1           0       -5.930577    0.824460    0.490898
      8          1           0       -5.779352    2.513714   -1.369270
      9          1           0       -4.547841    3.400926   -0.458702
     10          1           0       -6.203815    3.296218    0.162666
     11          6           0       -3.560558   -0.618971    0.402519
     12          6           0       -2.463596   -1.413787   -0.306654
     13          6           0       -2.088755   -2.696527    0.436224
     14          1           0       -3.224849   -0.370436    1.418848
     15          1           0       -4.450561   -1.253372    0.513764
     16          1           0       -1.576166   -0.777358   -0.416395
     17          1           0       -2.800720   -1.659557   -1.321819
     18          1           0       -2.958902   -3.353824    0.533205
     19          1           0       -1.727391   -2.466612    1.443773
     20          1           0       -1.302928   -3.249117   -0.088162
     21          6           0        4.382108    0.331788   -0.285962
     22          6           0        4.745410    1.568299    0.536861
     23          6           0        6.005501    2.268332    0.027038
     24          1           0        5.225745   -0.371767   -0.270772
     25          1           0        4.239916    0.626719   -1.334862
     26          1           0        4.885519    1.271355    1.584148
     27          1           0        3.900737    2.268909    0.519868
     28          1           0        5.873200    2.592424   -1.010296
     29          1           0        6.863578    1.589202    0.060031
     30          1           0        6.246897    3.149519    0.629614
     31          6           0        3.124635   -0.378890    0.211459
     32          6           0        2.761333   -1.615402   -0.611364
     33          6           0        1.501242   -2.315434   -0.101541
     34          1           0        3.266827   -0.673820    1.260359
     35          1           0        2.280999    0.324666    0.196269
     36          1           0        3.606006   -2.316011   -0.594371
     37          1           0        2.621225   -1.318456   -1.658650
     38          1           0        0.643166   -1.636303   -0.134533
     39          1           0        1.633543   -2.639526    0.935793
     40          1           0        1.259845   -3.196620   -0.704117
 ---------------------------------------------------------------------

 SCF Done:  E(RHF) =  -470.732151109     A.U. after   11 cycles
 E2 =    -0.1583411835D+01 EUMP2 =    -0.47231556294432D+03

 The electronic state is 1-A.
 Alpha  occ. eigenvalues --  -11.21609 -11.21599 -11.21578 -11.21569 -11.21410
 Alpha  occ. eigenvalues --  -11.21395 -11.21351 -11.21334 -11.21077 -11.21072
 Alpha  occ. eigenvalues --  -11.21000 -11.20910  -1.08442  -1.08404  -1.03579
 Alpha  occ. eigenvalues --   -1.03452  -0.96077  -0.95848  -0.87106  -0.86852
 Alpha  occ. eigenvalues --   -0.79616  -0.79549  -0.78259  -0.78220  -0.65125
 Alpha  occ. eigenvalues --   -0.65001  -0.61113  -0.60772  -0.59489  -0.59203
 Alpha  occ. eigenvalues --   -0.57649  -0.57525  -0.55391  -0.55083  -0.52956
 Alpha  occ. eigenvalues --   -0.52495  -0.52400  -0.52165  -0.49899  -0.49874
 Alpha  occ. eigenvalues --   -0.47930  -0.47843  -0.46750  -0.46483  -0.45835
 Alpha  occ. eigenvalues --   -0.45742  -0.45735  -0.45600  -0.43917  -0.43598
 Alpha virt. eigenvalues --    0.21815   0.23062   0.23531   0.24951   0.26063
 Alpha virt. eigenvalues --    0.26727   0.27097   0.27341   0.27771   0.29300
 Alpha virt. eigenvalues --    0.29361   0.30931   0.31500   0.32000   0.32423

 Mulliken charges:
               1
     1  C   -0.298287
     2  C   -0.299637
     3  C   -0.475689
     4  H    0.149206
     5  H    0.149499
     6  H    0.151947
     7  H    0.152017
     8  H    0.155166
     9  H    0.155052
    10  H    0.160269
    11  C   -0.297688
    12  C   -0.303856
    13  C   -0.479195
    14  H    0.149541
    15  H    0.149865
    16  H    0.152923
    17  H    0.151920
    18  H    0.154385
    19  H    0.155042
    20  H    0.167177
    21  C   -0.298249
    22  C   -0.299609
    23  C   -0.475703
    24  H    0.149767
    25  H    0.149550
    26  H    0.151903
    27  H    0.151762
    28  H    0.155205
    29  H    0.155224
    30  H    0.160240
    31  C   -0.298288
    32  C   -0.300296
    33  C   -0.480803
    34  H    0.149482
    35  H    0.148795
    36  H    0.151588
    37  H    0.151665
    38  H    0.163841
    39  H    0.155347
    40  H    0.158920
 Sum of Mulliken charges =  -0.00000

 Dipole moment (field-independent basis, Debye):
    X=              0.0003    Y=             -0.0201    Z=              0.0028  Tot=              0.0203
 Quadrupole moment (field-independent basis, Debye-Ang):
   XX=            -85.0318   YY=            -85.4701   ZZ=            -84.3814
   XY=             -0.1478   XZ=              0.8319   YZ=              0.4679

 Normal termination of Gaussian 16 at Thu May  6 03:49:46 2021.
