 Gaussian 16, Revision A.03,
 Gaussian 16:  EM64L-G16RevA.03 25-Dec-2016

 -------------
 #p 6-31g* mp2
 -------------

 ------------------------------------------------------
 Input file generated by CHIRIPA (05-May-2021 14:57:23)
 ------------------------------------------------------
 Symbolic Z-matrix:
 Charge =  0 Multiplicity = 1

                         Standard orientation:
 ---------------------------------------------------------------------
 Center     Atomic      Atomic             Coordinates (Angstroms)
 Number     Number       Type             X           Y           Z
 ---------------------------------------------------------------------
      1          6           0        5.346482    1.472500   -0.079467
      2          6           0        5.478250    0.291700   -0.817619
      3          6           0        4.505737   -0.709302   -0.735380
      4          6           0        3.409434   -0.495343    0.098665
      5          6           0        3.249803    0.670179    0.846574
      6          6           0        4.234639    1.657645    0.748814
      7          1           0        6.106740    2.244844   -0.149381
      8          1           0        6.340662    0.145186   -1.461687
      9          1           0        4.582734   -1.633090   -1.295830
     10          1           0        2.378945    0.787486    1.480028
     11          1           0        4.129685    2.573658    1.323225
     12          7           0        2.373356   -1.547893    0.193944
     13          8           0        1.416936   -1.335127    0.935987
     14          8           0        2.537315   -2.565718   -0.475225
     15          6           0       -2.117613    2.371201   -0.247349
     16          6           0       -3.510064    2.500931   -0.275088
     17          6           0       -4.330236    1.372346   -0.184730
     18          6           0       -3.721590    0.123748   -0.067070
     19          6           0       -2.337331   -0.038080   -0.036585
     20          6           0       -1.536714    1.104344   -0.128395
     21          1           0       -1.488079    3.253288   -0.318105
     22          1           0       -3.963962    3.483531   -0.367389
     23          1           0       -5.410938    1.444034   -0.203692
     24          1           0       -1.913985   -1.030842    0.056260
     25          1           0       -0.455602    1.000582   -0.106590
     26          7           0       -4.579517   -1.078360    0.029357
     27          8           0       -4.018713   -2.167183    0.132311
     28          8           0       -5.796521   -0.908986    0.000155
 ---------------------------------------------------------------------

 SCF Done:  E(RHF) =  -868.338901260     A.U. after   16 cycles
 E2 =    -0.2599325056D+01 EUMP2 =    -0.87093822631652D+03

 The electronic state is 1-A.
 Alpha  occ. eigenvalues --  -20.61697 -20.61627 -20.60087 -20.60056 -15.86683
 Alpha  occ. eigenvalues --  -15.85125 -11.31960 -11.30482 -11.28546 -11.28461
 Alpha  occ. eigenvalues --  -11.28197 -11.27512 -11.27454 -11.27137 -11.26922
 Alpha  occ. eigenvalues --  -11.26915 -11.26187 -11.26031  -1.60716  -1.59152
 Alpha  occ. eigenvalues --   -1.40275  -1.38702  -1.20111  -1.18682  -1.09517
 Alpha  occ. eigenvalues --   -1.08107  -1.05497  -1.04060  -0.96368  -0.94925
 Alpha  occ. eigenvalues --   -0.86898  -0.85484  -0.83202  -0.81735  -0.78273
 Alpha  occ. eigenvalues --   -0.76758  -0.72893  -0.72031  -0.71345  -0.71204
 Alpha  occ. eigenvalues --   -0.70477  -0.69821  -0.65761  -0.65489  -0.64333
 Alpha  occ. eigenvalues --   -0.64079  -0.62844  -0.61375  -0.55980  -0.54652
 Alpha  occ. eigenvalues --   -0.53832  -0.53581  -0.52433  -0.52152  -0.49662
 Alpha  occ. eigenvalues --   -0.49637  -0.48116  -0.48088  -0.45685  -0.44107
 Alpha  occ. eigenvalues --   -0.38075  -0.37099  -0.36729  -0.35666
 Alpha virt. eigenvalues --    0.04211   0.05744   0.10495   0.11959   0.15720
 Alpha virt. eigenvalues --    0.17203   0.20479   0.22024   0.26012   0.27078
 Alpha virt. eigenvalues --    0.28422   0.28930   0.30312   0.31112   0.32600

 Mulliken charges:
               1
     1  C   -0.170312
     2  C   -0.218037
     3  C   -0.170198
     4  C    0.158271
     5  C   -0.176291
     6  C   -0.218336
     7  H    0.227996
     8  H    0.226405
     9  H    0.278150
    10  H    0.273664
    11  H    0.224373
    12  N    0.488243
    13  O   -0.467386
    14  O   -0.452238
    15  C   -0.171859
    16  C   -0.219177
    17  C   -0.171768
    18  C    0.157663
    19  C   -0.172065
    20  C   -0.222014
    21  H    0.219352
    22  H    0.219789
    23  H    0.273439
    24  H    0.290464
    25  H    0.224667
    26  N    0.487668
    27  O   -0.456305
    28  O   -0.464160
 Sum of Mulliken charges =  -0.00000

 Dipole moment (field-independent basis, Debye):
    X=              7.1124    Y=              7.6653    Z=             -0.7153  Tot=             10.4812
 Quadrupole moment (field-independent basis, Debye-Ang):
   XX=            -97.9619   YY=           -105.1327   ZZ=           -104.1178
   XY=             -8.3816   XZ=             -1.7302   YZ=              2.2544

 Normal termination of Gaussian 16 at Thu May  6 12:56:37 2021.
