 Gaussian 16, Revision A.03,
 Gaussian 16:  EM64L-G16RevA.03 25-Dec-2016

 -------------
 #p 6-31g* mp2
 -------------

 ------------------------------------------------------
 Input file generated by CHIRIPA (05-May-2021 14:57:21)
 ------------------------------------------------------
 Symbolic Z-matrix:
 Charge =  0 Multiplicity = 1

                         Standard orientation:
 ---------------------------------------------------------------------
 Center     Atomic      Atomic             Coordinates (Angstroms)
 Number     Number       Type             X           Y           Z
 ---------------------------------------------------------------------
      1          6           0        0.889365   -0.530809    0.754304
      2          6           0        1.801838   -1.590951    0.757911
      3          6           0        3.129263   -1.386539    0.369700
      4          6           0        3.511794   -0.103312   -0.017968
      5          6           0        2.626234    0.973197   -0.032199
      6          6           0        1.303745    0.745631    0.359955
      7          1           0       -0.139893   -0.698594    1.057407
      8          1           0        1.482830   -2.583313    1.063684
      9          1           0        3.856456   -2.189387    0.363108
     10          1           0        2.973791    1.951246   -0.342107
     11          1           0        0.597286    1.570826    0.356169
     12          7           0        4.914466    0.125346   -0.431037
     13          8           0        5.226526    1.265315   -0.768269
     14          8           0        5.675262   -0.839731   -0.409747
     15          6           0       -2.650424    2.531056    0.456249
     16          6           0       -3.217580    2.203489   -0.779694
     17          6           0       -3.570647    0.882518   -1.071115
     18          6           0       -3.341541   -0.090065   -0.099064
     19          6           0       -2.778241    0.204812    1.141513
     20          6           0       -2.432949    1.532432    1.411225
     21          1           0       -2.379172    3.559801    0.674200
     22          1           0       -3.387624    2.976963   -1.523244
     23          1           0       -4.011283    0.601143   -2.019845
     24          1           0       -2.620846   -0.588028    1.862658
     25          1           0       -1.992652    1.783913    2.371923
     26          7           0       -3.711203   -1.492038   -0.396087
     27          8           0       -3.499133   -2.330477    0.477229
     28          8           0       -4.206014   -1.725917   -1.496587
 ---------------------------------------------------------------------

 SCF Done:  E(RHF) =  -868.337254400     A.U. after   16 cycles
 E2 =    -0.2602186509D+01 EUMP2 =    -0.87093944090957D+03

 The electronic state is 1-A.
 Alpha  occ. eigenvalues --  -20.61852 -20.61819 -20.60796 -20.60786 -15.86896
 Alpha  occ. eigenvalues --  -15.85846 -11.32455 -11.31193 -11.29070 -11.28930
 Alpha  occ. eigenvalues --  -11.28744 -11.28116 -11.27980 -11.27784 -11.27723
 Alpha  occ. eigenvalues --  -11.27408 -11.26759 -11.26701  -1.60909  -1.59869
 Alpha  occ. eigenvalues --   -1.40459  -1.39424  -1.20638  -1.19353  -1.09978
 Alpha  occ. eigenvalues --   -1.08748  -1.06059  -1.04754  -0.96788  -0.95590
 Alpha  occ. eigenvalues --   -0.87429  -0.86144  -0.83604  -0.82427  -0.78635
 Alpha  occ. eigenvalues --   -0.77481  -0.73104  -0.72247  -0.72063  -0.71724
 Alpha  occ. eigenvalues --   -0.71193  -0.70463  -0.66263  -0.66006  -0.64999
 Alpha  occ. eigenvalues --   -0.64771  -0.63368  -0.62112  -0.56500  -0.55412
 Alpha  occ. eigenvalues --   -0.54241  -0.54068  -0.53087  -0.52816  -0.49878
 Alpha  occ. eigenvalues --   -0.49852  -0.48824  -0.48818  -0.45820  -0.44833
 Alpha  occ. eigenvalues --   -0.38601  -0.37639  -0.37323  -0.36366
 Alpha virt. eigenvalues --    0.03845   0.05046   0.09835   0.11292   0.15309
 Alpha virt. eigenvalues --    0.16548   0.19826   0.21861   0.25744   0.26480
 Alpha virt. eigenvalues --    0.27646   0.28861   0.29944   0.30606   0.32276

 Mulliken charges:
               1
     1  C   -0.174124
     2  C   -0.219900
     3  C   -0.170859
     4  C    0.158582
     5  C   -0.171689
     6  C   -0.224321
     7  H    0.228581
     8  H    0.228000
     9  H    0.276238
    10  H    0.273313
    11  H    0.219890
    12  N    0.488044
    13  O   -0.461784
    14  O   -0.459645
    15  C   -0.175883
    16  C   -0.216445
    17  C   -0.169162
    18  C    0.163760
    19  C   -0.187423
    20  C   -0.221410
    21  H    0.230391
    22  H    0.229300
    23  H    0.280439
    24  H    0.275611
    25  H    0.228550
    26  N    0.488344
    27  O   -0.461980
    28  O   -0.454417
 Sum of Mulliken charges =  -0.00000

 Dipole moment (field-independent basis, Debye):
    X=             -4.0219    Y=              4.1412    Z=              2.3460  Tot=              6.2313
 Quadrupole moment (field-independent basis, Debye-Ang):
   XX=           -147.9247   YY=           -100.6253   ZZ=           -101.6321
   XY=            -21.2856   XZ=              3.9336   YZ=             -3.1282

 Normal termination of Gaussian 16 at Thu May  6 21:04:11 2021.
