 Gaussian 16, Revision A.03,
 Gaussian 16:  EM64L-G16RevA.03 25-Dec-2016

 -------------
 #p 6-31g* mp2
 -------------

 ------------------------------------------------------
 Input file generated by CHIRIPA (05-May-2021 14:53:16)
 ------------------------------------------------------
 Symbolic Z-matrix:
 Charge =  0 Multiplicity = 1

                         Standard orientation:
 ---------------------------------------------------------------------
 Center     Atomic      Atomic             Coordinates (Angstroms)
 Number     Number       Type             X           Y           Z
 ---------------------------------------------------------------------
      1          6           0        2.318245    1.016846    0.016638
      2          6           0        2.324472    2.477475   -0.435588
      3          6           0        0.987754    3.178004   -0.190155
      4          1           0        1.518659    0.479537   -0.511478
      5          1           0        2.070962    0.972521    1.086349
      6          1           0        2.573028    2.519123   -1.503811
      7          1           0        3.124260    3.011324    0.093524
      8          1           0        0.736486    3.166060    0.875361
      9          1           0        0.182123    2.671062   -0.731051
     10          1           0        1.014445    4.221005   -0.520755
     11          6           0        3.647605    0.303052   -0.222168
     12          6           0        3.641378   -1.157578    0.230058
     13          6           0        4.978096   -1.858107   -0.015376
     14          1           0        3.894888    0.347377   -1.291879
     15          1           0        4.447191    0.840361    0.305948
     16          1           0        2.841590   -1.691427   -0.299055
     17          1           0        3.392822   -1.199225    1.298281
     18          1           0        5.783727   -1.351165    0.525520
     19          1           0        5.229364   -1.846163   -1.080891
     20          1           0        4.951405   -2.901108    0.315225
     21          6           0       -3.448158    1.744363    0.176191
     22          6           0       -2.153838    1.581599    0.680931
     23          6           0       -1.524758    0.333996    0.633057
     24          6           0       -2.222350   -0.734068    0.071014
     25          6           0       -3.512690   -0.603672   -0.440171
     26          6           0       -4.122266    0.653132   -0.381766
     27          1           0       -3.929267    2.717105    0.217470
     28          1           0       -1.627917    2.427292    1.114815
     29          1           0       -0.523423    0.179958    1.016488
     30          1           0       -4.011652   -1.465370   -0.866706
     31          1           0       -5.127524    0.776598   -0.774521
     32          7           0       -1.566696   -2.059720    0.014756
     33          8           0       -2.202638   -2.984924   -0.485454
     34          8           0       -0.429266   -2.148460    0.471939
 ---------------------------------------------------------------------

 SCF Done:  E(RHF) =  -669.534513177     A.U. after   15 cycles
 E2 =    -0.2094163137D+01 EUMP2 =    -0.67162867631400D+03

 The electronic state is 1-A.
 Alpha  occ. eigenvalues --  -20.60796 -20.60791 -15.85832 -11.31139 -11.27702
 Alpha  occ. eigenvalues --  -11.27620 -11.27420 -11.26720 -11.26615 -11.21932
 Alpha  occ. eigenvalues --  -11.21725 -11.21529 -11.21197 -11.20964 -11.20556
 Alpha  occ. eigenvalues --   -1.59863  -1.39417  -1.19307  -1.08715  -1.08419
 Alpha  occ. eigenvalues --   -1.04704  -1.03486  -0.96020  -0.95556  -0.87076
 Alpha  occ. eigenvalues --   -0.86073  -0.82397  -0.79646  -0.78193  -0.77361
 Alpha  occ. eigenvalues --   -0.72047  -0.71182  -0.70406  -0.65054  -0.64952
 Alpha  occ. eigenvalues --   -0.64711  -0.62071  -0.60885  -0.59413  -0.57590
 Alpha  occ. eigenvalues --   -0.55347  -0.55192  -0.53193  -0.52993  -0.52633
 Alpha  occ. eigenvalues --   -0.52103  -0.49984  -0.48818  -0.48811  -0.47868
 Alpha  occ. eigenvalues --   -0.46645  -0.45690  -0.45554  -0.44768  -0.43740
 Alpha  occ. eigenvalues --   -0.37293  -0.36226
 Alpha virt. eigenvalues --    0.05037   0.11259   0.16477   0.20719   0.23030
 Alpha virt. eigenvalues --    0.24264   0.25624   0.26427   0.27115   0.28456
 Alpha virt. eigenvalues --    0.29661   0.30218   0.31517   0.32013   0.32239

 Mulliken charges:
               1
     1  C   -0.305225
     2  C   -0.297717
     3  C   -0.485216
     4  H    0.156943
     5  H    0.144283
     6  H    0.154999
     7  H    0.153213
     8  H    0.144710
     9  H    0.161523
    10  H    0.162244
    11  C   -0.298111
    12  C   -0.302690
    13  C   -0.476265
    14  H    0.149519
    15  H    0.147727
    16  H    0.168018
    17  H    0.152407
    18  H    0.151641
    19  H    0.153589
    20  H    0.163281
    21  C   -0.172848
    22  C   -0.221527
    23  C   -0.176313
    24  C    0.156561
    25  C   -0.171218
    26  C   -0.218638
    27  H    0.225659
    28  H    0.230560
    29  H    0.283992
    30  H    0.275104
    31  H    0.223081
    32  N    0.488432
    33  O   -0.460109
    34  O   -0.461608
 Sum of Mulliken charges =  -0.00000

 Dipole moment (field-independent basis, Debye):
    X=             -2.2595    Y=              4.5420    Z=              0.1268  Tot=              5.0746
 Quadrupole moment (field-independent basis, Debye-Ang):
   XX=            -82.2988   YY=           -101.8693   ZZ=            -93.6541
   XY=             -6.6641   XZ=              1.6992   YZ=              1.2162

 Normal termination of Gaussian 16 at Wed May  5 17:13:56 2021.
