 Gaussian 16, Revision A.03,
 Gaussian 16:  EM64L-G16RevA.03 25-Dec-2016

 -------------
 #p 6-31g* mp2
 -------------

 ------------------------------------------------------
 Input file generated by CHIRIPA (05-May-2021 14:51:10)
 ------------------------------------------------------
 Symbolic Z-matrix:
 Charge =  0 Multiplicity = 1

                         Standard orientation:
 ---------------------------------------------------------------------
 Center     Atomic      Atomic             Coordinates (Angstroms)
 Number     Number       Type             X           Y           Z
 ---------------------------------------------------------------------
      1          6           0        3.055792    1.045751   -0.325453
      2          6           0        2.801430    2.297404    0.515172
      3          6           0        2.025958    3.373130   -0.245914
      4          1           0        3.609417    1.326786   -1.231799
      5          1           0        2.093061    0.636402   -0.661574
      6          1           0        3.764289    2.703482    0.850760
      7          1           0        2.248513    2.013328    1.419715
      8          1           0        1.051719    2.990907   -0.567417
      9          1           0        2.576107    3.684983   -1.139606
     10          1           0        1.855175    4.259012    0.373688
     11          6           0        3.830012   -0.038751    0.421653
     12          6           0        4.084374   -1.290404   -0.418971
     13          6           0        4.859846   -2.366130    0.342115
     14          1           0        4.792743    0.370598    0.757775
     15          1           0        3.276387   -0.319786    1.328000
     16          1           0        4.637291   -1.006328   -1.323515
     17          1           0        3.121515   -1.696482   -0.754559
     18          1           0        4.309697   -2.677983    1.235806
     19          1           0        5.834085   -1.983907    0.663618
     20          1           0        5.030629   -3.252012   -0.277487
     21          6           0       -4.151669   -0.578887    0.226486
     22          6           0       -5.090445    0.550195   -0.199961
     23          6           0       -6.504708    0.385317    0.357236
     24          1           0       -4.568724   -1.539269   -0.106193
     25          1           0       -4.112090   -0.618655    1.323868
     26          1           0       -5.127165    0.588712   -1.296220
     27          1           0       -4.671011    1.508018    0.133605
     28          1           0       -6.488049    0.368974    1.451794
     29          1           0       -6.946795   -0.555556    0.013845
     30          1           0       -7.159059    1.203298    0.040072
     31          6           0       -2.734135   -0.428113   -0.322687
     32          6           0       -1.795359   -1.557195    0.103761
     33          6           0       -0.381096   -1.392317   -0.453437
     34          1           0       -2.773714   -0.388346   -1.420069
     35          1           0       -2.317080    0.532270    0.009992
     36          1           0       -2.214794   -2.515018   -0.229805
     37          1           0       -1.758639   -1.595711    1.200021
     38          1           0        0.060992   -0.451444   -0.110046
     39          1           0       -0.397754   -1.375973   -1.547994
     40          1           0        0.273254   -2.210297   -0.136273
 ---------------------------------------------------------------------

 SCF Done:  E(RHF) =  -470.733193204     A.U. after   11 cycles
 E2 =    -0.1583072222D+01 EUMP2 =    -0.47231626542644D+03

 The electronic state is 1-A.
 Alpha  occ. eigenvalues --  -11.21683 -11.21633 -11.21572 -11.21517 -11.21463
 Alpha  occ. eigenvalues --  -11.21400 -11.21323 -11.21253 -11.21182 -11.21095
 Alpha  occ. eigenvalues --  -11.21060 -11.21023  -1.08490  -1.08367  -1.03594
 Alpha  occ. eigenvalues --   -1.03482  -0.96055  -0.95926  -0.87072  -0.86947
 Alpha  occ. eigenvalues --   -0.79668  -0.79541  -0.78314  -0.78158  -0.65164
 Alpha  occ. eigenvalues --   -0.64976  -0.61010  -0.60873  -0.59418  -0.59290
 Alpha  occ. eigenvalues --   -0.57682  -0.57523  -0.55431  -0.55139  -0.52756
 Alpha  occ. eigenvalues --   -0.52624  -0.52516  -0.52321  -0.50055  -0.49819
 Alpha  occ. eigenvalues --   -0.48030  -0.47832  -0.46750  -0.46536  -0.45942
 Alpha  occ. eigenvalues --   -0.45771  -0.45703  -0.45437  -0.43834  -0.43726
 Alpha virt. eigenvalues --    0.20703   0.22961   0.23725   0.24682   0.25638
 Alpha virt. eigenvalues --    0.26641   0.27239   0.27450   0.27931   0.29483
 Alpha virt. eigenvalues --    0.29651   0.31552   0.31697   0.31913   0.32360

 Mulliken charges:
               1
     1  C   -0.305885
     2  C   -0.299769
     3  C   -0.475639
     4  H    0.149418
     5  H    0.157985
     6  H    0.151986
     7  H    0.151049
     8  H    0.154594
     9  H    0.155441
    10  H    0.160032
    11  C   -0.297373
    12  C   -0.302983
    13  C   -0.475649
    14  H    0.149125
    15  H    0.149237
    16  H    0.151578
    17  H    0.156100
    18  H    0.154801
    19  H    0.155000
    20  H    0.159958
    21  C   -0.298318
    22  C   -0.299730
    23  C   -0.475749
    24  H    0.149818
    25  H    0.149624
    26  H    0.152045
    27  H    0.152091
    28  H    0.155231
    29  H    0.155225
    30  H    0.160419
    31  C   -0.298499
    32  C   -0.300203
    33  C   -0.480751
    34  H    0.149809
    35  H    0.149424
    36  H    0.152386
    37  H    0.152088
    38  H    0.158779
    39  H    0.155978
    40  H    0.161328
 Sum of Mulliken charges =  -0.00000

 Dipole moment (field-independent basis, Debye):
    X=             -0.0484    Y=             -0.0185    Z=             -0.0188  Tot=              0.0551
 Quadrupole moment (field-independent basis, Debye-Ang):
   XX=            -85.4743   YY=            -85.1518   ZZ=            -84.2628
   XY=              1.0152   XZ=              0.0081   YZ=              0.6801

 Normal termination of Gaussian 16 at Wed May  5 16:43:07 2021.
