 Gaussian 16, Revision A.03,
 Gaussian 16:  EM64L-G16RevA.03 25-Dec-2016

 -------------
 #p 6-31g* mp2
 -------------

 ------------------------------------------------------
 Input file generated by CHIRIPA (05-May-2021 14:55:23)
 ------------------------------------------------------
 Symbolic Z-matrix:
 Charge =  0 Multiplicity = 1

                         Standard orientation:
 ---------------------------------------------------------------------
 Center     Atomic      Atomic             Coordinates (Angstroms)
 Number     Number       Type             X           Y           Z
 ---------------------------------------------------------------------
      1          6           0       -2.071172    1.799430    1.604423
      2          6           0       -3.118946    1.572933    0.705874
      3          6           0       -3.155849    0.405229   -0.062014
      4          6           0       -2.123924   -0.518816    0.094707
      5          6           0       -1.066491   -0.321859    0.981461
      6          6           0       -1.050088    0.852979    1.739111
      7          1           0       -2.050468    2.709301    2.196960
      8          1           0       -3.913283    2.306208    0.599190
      9          1           0       -3.955080    0.204552   -0.765134
     10          1           0       -0.288879   -1.071270    1.065853
     11          1           0       -0.235124    1.026225    2.436150
     12          7           0       -2.152140   -1.758789   -0.712803
     13          8           0       -1.231005   -2.557301   -0.556195
     14          8           0       -3.094856   -1.908688   -1.487047
     15          6           0        2.645838    1.163339   -0.301089
     16          6           0        1.661558    1.672453   -1.354645
     17          6           0        1.538733    3.196482   -1.361386
     18          1           0        2.324402    1.511105    0.690214
     19          1           0        3.632493    1.610829   -0.484552
     20          1           0        0.677385    1.223060   -1.170079
     21          1           0        1.985267    1.323274   -2.343535
     22          1           0        2.508695    3.660227   -1.568067
     23          1           0        1.193382    3.559444   -0.387944
     24          1           0        0.830084    3.538777   -2.121984
     25          6           0        2.779503   -0.358337   -0.282064
     26          6           0        3.763783   -0.867452    0.771492
     27          6           0        3.886608   -2.391480    0.778233
     28          1           0        1.792848   -0.805828   -0.098601
     29          1           0        3.100938   -0.706103   -1.273368
     30          1           0        3.440074   -0.518273    1.760382
     31          1           0        4.747956   -0.418058    0.586925
     32          1           0        4.231960   -2.754442   -0.195210
     33          1           0        2.916646   -2.855225    0.984914
     34          1           0        4.595257   -2.733775    1.538831
 ---------------------------------------------------------------------

 SCF Done:  E(RHF) =  -669.535221217     A.U. after   15 cycles
 E2 =    -0.2093846746D+01 EUMP2 =    -0.67162906796291D+03

 The electronic state is 1-A.
 Alpha  occ. eigenvalues --  -20.60858 -20.60853 -15.85909 -11.31305 -11.27874
 Alpha  occ. eigenvalues --  -11.27864 -11.27611 -11.26899 -11.26874 -11.21785
 Alpha  occ. eigenvalues --  -11.21691 -11.21624 -11.21501 -11.21295 -11.21057
 Alpha  occ. eigenvalues --   -1.59929  -1.39482  -1.19483  -1.08863  -1.08610
 Alpha  occ. eigenvalues --   -1.04887  -1.03666  -0.96122  -0.95695  -0.87132
 Alpha  occ. eigenvalues --   -0.86281  -0.82525  -0.79727  -0.78424  -0.77570
 Alpha  occ. eigenvalues --   -0.72126  -0.71251  -0.70591  -0.65328  -0.65115
 Alpha  occ. eigenvalues --   -0.64871  -0.62224  -0.61079  -0.59484  -0.57721
 Alpha  occ. eigenvalues --   -0.55490  -0.55306  -0.53223  -0.52996  -0.52789
 Alpha  occ. eigenvalues --   -0.52520  -0.50054  -0.48888  -0.48881  -0.48033
 Alpha  occ. eigenvalues --   -0.46765  -0.45950  -0.45886  -0.44861  -0.43935
 Alpha  occ. eigenvalues --   -0.37445  -0.36441
 Alpha virt. eigenvalues --    0.04922   0.11057   0.16386   0.19703   0.23119
 Alpha virt. eigenvalues --    0.23625   0.25628   0.26117   0.27697   0.28331
 Alpha virt. eigenvalues --    0.29495   0.30616   0.31243   0.31703   0.31776

 Mulliken charges:
               1
     1  C   -0.170782
     2  C   -0.217975
     3  C   -0.170837
     4  C    0.158677
     5  C   -0.173008
     6  C   -0.218470
     7  H    0.226357
     8  H    0.224126
     9  H    0.276144
    10  H    0.278775
    11  H    0.224572
    12  N    0.488413
    13  O   -0.461086
    14  O   -0.459697
    15  C   -0.296918
    16  C   -0.302739
    17  C   -0.474438
    18  H    0.140106
    19  H    0.150734
    20  H    0.156451
    21  H    0.154744
    22  H    0.155386
    23  H    0.149498
    24  H    0.160840
    25  C   -0.304178
    26  C   -0.299595
    27  C   -0.476041
    28  H    0.151459
    29  H    0.155568
    30  H    0.144267
    31  H    0.152997
    32  H    0.158822
    33  H    0.158283
    34  H    0.159545
 Sum of Mulliken charges =  -0.00000

 Dipole moment (field-independent basis, Debye):
    X=              0.0333    Y=              4.2775    Z=              2.7484  Tot=              5.0844
 Quadrupole moment (field-independent basis, Debye-Ang):
   XX=            -90.9711   YY=           -100.7019   ZZ=            -93.4495
   XY=            -11.0202   XZ=             -4.8793   YZ=             -1.5755

 Normal termination of Gaussian 16 at Thu May  6 19:16:55 2021.
