 Gaussian 16, Revision A.03,
 Gaussian 16:  EM64L-G16RevA.03 25-Dec-2016

 -------------
 #p 6-31g* mp2
 -------------

 ------------------------------------------------------
 Input file generated by CHIRIPA (05-May-2021 14:53:17)
 ------------------------------------------------------
 Symbolic Z-matrix:
 Charge =  0 Multiplicity = 1

                         Standard orientation:
 ---------------------------------------------------------------------
 Center     Atomic      Atomic             Coordinates (Angstroms)
 Number     Number       Type             X           Y           Z
 ---------------------------------------------------------------------
      1          6           0       -3.612923   -1.116229    0.196759
      2          6           0       -2.191445   -1.136075   -0.366262
      3          6           0       -1.426452   -2.406948    0.004497
      4          1           0       -3.568801   -1.213533    1.290162
      5          1           0       -4.158783   -1.995066   -0.173481
      6          1           0       -1.648858   -0.256727    0.003822
      7          1           0       -2.238947   -1.038520   -1.458435
      8          1           0       -1.942895   -3.293043   -0.378548
      9          1           0       -1.349454   -2.506808    1.092017
     10          1           0       -0.412790   -2.400176   -0.408183
     11          6           0       -4.390372    0.147949   -0.165394
     12          6           0       -5.811849    0.167796    0.397627
     13          6           0       -6.576843    1.438668    0.026869
     14          1           0       -3.844512    1.026786    0.204846
     15          1           0       -4.434493    0.245254   -1.258797
     16          1           0       -5.764348    0.070240    1.489800
     17          1           0       -6.354436   -0.711552    0.027543
     18          1           0       -6.653841    1.538528   -1.060652
     19          1           0       -6.060400    2.324763    0.409914
     20          1           0       -7.590504    1.431896    0.439548
     21          6           0        1.892785    2.576529   -0.121334
     22          6           0        3.266288    2.556898    0.142536
     23          6           0        3.959972    1.344705    0.205292
     24          6           0        3.245538    0.165711   -0.001707
     25          6           0        1.876972    0.152484   -0.266551
     26          6           0        1.203726    1.376375   -0.324677
     27          1           0        1.361854    3.522733   -0.168286
     28          1           0        3.804002    3.487404    0.300863
     29          1           0        5.023192    1.300577    0.407856
     30          1           0        1.368149   -0.791415   -0.420088
     31          1           0        0.137036    1.388588   -0.529782
     32          7           0        3.969090   -1.123776    0.062279
     33          8           0        3.316712   -2.148689   -0.123709
     34          8           0        5.174891   -1.085145    0.297208
 ---------------------------------------------------------------------

 SCF Done:  E(RHF) =  -669.535241747     A.U. after   15 cycles
 E2 =    -0.2092006189D+01 EUMP2 =    -0.67162724793608D+03

 The electronic state is 1-A.
 Alpha  occ. eigenvalues --  -20.60731 -20.60726 -15.85782 -11.31130 -11.27709
 Alpha  occ. eigenvalues --  -11.27675 -11.27446 -11.26724 -11.26678 -11.22387
 Alpha  occ. eigenvalues --  -11.22059 -11.21983 -11.21925 -11.21573 -11.21491
 Alpha  occ. eigenvalues --   -1.59805  -1.39360  -1.19306  -1.09015  -1.08705
 Alpha  occ. eigenvalues --   -1.04711  -1.04088  -0.96505  -0.95541  -0.87515
 Alpha  occ. eigenvalues --   -0.86107  -0.82378  -0.80169  -0.78841  -0.77423
 Alpha  occ. eigenvalues --   -0.72003  -0.71127  -0.70430  -0.65653  -0.64957
 Alpha  occ. eigenvalues --   -0.64720  -0.62191  -0.61426  -0.59840  -0.58121
 Alpha  occ. eigenvalues --   -0.55766  -0.55206  -0.53236  -0.53057  -0.53036
 Alpha  occ. eigenvalues --   -0.52639  -0.50419  -0.48761  -0.48758  -0.48459
 Alpha  occ. eigenvalues --   -0.47198  -0.46363  -0.46286  -0.44768  -0.44334
 Alpha  occ. eigenvalues --   -0.37291  -0.36305
 Alpha virt. eigenvalues --    0.05101   0.11334   0.16555   0.19544   0.22626
 Alpha virt. eigenvalues --    0.23674   0.25009   0.26053   0.26471   0.28430
 Alpha virt. eigenvalues --    0.29165   0.29611   0.31146   0.31552   0.32427

 Mulliken charges:
               1
     1  C   -0.297813
     2  C   -0.307346
     3  C   -0.481887
     4  H    0.152228
     5  H    0.153355
     6  H    0.144088
     7  H    0.153281
     8  H    0.161372
     9  H    0.160274
    10  H    0.164403
    11  C   -0.298261
    12  C   -0.300114
    13  C   -0.475959
    14  H    0.145224
    15  H    0.149992
    16  H    0.153191
    17  H    0.153882
    18  H    0.155531
    19  H    0.154109
    20  H    0.162099
    21  C   -0.170781
    22  C   -0.219051
    23  C   -0.170028
    24  C    0.157612
    25  C   -0.178826
    26  C   -0.226968
    27  H    0.225573
    28  H    0.223176
    29  H    0.275447
    30  H    0.287649
    31  H    0.229265
    32  N    0.486912
    33  O   -0.461160
    34  O   -0.460469
 Sum of Mulliken charges =  -0.00000

 Dipole moment (field-independent basis, Debye):
    X=             -2.7240    Y=              4.4105    Z=             -0.1992  Tot=              5.1877
 Quadrupole moment (field-independent basis, Debye-Ang):
   XX=           -107.6033   YY=            -92.6672   ZZ=            -94.7387
   XY=             17.8989   XZ=              0.3379   YZ=              1.0211

 Normal termination of Gaussian 16 at Thu May  6 02:49:22 2021.
