 Gaussian 16, Revision A.03,
 Gaussian 16:  EM64L-G16RevA.03 25-Dec-2016

 -------------
 #p 6-31g* mp2
 -------------

 ------------------------------------------------------
 Input file generated by CHIRIPA (05-May-2021 14:57:22)
 ------------------------------------------------------
 Symbolic Z-matrix:
 Charge =  0 Multiplicity = 1

                         Standard orientation:
 ---------------------------------------------------------------------
 Center     Atomic      Atomic             Coordinates (Angstroms)
 Number     Number       Type             X           Y           Z
 ---------------------------------------------------------------------
      1          6           0       -3.796426    0.809742   -1.950681
      2          6           0       -3.354911   -0.517262   -1.925289
      3          6           0       -2.797741   -1.058038   -0.762675
      4          6           0       -2.696846   -0.239772    0.361403
      5          6           0       -3.127661    1.085993    0.367459
      6          6           0       -3.681594    1.605731   -0.806244
      7          1           0       -4.227992    1.221659   -2.858134
      8          1           0       -3.442841   -1.137768   -2.812580
      9          1           0       -2.447925   -2.082151   -0.715351
     10          1           0       -3.026836    1.679983    1.267697
     11          1           0       -4.023641    2.636637   -0.823064
     12          7           0       -2.108709   -0.801132    1.598080
     13          8           0       -2.030941   -0.059503    2.575104
     14          8           0       -1.736630   -1.972125    1.566947
     15          6           0        2.536278    2.607291    0.340241
     16          6           0        1.407235    1.784047    0.276628
     17          6           0        1.538015    0.419581    0.001529
     18          6           0        2.818673   -0.090574   -0.205711
     19          6           0        3.962777    0.703841   -0.148954
     20          6           0        3.808204    2.065517    0.127623
     21          1           0        2.425444    3.666157    0.554518
     22          1           0        0.418200    2.202055    0.441326
     23          1           0        0.680897   -0.240518   -0.053560
     24          1           0        4.935629    0.258273   -0.317613
     25          1           0        4.686811    2.702473    0.176413
     26          7           0        2.969718   -1.533595   -0.497729
     27          8           0        4.109010   -1.958665   -0.676526
     28          8           0        1.945956   -2.212244   -0.542285
 ---------------------------------------------------------------------

 SCF Done:  E(RHF) =  -868.337557303     A.U. after   16 cycles
 E2 =    -0.2600928302D+01 EUMP2 =    -0.87093848560456D+03

 The electronic state is 1-A.
 Alpha  occ. eigenvalues --  -20.61181 -20.61105 -20.60394 -20.60368 -15.86183
 Alpha  occ. eigenvalues --  -15.85438 -11.31668 -11.30847 -11.28278 -11.28125
 Alpha  occ. eigenvalues --  -11.27926 -11.27434 -11.27420 -11.27271 -11.27200
 Alpha  occ. eigenvalues --  -11.27155 -11.26472 -11.26451  -1.60228  -1.59458
 Alpha  occ. eigenvalues --   -1.39766  -1.39009  -1.19830  -1.19027  -1.09198
 Alpha  occ. eigenvalues --   -1.08420  -1.05214  -1.04442  -0.96008  -0.95248
 Alpha  occ. eigenvalues --   -0.86604  -0.85841  -0.82815  -0.82080  -0.77863
 Alpha  occ. eigenvalues --   -0.77117  -0.72374  -0.71697  -0.71570  -0.70879
 Alpha  occ. eigenvalues --   -0.70778  -0.70142  -0.65450  -0.65184  -0.64687
 Alpha  occ. eigenvalues --   -0.64459  -0.62535  -0.61797  -0.55682  -0.54967
 Alpha  occ. eigenvalues --   -0.53560  -0.53276  -0.52758  -0.52550  -0.49165
 Alpha  occ. eigenvalues --   -0.49135  -0.48425  -0.48407  -0.45122  -0.44403
 Alpha  occ. eigenvalues --   -0.37814  -0.37017  -0.36826  -0.36032
 Alpha virt. eigenvalues --    0.04626   0.05429   0.10725   0.11617   0.16115
 Alpha virt. eigenvalues --    0.16907   0.20919   0.21534   0.26546   0.27040
 Alpha virt. eigenvalues --    0.28110   0.28370   0.30599   0.30907   0.32060

 Mulliken charges:
               1
     1  C   -0.170700
     2  C   -0.217582
     3  C   -0.172448
     4  C    0.150543
     5  C   -0.178283
     6  C   -0.219001
     7  H    0.227567
     8  H    0.228097
     9  H    0.284768
    10  H    0.273983
    11  H    0.223560
    12  N    0.485970
    13  O   -0.462578
    14  O   -0.449321
    15  C   -0.170940
    16  C   -0.216214
    17  C   -0.168992
    18  C    0.158177
    19  C   -0.170858
    20  C   -0.218664
    21  H    0.223615
    22  H    0.220487
    23  H    0.274059
    24  H    0.274844
    25  H    0.222115
    26  N    0.487769
    27  O   -0.462320
    28  O   -0.457653
 Sum of Mulliken charges =  -0.00000

 Dipole moment (field-independent basis, Debye):
    X=             -2.7751    Y=              6.8127    Z=             -3.3963  Tot=              8.1024
 Quadrupole moment (field-independent basis, Debye-Ang):
   XX=            -92.1783   YY=           -103.3750   ZZ=           -108.4978
   XY=              9.9126   XZ=             13.9967   YZ=              2.8649

 Normal termination of Gaussian 16 at Thu May  6 16:14:52 2021.
