 Gaussian 16, Revision A.03,
 Gaussian 16:  EM64L-G16RevA.03 25-Dec-2016

 -------------
 #p 6-31g* mp2
 -------------

 ------------------------------------------------------
 Input file generated by CHIRIPA (05-May-2021 14:57:25)
 ------------------------------------------------------
 Symbolic Z-matrix:
 Charge =  0 Multiplicity = 1

                         Standard orientation:
 ---------------------------------------------------------------------
 Center     Atomic      Atomic             Coordinates (Angstroms)
 Number     Number       Type             X           Y           Z
 ---------------------------------------------------------------------
      1          6           0       -1.105792   -1.202961    1.640382
      2          6           0       -1.439065    0.146829    1.793735
      3          6           0       -2.445872    0.722690    1.013177
      4          6           0       -3.101889   -0.084106    0.084731
      5          6           0       -2.792681   -1.431932   -0.091470
      6          6           0       -1.782471   -1.986652    0.699927
      7          1           0       -0.322359   -1.642092    2.250949
      8          1           0       -0.915229    0.757857    2.523314
      9          1           0       -2.724034    1.765009    1.111240
     10          1           0       -3.332579   -2.015709   -0.827086
     11          1           0       -1.525759   -3.035193    0.578666
     12          7           0       -4.169551    0.514342   -0.747349
     13          8           0       -4.732549   -0.217827   -1.558273
     14          8           0       -4.423172    1.704243   -0.572852
     15          6           0        2.607913    2.668120    0.074213
     16          6           0        1.497214    1.818242    0.050248
     17          6           0        1.661539    0.439539   -0.113230
     18          6           0        2.956669   -0.057540   -0.250492
     19          6           0        4.083156    0.763390   -0.230740
     20          6           0        3.895071    2.138916   -0.066109
     21          1           0        2.471033    3.737895    0.201654
     22          1           0        0.496417    2.226438    0.158989
     23          1           0        0.819206   -0.241195   -0.135425
     24          1           0        5.068420    0.327067   -0.341620
     25          1           0        4.759491    2.796554   -0.047879
     26          7           0        3.143210   -1.515428   -0.424168
     27          8           0        4.294673   -1.928524   -0.543002
     28          8           0        2.134425   -2.217422   -0.438175
 ---------------------------------------------------------------------

 SCF Done:  E(RHF) =  -868.338240843     A.U. after   16 cycles
 E2 =    -0.2602660579D+01 EUMP2 =    -0.87094090142197D+03

 The electronic state is 1-A.
 Alpha  occ. eigenvalues --  -20.61332 -20.61286 -20.61157 -20.61136 -15.86356
 Alpha  occ. eigenvalues --  -15.86205 -11.31655 -11.31543 -11.28284 -11.28130
 Alpha  occ. eigenvalues --  -11.28121 -11.27979 -11.27849 -11.27813 -11.27277
 Alpha  occ. eigenvalues --  -11.27102 -11.27065 -11.27060  -1.60386  -1.60224
 Alpha  occ. eigenvalues --   -1.39945  -1.39775  -1.19847  -1.19713  -1.09187
 Alpha  occ. eigenvalues --   -1.09156  -1.05252  -1.05062  -0.96054  -0.95956
 Alpha  occ. eigenvalues --   -0.86576  -0.86507  -0.82870  -0.82789  -0.77962
 Alpha  occ. eigenvalues --   -0.77829  -0.72586  -0.72413  -0.71710  -0.71554
 Alpha  occ. eigenvalues --   -0.70886  -0.70780  -0.65451  -0.65371  -0.65169
 Alpha  occ. eigenvalues --   -0.65067  -0.62586  -0.62433  -0.55658  -0.55602
 Alpha  occ. eigenvalues --   -0.53690  -0.53436  -0.53227  -0.53001  -0.49341
 Alpha  occ. eigenvalues --   -0.49316  -0.49180  -0.49168  -0.45389  -0.45163
 Alpha  occ. eigenvalues --   -0.37870  -0.37709  -0.36977  -0.36458
 Alpha virt. eigenvalues --    0.04429   0.04740   0.10728   0.10951   0.15920
 Alpha virt. eigenvalues --    0.16246   0.20610   0.21674   0.26147   0.27702
 Alpha virt. eigenvalues --    0.28162   0.28203   0.30735   0.31036   0.32258

 Mulliken charges:
               1
     1  C   -0.182518
     2  C   -0.223821
     3  C   -0.179541
     4  C    0.159397
     5  C   -0.171579
     6  C   -0.212502
     7  H    0.235929
     8  H    0.224728
     9  H    0.273626
    10  H    0.279356
    11  H    0.236115
    12  N    0.488144
    13  O   -0.457026
    14  O   -0.461801
    15  C   -0.170195
    16  C   -0.225176
    17  C   -0.178876
    18  C    0.155112
    19  C   -0.170275
    20  C   -0.219275
    21  H    0.226955
    22  H    0.222929
    23  H    0.287000
    24  H    0.275898
    25  H    0.224553
    26  N    0.488174
    27  O   -0.458033
    28  O   -0.467298
 Sum of Mulliken charges =  -0.00000

 Dipole moment (field-independent basis, Debye):
    X=              2.9986    Y=              2.7602    Z=              3.5367  Tot=              5.3961
 Quadrupole moment (field-independent basis, Debye-Ang):
   XX=           -127.4689   YY=           -101.2887   ZZ=           -104.9000
   XY=             23.7625   XZ=             -6.6941   YZ=              0.2142

 Normal termination of Gaussian 16 at Wed May  5 21:07:19 2021.
