 Gaussian 16, Revision A.03,
 Gaussian 16:  EM64L-G16RevA.03 25-Dec-2016

 -------------
 #p 6-31g* mp2
 -------------

 ------------------------------------------------------
 Input file generated by CHIRIPA (05-May-2021 14:53:13)
 ------------------------------------------------------
 Symbolic Z-matrix:
 Charge =  0 Multiplicity = 1

                         Standard orientation:
 ---------------------------------------------------------------------
 Center     Atomic      Atomic             Coordinates (Angstroms)
 Number     Number       Type             X           Y           Z
 ---------------------------------------------------------------------
      1          6           0       -2.486610    1.068306   -0.676728
      2          6           0       -2.226528    2.129067    0.393379
      3          6           0       -1.901605    3.500209   -0.200076
      4          1           0       -1.604557    0.988400   -1.326760
      5          1           0       -3.317146    1.398333   -1.316014
      6          1           0       -1.397636    1.796500    1.031308
      7          1           0       -3.109230    2.206322    1.041057
      8          1           0       -2.729662    3.857327   -0.820873
      9          1           0       -1.008344    3.445178   -0.830677
     10          1           0       -1.719210    4.243354    0.582437
     11          6           0       -2.812805   -0.307768   -0.099022
     12          6           0       -3.072887   -1.368529   -1.169128
     13          6           0       -3.397810   -2.739670   -0.575673
     14          1           0       -1.982268   -0.637794    0.540265
     15          1           0       -3.694858   -0.227862    0.551011
     16          1           0       -2.190185   -1.445783   -1.816806
     17          1           0       -3.901779   -1.035962   -1.807057
     18          1           0       -4.291071   -2.684639    0.054928
     19          1           0       -2.569753   -3.096789    0.045124
     20          1           0       -3.580205   -3.482815   -1.358187
     21          6           0        0.398671   -0.938314    2.080983
     22          6           0        0.901667   -1.910305    1.209922
     23          6           0        1.828161   -1.566404    0.221039
     24          6           0        2.231670   -0.235094    0.131141
     25          6           0        1.748821    0.756170    0.984101
     26          6           0        0.823105    0.389482    1.965496
     27          1           0       -0.320750   -1.214315    2.846263
     28          1           0        0.573837   -2.942265    1.297283
     29          1           0        2.233710   -2.298730   -0.466455
     30          1           0        2.094491    1.776697    0.872491
     31          1           0        0.434163    1.146456    2.640595
     32          7           0        3.212096    0.141042   -0.911782
     33          8           0        3.551654    1.320836   -0.970278
     34          8           0        3.622431   -0.751061   -1.650981
 ---------------------------------------------------------------------

 SCF Done:  E(RHF) =  -669.534261016     A.U. after   15 cycles
 E2 =    -0.2095212936D+01 EUMP2 =    -0.67162947395284D+03

 The electronic state is 1-A.
 Alpha  occ. eigenvalues --  -20.60893 -20.60888 -15.85949 -11.31364 -11.27938
 Alpha  occ. eigenvalues --  -11.27934 -11.27666 -11.26958 -11.26933 -11.21920
 Alpha  occ. eigenvalues --  -11.21898 -11.21648 -11.21588 -11.21570 -11.21346
 Alpha  occ. eigenvalues --   -1.59968  -1.39520  -1.19555  -1.08965  -1.08708
 Alpha  occ. eigenvalues --   -1.04963  -1.03873  -0.96323  -0.95758  -0.87340
 Alpha  occ. eigenvalues --   -0.86352  -0.82589  -0.79945  -0.78576  -0.77617
 Alpha  occ. eigenvalues --   -0.72164  -0.71294  -0.70642  -0.65442  -0.65195
 Alpha  occ. eigenvalues --   -0.64918  -0.62326  -0.61261  -0.59694  -0.57945
 Alpha  occ. eigenvalues --   -0.55653  -0.55417  -0.53352  -0.53051  -0.52993
 Alpha  occ. eigenvalues --   -0.52750  -0.50271  -0.48929  -0.48917  -0.48272
 Alpha  occ. eigenvalues --   -0.46987  -0.46092  -0.46021  -0.44914  -0.44101
 Alpha  occ. eigenvalues --   -0.37398  -0.36492
 Alpha virt. eigenvalues --    0.04877   0.10941   0.16244   0.20452   0.22981
 Alpha virt. eigenvalues --    0.23366   0.26518   0.26693   0.27170   0.27493
 Alpha virt. eigenvalues --    0.28868   0.30287   0.31208   0.31355   0.31801

 Mulliken charges:
               1
     1  C   -0.296736
     2  C   -0.305237
     3  C   -0.476926
     4  H    0.152863
     5  H    0.150509
     6  H    0.149758
     7  H    0.149485
     8  H    0.157578
     9  H    0.158792
    10  H    0.157454
    11  C   -0.306003
    12  C   -0.299361
    13  C   -0.474611
    14  H    0.153836
    15  H    0.146238
    16  H    0.154257
    17  H    0.153598
    18  H    0.155246
    19  H    0.146637
    20  H    0.162439
    21  C   -0.173166
    22  C   -0.218164
    23  C   -0.170626
    24  C    0.158592
    25  C   -0.170788
    26  C   -0.216864
    27  H    0.228363
    28  H    0.225168
    29  H    0.276529
    30  H    0.276952
    31  H    0.225891
    32  N    0.487997
    33  O   -0.459851
    34  O   -0.459851
 Sum of Mulliken charges =  -0.00000

 Dipole moment (field-independent basis, Debye):
    X=             -3.3209    Y=             -1.3405    Z=              3.6407  Tot=              5.1068
 Quadrupole moment (field-independent basis, Debye-Ang):
   XX=           -110.2889   YY=            -90.8857   ZZ=            -93.8215
   XY=             -2.8337   XZ=              8.0425   YZ=              0.8177

 Normal termination of Gaussian 16 at Thu May  6 18:44:25 2021.
