 Gaussian 16, Revision A.03,
 Gaussian 16:  EM64L-G16RevA.03 25-Dec-2016

 -------------
 #p 6-31g* mp2
 -------------

 ------------------------------------------------------
 Input file generated by CHIRIPA (05-May-2021 14:53:12)
 ------------------------------------------------------
 Symbolic Z-matrix:
 Charge =  0 Multiplicity = 1

                         Standard orientation:
 ---------------------------------------------------------------------
 Center     Atomic      Atomic             Coordinates (Angstroms)
 Number     Number       Type             X           Y           Z
 ---------------------------------------------------------------------
      1          6           0        4.097611   -0.264338   -0.377349
      2          6           0        3.974998   -1.651169    0.254830
      3          6           0        5.186517   -2.539582   -0.029318
      4          1           0        4.227647   -0.373341   -1.462777
      5          1           0        5.007466    0.223405   -0.000963
      6          1           0        3.064913   -2.135604   -0.121580
      7          1           0        3.845047   -1.538846    1.338856
      8          1           0        6.100613   -2.081061    0.361563
      9          1           0        5.316046   -2.681209   -1.107170
     10          1           0        5.077870   -3.526178    0.431858
     11          6           0        2.894129    0.635452   -0.102143
     12          6           0        3.016742    2.022283   -0.734322
     13          6           0        1.805223    2.910696   -0.450175
     14          1           0        1.984274    0.147709   -0.478529
     15          1           0        2.764093    0.744455    0.983285
     16          1           0        3.146693    1.909960   -1.818348
     17          1           0        3.926827    2.506717   -0.357913
     18          1           0        1.675694    3.052323    0.627677
     19          1           0        0.891127    2.452175   -0.841056
     20          1           0        1.913870    3.897292   -0.911351
     21          6           0       -4.813828   -1.217679   -0.749532
     22          6           0       -4.757848    0.169246   -0.576827
     23          6           0       -3.609038    0.774414   -0.058606
     24          6           0       -2.529803   -0.041260    0.277871
     25          6           0       -2.555022   -1.425799    0.117541
     26          6           0       -3.714175   -2.009380   -0.402409
     27          1           0       -5.710268   -1.679403   -1.152770
     28          1           0       -5.610339    0.786576   -0.845541
     29          1           0       -3.538740    1.845732    0.085456
     30          1           0       -1.689258   -2.014986    0.394540
     31          1           0       -3.754822   -3.086734   -0.535448
     32          7           0       -1.308135    0.587977    0.827404
     33          8           0       -0.370801   -0.152753    1.116131
     34          8           0       -1.311055    1.809988    0.958996
 ---------------------------------------------------------------------

 SCF Done:  E(RHF) =  -669.535523528     A.U. after   15 cycles
 E2 =    -0.2092593475D+01 EUMP2 =    -0.67162811700271D+03

 The electronic state is 1-A.
 Alpha  occ. eigenvalues --  -20.60993 -20.60987 -15.85988 -11.31325 -11.27886
 Alpha  occ. eigenvalues --  -11.27882 -11.27621 -11.26892 -11.26882 -11.20632
 Alpha  occ. eigenvalues --  -11.20351 -11.20228 -11.20168 -11.19698 -11.19341
 Alpha  occ. eigenvalues --   -1.60039  -1.39597  -1.19492  -1.08896  -1.07138
 Alpha  occ. eigenvalues --   -1.04887  -1.02294  -0.95737  -0.94717  -0.86288
 Alpha  occ. eigenvalues --   -0.85724  -0.82574  -0.78385  -0.77629  -0.76849
 Alpha  occ. eigenvalues --   -0.72213  -0.71353  -0.70599  -0.65146  -0.64888
 Alpha  occ. eigenvalues --   -0.63794  -0.62233  -0.59713  -0.58145  -0.56314
 Alpha  occ. eigenvalues --   -0.55389  -0.54016  -0.53221  -0.52978  -0.51478
 Alpha  occ. eigenvalues --   -0.51129  -0.49055  -0.48966  -0.48661  -0.46635
 Alpha  occ. eigenvalues --   -0.45458  -0.45006  -0.44329  -0.44213  -0.42519
 Alpha  occ. eigenvalues --   -0.37466  -0.36488
 Alpha virt. eigenvalues --    0.04865   0.11166   0.16343   0.21292   0.24007
 Alpha virt. eigenvalues --    0.25513   0.27208   0.27759   0.28170   0.28908
 Alpha virt. eigenvalues --    0.29210   0.30947   0.32369   0.32591   0.32747

 Mulliken charges:
               1
     1  C   -0.298459
     2  C   -0.296998
     3  C   -0.474904
     4  H    0.143714
     5  H    0.145505
     6  H    0.149888
     7  H    0.154105
     8  H    0.153850
     9  H    0.152254
    10  H    0.156507
    11  C   -0.294998
    12  C   -0.301716
    13  C   -0.468808
    14  H    0.155226
    15  H    0.158515
    16  H    0.143356
    17  H    0.145778
    18  H    0.165826
    19  H    0.155362
    20  H    0.148938
    21  C   -0.170577
    22  C   -0.218539
    23  C   -0.170845
    24  C    0.158213
    25  C   -0.171118
    26  C   -0.218529
    27  H    0.226122
    28  H    0.223984
    29  H    0.276104
    30  H    0.275805
    31  H    0.223950
    32  N    0.486860
    33  O   -0.457522
    34  O   -0.456850
 Sum of Mulliken charges =  -0.00000

 Dipole moment (field-independent basis, Debye):
    X=             -4.7094    Y=             -2.2072    Z=             -1.7203  Tot=              5.4781
 Quadrupole moment (field-independent basis, Debye-Ang):
   XX=            -74.4245   YY=            -91.6730   ZZ=            -96.1222
   XY=              4.4790   XZ=              5.1494   YZ=             -0.3005

 Normal termination of Gaussian 16 at Thu May  6 02:33:20 2021.
