 Gaussian 16, Revision A.03,
 Gaussian 16:  EM64L-G16RevA.03 25-Dec-2016

 -------------
 #p 6-31g* mp2
 -------------

 ------------------------------------------------------
 Input file generated by CHIRIPA (05-May-2021 14:55:21)
 ------------------------------------------------------
 Symbolic Z-matrix:
 Charge =  0 Multiplicity = 1

                         Standard orientation:
 ---------------------------------------------------------------------
 Center     Atomic      Atomic             Coordinates (Angstroms)
 Number     Number       Type             X           Y           Z
 ---------------------------------------------------------------------
      1          6           0       -1.437943    2.711684   -0.021447
      2          6           0       -1.720208    2.084616    1.196598
      3          6           0       -2.351260    0.837382    1.223615
      4          6           0       -2.687622    0.243140    0.008285
      5          6           0       -2.419694    0.842578   -1.221422
      6          6           0       -1.787970    2.089760   -1.224449
      7          1           0       -0.947466    3.680545   -0.033116
      8          1           0       -1.449517    2.565261    2.132414
      9          1           0       -2.581515    0.329580    2.152344
     10          1           0       -2.701596    0.338697   -2.137967
     11          1           0       -1.569990    2.574407   -2.171891
     12          7           0       -3.356045   -1.077223    0.024187
     13          8           0       -3.642195   -1.579855   -1.060302
     14          8           0       -3.581147   -1.584490    1.120839
     15          6           0        3.935511   -0.379518   -0.373678
     16          6           0        5.010931    0.186088    0.554516
     17          6           0        6.277988    0.602231   -0.193272
     18          1           0        4.344516   -1.243995   -0.914361
     19          1           0        3.683529    0.373514   -1.133181
     20          1           0        5.259815   -0.567274    1.312880
     21          1           0        4.599258    1.049203    1.093194
     22          1           0        6.050533    1.371623   -0.938189
     23          1           0        6.714845   -0.254040   -0.717254
     24          1           0        7.033446    1.003712    0.489338
     25          6           0        2.662783   -0.800008    0.359180
     26          6           0        1.587362   -1.365613   -0.569015
     27          6           0        0.320305   -1.781756    0.178774
     28          1           0        2.914764   -1.553039    1.118681
     29          1           0        2.253776    0.064470    0.899862
     30          1           0        1.999035   -2.228728   -1.107693
     31          1           0        1.338477   -0.612251   -1.327380
     32          1           0       -0.116552   -0.925485    0.702756
     33          1           0        0.547759   -2.551149    0.923691
     34          1           0       -0.435153   -2.183237   -0.503837
 ---------------------------------------------------------------------

 SCF Done:  E(RHF) =  -669.534720771     A.U. after   15 cycles
 E2 =    -0.2093750968D+01 EUMP2 =    -0.67162847173842D+03

 The electronic state is 1-A.
 Alpha  occ. eigenvalues --  -20.60812 -20.60796 -15.85835 -11.31196 -11.27797
 Alpha  occ. eigenvalues --  -11.27771 -11.27564 -11.26854 -11.26842 -11.21776
 Alpha  occ. eigenvalues --  -11.21542 -11.21513 -11.21419 -11.21253 -11.20776
 Alpha  occ. eigenvalues --   -1.59867  -1.39423  -1.19420  -1.08806  -1.08499
 Alpha  occ. eigenvalues --   -1.04829  -1.03559  -0.96008  -0.95634  -0.87031
 Alpha  occ. eigenvalues --   -0.86218  -0.82470  -0.79643  -0.78319  -0.77510
 Alpha  occ. eigenvalues --   -0.72069  -0.71190  -0.70522  -0.65141  -0.65068
 Alpha  occ. eigenvalues --   -0.64827  -0.62169  -0.60986  -0.59376  -0.57617
 Alpha  occ. eigenvalues --   -0.55445  -0.55313  -0.53191  -0.52913  -0.52658
 Alpha  occ. eigenvalues --   -0.52357  -0.49895  -0.48829  -0.48826  -0.47940
 Alpha  occ. eigenvalues --   -0.46676  -0.45854  -0.45790  -0.44808  -0.43822
 Alpha  occ. eigenvalues --   -0.37325  -0.36412
 Alpha virt. eigenvalues --    0.05010   0.11148   0.16508   0.21350   0.22760
 Alpha virt. eigenvalues --    0.24251   0.26552   0.27180   0.27476   0.27783
 Alpha virt. eigenvalues --    0.28364   0.30840   0.31371   0.31759   0.31871

 Mulliken charges:
               1
     1  C   -0.171599
     2  C   -0.217368
     3  C   -0.176055
     4  C    0.164671
     5  C   -0.171600
     6  C   -0.218127
     7  H    0.225766
     8  H    0.223939
     9  H    0.276205
    10  H    0.275792
    11  H    0.223733
    12  N    0.490342
    13  O   -0.461263
    14  O   -0.459192
    15  C   -0.297836
    16  C   -0.299251
    17  C   -0.475541
    18  H    0.150955
    19  H    0.147001
    20  H    0.152994
    21  H    0.149384
    22  H    0.153859
    23  H    0.156247
    24  H    0.160171
    25  C   -0.297818
    26  C   -0.298188
    27  C   -0.485591
    28  H    0.150675
    29  H    0.146433
    30  H    0.153081
    31  H    0.148096
    32  H    0.156550
    33  H    0.157826
    34  H    0.165710
 Sum of Mulliken charges =  -0.00000

 Dipole moment (field-independent basis, Debye):
    X=              2.2676    Y=              4.6137    Z=             -0.0453  Tot=              5.1410
 Quadrupole moment (field-independent basis, Debye-Ang):
   XX=           -109.1690   YY=            -92.2667   ZZ=            -89.9105
   XY=            -12.7693   XZ=              0.7456   YZ=             -0.0045

 Normal termination of Gaussian 16 at Wed May  5 18:59:09 2021.
