 Gaussian 16, Revision A.03,
 Gaussian 16:  EM64L-G16RevA.03 25-Dec-2016

 -------------
 #p 6-31g* mp2
 -------------

 ------------------------------------------------------
 Input file generated by CHIRIPA (05-May-2021 14:53:18)
 ------------------------------------------------------
 Symbolic Z-matrix:
 Charge =  0 Multiplicity = 1

                         Standard orientation:
 ---------------------------------------------------------------------
 Center     Atomic      Atomic             Coordinates (Angstroms)
 Number     Number       Type             X           Y           Z
 ---------------------------------------------------------------------
      1          6           0       -4.251253    0.443857   -0.050235
      2          6           0       -5.380532   -0.140300   -0.899632
      3          6           0       -6.280425    0.935985   -1.507579
      4          1           0       -4.683977    1.057820    0.751479
      5          1           0       -3.647427    1.120419   -0.670761
      6          1           0       -5.981224   -0.816627   -0.278049
      7          1           0       -4.945076   -0.753098   -1.699303
      8          1           0       -5.699849    1.605625   -2.150319
      9          1           0       -6.741884    1.541735   -0.720990
     10          1           0       -7.080867    0.496329   -2.110784
     11          6           0       -3.343058   -0.619729    0.564332
     12          6           0       -2.213780   -0.035572    1.413730
     13          6           0       -1.313887   -1.111856    2.021677
     14          1           0       -3.946885   -1.296290    1.184859
     15          1           0       -2.910335   -1.233691   -0.237382
     16          1           0       -2.649235    0.577227    2.213400
     17          1           0       -1.613088    0.640756    0.792146
     18          1           0       -0.852427   -1.717607    1.235088
     19          1           0       -1.894462   -1.781497    2.664417
     20          1           0       -0.513445   -0.672201    2.624881
     21          6           0        3.213640    2.539262    0.247713
     22          6           0        2.060427    1.864566    0.661724
     23          6           0        1.912758    0.495770    0.418535
     24          6           0        2.942638   -0.170145   -0.244182
     25          6           0        4.103563    0.474090   -0.669040
     26          6           0        4.229736    1.843098   -0.415179
     27          1           0        3.320004    3.602658    0.440773
     28          1           0        1.269692    2.402655    1.176744
     29          1           0        1.030523   -0.051247    0.728135
     30          1           0        4.874733   -0.089290   -1.180233
     31          1           0        5.126442    2.364488   -0.737849
     32          7           0        2.797686   -1.619340   -0.507284
     33          8           0        3.719426   -2.183229   -1.092999
     34          8           0        1.765076   -2.163889   -0.122807
 ---------------------------------------------------------------------

 SCF Done:  E(RHF) =  -669.535631666     A.U. after   15 cycles
 E2 =    -0.2092267334D+01 EUMP2 =    -0.67162789899991D+03

 The electronic state is 1-A.
 Alpha  occ. eigenvalues --  -20.60811 -20.60804 -15.85856 -11.31157 -11.27744
 Alpha  occ. eigenvalues --  -11.27660 -11.27482 -11.26751 -11.26725 -11.21900
 Alpha  occ. eigenvalues --  -11.21626 -11.21488 -11.21424 -11.21112 -11.21066
 Alpha  occ. eigenvalues --   -1.59880  -1.39436  -1.19337  -1.08747  -1.08537
 Alpha  occ. eigenvalues --   -1.04736  -1.03647  -0.96078  -0.95580  -0.87080
 Alpha  occ. eigenvalues --   -0.86130  -0.82425  -0.79708  -0.78344  -0.77477
 Alpha  occ. eigenvalues --   -0.72084  -0.71197  -0.70464  -0.65207  -0.64994
 Alpha  occ. eigenvalues --   -0.64725  -0.62196  -0.60946  -0.59437  -0.57687
 Alpha  occ. eigenvalues --   -0.55419  -0.55137  -0.53075  -0.52922  -0.52650
 Alpha  occ. eigenvalues --   -0.52453  -0.49977  -0.48828  -0.48823  -0.48006
 Alpha  occ. eigenvalues --   -0.46728  -0.45881  -0.45796  -0.44853  -0.43893
 Alpha  occ. eigenvalues --   -0.37326  -0.36332
 Alpha virt. eigenvalues --    0.05040   0.11302   0.16530   0.20125   0.22973
 Alpha virt. eigenvalues --    0.23955   0.26118   0.26991   0.27355   0.28025
 Alpha virt. eigenvalues --    0.29517   0.30870   0.31494   0.31636   0.32200

 Mulliken charges:
               1
     1  C   -0.298295
     2  C   -0.300076
     3  C   -0.475754
     4  H    0.148422
     5  H    0.147906
     6  H    0.152691
     7  H    0.154077
     8  H    0.154622
     9  H    0.154498
    10  H    0.161051
    11  C   -0.298691
    12  C   -0.302357
    13  C   -0.496030
    14  H    0.151618
    15  H    0.155960
    16  H    0.151156
    17  H    0.141825
    18  H    0.180930
    19  H    0.162287
    20  H    0.151729
    21  C   -0.170191
    22  C   -0.225110
    23  C   -0.181370
    24  C    0.155696
    25  C   -0.169604
    26  C   -0.219414
    27  H    0.225566
    28  H    0.224468
    29  H    0.298533
    30  H    0.275446
    31  H    0.223343
    32  N    0.489522
    33  O   -0.459915
    34  O   -0.464538
 Sum of Mulliken charges =  -0.00000

 Dipole moment (field-independent basis, Debye):
    X=              0.4542    Y=              4.9340    Z=              0.8821  Tot=              5.0328
 Quadrupole moment (field-independent basis, Debye-Ang):
   XX=            -87.8556   YY=            -97.3480   ZZ=            -94.6538
   XY=             15.9577   XZ=             -0.5356   YZ=             -1.1994

 Normal termination of Gaussian 16 at Thu May  6 12:19:28 2021.
