 Gaussian 16, Revision A.03,
 Gaussian 16:  EM64L-G16RevA.03 25-Dec-2016

 -------------
 #p 6-31g* mp2
 -------------

 ------------------------------------------------------
 Input file generated by CHIRIPA (05-May-2021 14:55:22)
 ------------------------------------------------------
 Symbolic Z-matrix:
 Charge =  0 Multiplicity = 1

                         Standard orientation:
 ---------------------------------------------------------------------
 Center     Atomic      Atomic             Coordinates (Angstroms)
 Number     Number       Type             X           Y           Z
 ---------------------------------------------------------------------
      1          6           0       -1.619644    1.071594    0.677612
      2          6           0       -2.224053    1.335308   -0.555946
      3          6           0       -3.420074    0.703869   -0.910016
      4          6           0       -3.986767   -0.189616   -0.002363
      5          6           0       -3.408823   -0.473235    1.234096
      6          6           0       -2.212912    0.169754    1.567128
      7          1           0       -0.690589    1.566598    0.944491
      8          1           0       -1.765569    2.035223   -1.248735
      9          1           0       -3.909379    0.889609   -1.858435
     10          1           0       -3.889636   -1.175858    1.903841
     11          1           0       -1.745762   -0.036981    2.525813
     12          7           0       -5.252882   -0.864207   -0.366065
     13          8           0       -5.732067   -1.647221    0.451191
     14          8           0       -5.742104   -0.597163   -1.461504
     15          6           0        4.294517    0.457002    0.330158
     16          6           0        3.474628    1.447730   -0.497021
     17          6           0        2.395445    2.153196    0.324851
     18          1           0        3.619822   -0.290033    0.770239
     19          1           0        4.761592    0.989649    1.170113
     20          1           0        3.010360    0.913637   -1.335958
     21          1           0        4.151376    2.192381   -0.935341
     22          1           0        2.844815    2.710877    1.152897
     23          1           0        1.697316    1.424867    0.750003
     24          1           0        1.821372    2.856827   -0.286051
     25          6           0        5.377408   -0.256206   -0.477562
     26          6           0        6.197296   -1.246935    0.349618
     27          6           0        7.276479   -1.952400   -0.472255
     28          1           0        4.910333   -0.788853   -1.317516
     29          1           0        6.052102    0.490828   -0.917642
     30          1           0        5.520549   -1.991585    0.787937
     31          1           0        6.661565   -0.712841    1.188554
     32          1           0        7.974609   -1.224071   -0.897407
     33          1           0        6.827109   -2.510081   -1.300300
     34          1           0        7.850553   -2.656032    0.138647
 ---------------------------------------------------------------------

 SCF Done:  E(RHF) =  -669.535567985     A.U. after   15 cycles
 E2 =    -0.2090789467D+01 EUMP2 =    -0.67162635745216D+03

 The electronic state is 1-A.
 Alpha  occ. eigenvalues --  -20.60728 -20.60722 -15.85781 -11.31136 -11.27707
 Alpha  occ. eigenvalues --  -11.27704 -11.27386 -11.26712 -11.26701 -11.22510
 Alpha  occ. eigenvalues --  -11.22334 -11.22117 -11.22073 -11.21935 -11.21451
 Alpha  occ. eigenvalues --   -1.59804  -1.39357  -1.19306  -1.09120  -1.08697
 Alpha  occ. eigenvalues --   -1.04710  -1.04262  -0.96739  -0.95534  -0.87764
 Alpha  occ. eigenvalues --   -0.86104  -0.82372  -0.80339  -0.78889  -0.77423
 Alpha  occ. eigenvalues --   -0.71999  -0.71127  -0.70419  -0.65744  -0.64954
 Alpha  occ. eigenvalues --   -0.64715  -0.62060  -0.61661  -0.60130  -0.58324
 Alpha  occ. eigenvalues --   -0.56140  -0.55132  -0.53429  -0.53149  -0.53031
 Alpha  occ. eigenvalues --   -0.52799  -0.50655  -0.48762  -0.48755  -0.48639
 Alpha  occ. eigenvalues --   -0.47342  -0.46444  -0.46334  -0.44766  -0.44500
 Alpha  occ. eigenvalues --   -0.37274  -0.36320
 Alpha virt. eigenvalues --    0.05099   0.11335   0.16537   0.20370   0.22400
 Alpha virt. eigenvalues --    0.23837   0.25683   0.26268   0.26686   0.27327
 Alpha virt. eigenvalues --    0.29089   0.30028   0.31014   0.31145   0.32035

 Mulliken charges:
               1
     1  C   -0.176527
     2  C   -0.220611
     3  C   -0.170940
     4  C    0.158303
     5  C   -0.170808
     6  C   -0.220441
     7  H    0.235720
     8  H    0.223367
     9  H    0.275327
    10  H    0.275328
    11  H    0.223209
    12  N    0.488059
    13  O   -0.460618
    14  O   -0.460608
    15  C   -0.299169
    16  C   -0.299277
    17  C   -0.481418
    18  H    0.149500
    19  H    0.150534
    20  H    0.153938
    21  H    0.155520
    22  H    0.160094
    23  H    0.149179
    24  H    0.157709
    25  C   -0.298990
    26  C   -0.300147
    27  C   -0.476112
    28  H    0.150880
    29  H    0.150822
    30  H    0.152347
    31  H    0.152322
    32  H    0.155784
    33  H    0.156099
    34  H    0.161626
 Sum of Mulliken charges =  -0.00000

 Dipole moment (field-independent basis, Debye):
    X=              4.7097    Y=              2.3697    Z=              1.2555  Tot=              5.4197
 Quadrupole moment (field-independent basis, Debye-Ang):
   XX=           -130.5206   YY=            -94.8870   ZZ=            -91.2522
   XY=             -9.3914   XZ=             -4.6612   YZ=             -2.8225

 Normal termination of Gaussian 16 at Thu May  6 12:31:43 2021.
