 Gaussian 16, Revision A.03,
 Gaussian 16:  EM64L-G16RevA.03 25-Dec-2016

 -------------
 #p 6-31g* mp2
 -------------

 ------------------------------------------------------
 Input file generated by CHIRIPA (05-May-2021 14:53:18)
 ------------------------------------------------------
 Symbolic Z-matrix:
 Charge =  0 Multiplicity = 1

                         Standard orientation:
 ---------------------------------------------------------------------
 Center     Atomic      Atomic             Coordinates (Angstroms)
 Number     Number       Type             X           Y           Z
 ---------------------------------------------------------------------
      1          6           0       -3.970842    0.070773   -0.381609
      2          6           0       -4.372666    1.545429   -0.337866
      3          6           0       -5.296005    1.940981   -1.490592
      4          1           0       -3.474943   -0.139316   -1.339154
      5          1           0       -4.877189   -0.549939   -0.356190
      6          1           0       -3.465771    2.163149   -0.361964
      7          1           0       -4.867494    1.752076    0.619765
      8          1           0       -6.217067    1.349648   -1.466710
      9          1           0       -4.807380    1.763056   -2.454017
     10          1           0       -5.570806    2.999174   -1.439867
     11          6           0       -3.047836   -0.339870    0.764322
     12          6           0       -2.646012   -1.814525    0.720579
     13          6           0       -1.722673   -2.210078    1.873305
     14          1           0       -2.141489    0.280842    0.738903
     15          1           0       -3.543734   -0.129780    1.721867
     16          1           0       -2.151183   -2.021173   -0.237052
     17          1           0       -3.552906   -2.432245    0.744677
     18          1           0       -2.211298   -2.032152    2.836730
     19          1           0       -0.801611   -1.618744    1.849423
     20          1           0       -1.447871   -3.268270    1.822580
     21          6           0        3.390709    2.196768    1.103365
     22          6           0        2.237253    1.493321    1.465614
     23          6           0        1.867986    0.333148    0.778456
     24          6           0        2.678924   -0.097098   -0.270619
     25          6           0        3.834051    0.581871   -0.655295
     26          6           0        4.184028    1.739603    0.045931
     27          1           0        3.670072    3.097071    1.642630
     28          1           0        1.619252    1.846027    2.286418
     29          1           0        0.980234   -0.230756    1.037932
     30          1           0        4.430091    0.205679   -1.477873
     31          1           0        5.080362    2.283886   -0.237594
     32          7           0        2.298208   -1.324029   -1.005530
     33          8           0        3.029543   -1.682309   -1.926086
     34          8           0        1.275678   -1.904187   -0.647081
 ---------------------------------------------------------------------

 SCF Done:  E(RHF) =  -669.535638767     A.U. after   15 cycles
 E2 =    -0.2091737285D+01 EUMP2 =    -0.67162737605219D+03

 The electronic state is 1-A.
 Alpha  occ. eigenvalues --  -20.60843 -20.60838 -15.85889 -11.31236 -11.27801
 Alpha  occ. eigenvalues --  -11.27796 -11.27541 -11.26817 -11.26805 -11.21527
 Alpha  occ. eigenvalues --  -11.21263 -11.21181 -11.21121 -11.20985 -11.20771
 Alpha  occ. eigenvalues --   -1.59914  -1.39468  -1.19408  -1.08806  -1.08228
 Alpha  occ. eigenvalues --   -1.04809  -1.03297  -0.95779  -0.95637  -0.86794
 Alpha  occ. eigenvalues --   -0.86208  -0.82475  -0.79367  -0.78052  -0.77526
 Alpha  occ. eigenvalues --   -0.72112  -0.71233  -0.70524  -0.65065  -0.64921
 Alpha  occ. eigenvalues --   -0.64751  -0.62191  -0.60656  -0.59133  -0.57376
 Alpha  occ. eigenvalues --   -0.55335  -0.55052  -0.53138  -0.52914  -0.52441
 Alpha  occ. eigenvalues --   -0.52199  -0.49732  -0.48865  -0.48857  -0.47688
 Alpha  occ. eigenvalues --   -0.46385  -0.45601  -0.45491  -0.44867  -0.43563
 Alpha  occ. eigenvalues --   -0.37387  -0.36410
 Alpha virt. eigenvalues --    0.04993   0.11228   0.16495   0.19891   0.22973
 Alpha virt. eigenvalues --    0.23893   0.25945   0.27402   0.27774   0.27901
 Alpha virt. eigenvalues --    0.29349   0.30553   0.31483   0.32065   0.32168

 Mulliken charges:
               1
     1  C   -0.298701
     2  C   -0.299182
     3  C   -0.475671
     4  H    0.153602
     5  H    0.150163
     6  H    0.149489
     7  H    0.150441
     8  H    0.155616
     9  H    0.156383
    10  H    0.158905
    11  C   -0.297171
    12  C   -0.302865
    13  C   -0.474609
    14  H    0.141137
    15  H    0.146850
    16  H    0.168046
    17  H    0.150628
    18  H    0.149533
    19  H    0.149109
    20  H    0.167640
    21  C   -0.170293
    22  C   -0.223584
    23  C   -0.179522
    24  C    0.155107
    25  C   -0.169483
    26  C   -0.219139
    27  H    0.225912
    28  H    0.224587
    29  H    0.293219
    30  H    0.275768
    31  H    0.223653
    32  N    0.487152
    33  O   -0.459694
    34  O   -0.463027
 Sum of Mulliken charges =  -0.00000

 Dipole moment (field-independent basis, Debye):
    X=              1.3819    Y=              4.1957    Z=              2.4740  Tot=              5.0630
 Quadrupole moment (field-independent basis, Debye-Ang):
   XX=            -84.4215   YY=            -96.0713   ZZ=            -95.4568
   XY=             13.0015   XZ=              3.2208   YZ=             -1.3918

 Normal termination of Gaussian 16 at Thu May  6 10:43:33 2021.
