 Gaussian 16, Revision A.03,
 Gaussian 16:  EM64L-G16RevA.03 25-Dec-2016

 -------------
 #p 6-31g* mp2
 -------------

 ------------------------------------------------------
 Input file generated by CHIRIPA (05-May-2021 14:57:23)
 ------------------------------------------------------
 Symbolic Z-matrix:
 Charge =  0 Multiplicity = 1

                         Standard orientation:
 ---------------------------------------------------------------------
 Center     Atomic      Atomic             Coordinates (Angstroms)
 Number     Number       Type             X           Y           Z
 ---------------------------------------------------------------------
      1          6           0       -1.465785   -1.005945    0.165612
      2          6           0       -1.868274   -0.202029   -0.905948
      3          6           0       -3.194137    0.228621   -1.011663
      4          6           0       -4.095159   -0.165174   -0.023546
      5          6           0       -3.724731   -0.965529    1.056039
      6          6           0       -2.393662   -1.384462    1.141465
      7          1           0       -0.433800   -1.335933    0.239853
      8          1           0       -1.149841    0.093474   -1.665275
      9          1           0       -3.532716    0.851522   -1.830673
     10          1           0       -4.463749   -1.243856    1.797527
     11          1           0       -2.083912   -2.008738    1.974760
     12          7           0       -5.501547    0.284534   -0.124722
     13          8           0       -6.276058   -0.076115    0.758851
     14          8           0       -5.802732    0.989149   -1.085681
     15          6           0        2.401439    2.261753    0.378799
     16          6           0        3.784189    2.353012    0.569055
     17          6           0        4.603906    1.238860    0.365883
     18          6           0        4.004704    0.043767   -0.029085
     19          6           0        2.630234   -0.078805   -0.226819
     20          6           0        1.829883    1.048276   -0.017832
     21          1           0        1.772186    3.132274    0.538887
     22          1           0        4.230818    3.294126    0.877065
     23          1           0        5.677205    1.281583    0.505958
     24          1           0        2.214000   -1.030526   -0.534058
     25          1           0        0.756317    0.974475   -0.166343
     26          7           0        4.862251   -1.142579   -0.247253
     27          8           0        4.309878   -2.184000   -0.595053
     28          8           0        6.070529   -1.008553   -0.066322
 ---------------------------------------------------------------------

 SCF Done:  E(RHF) =  -868.336431215     A.U. after   16 cycles
 E2 =    -0.2601349106D+01 EUMP2 =    -0.87093778032163D+03

 The electronic state is 1-A.
 Alpha  occ. eigenvalues --  -20.61463 -20.61447 -20.61336 -20.61328 -15.86515
 Alpha  occ. eigenvalues --  -15.86394 -11.31981 -11.31920 -11.28657 -11.28542
 Alpha  occ. eigenvalues --  -11.28491 -11.28473 -11.28352 -11.28240 -11.27643
 Alpha  occ. eigenvalues --  -11.27583 -11.27503 -11.27497  -1.60531  -1.60407
 Alpha  occ. eigenvalues --   -1.40083  -1.39955  -1.20155  -1.20118  -1.09537
 Alpha  occ. eigenvalues --   -1.09478  -1.05606  -1.05525  -0.96341  -0.96303
 Alpha  occ. eigenvalues --   -0.87045  -0.86870  -0.83220  -0.83093  -0.78274
 Alpha  occ. eigenvalues --   -0.78098  -0.72730  -0.72610  -0.71857  -0.71732
 Alpha  occ. eigenvalues --   -0.71379  -0.71135  -0.65929  -0.65792  -0.65705
 Alpha  occ. eigenvalues --   -0.65337  -0.63038  -0.62741  -0.56141  -0.55964
 Alpha  occ. eigenvalues --   -0.54032  -0.53875  -0.53661  -0.53463  -0.49498
 Alpha  occ. eigenvalues --   -0.49480  -0.49380  -0.49353  -0.45469  -0.45325
 Alpha  occ. eigenvalues --   -0.38155  -0.38067  -0.37181  -0.37135
 Alpha virt. eigenvalues --    0.04277   0.04422   0.10282   0.10458   0.15625
 Alpha virt. eigenvalues --    0.15964   0.18392   0.22019   0.24830   0.26019
 Alpha virt. eigenvalues --    0.27704   0.29302   0.30243   0.30886   0.32890

 Mulliken charges:
               1
     1  C   -0.174363
     2  C   -0.226667
     3  C   -0.170472
     4  C    0.158791
     5  C   -0.169507
     6  C   -0.219022
     7  H    0.226969
     8  H    0.222109
     9  H    0.277903
    10  H    0.278692
    11  H    0.228544
    12  N    0.487943
    13  O   -0.457933
    14  O   -0.458941
    15  C   -0.172070
    16  C   -0.217760
    17  C   -0.170052
    18  C    0.160506
    19  C   -0.178898
    20  C   -0.224900
    21  H    0.229802
    22  H    0.226779
    23  H    0.278177
    24  H    0.269166
    25  H    0.225773
    26  N    0.488387
    27  O   -0.461671
    28  O   -0.457284
 Sum of Mulliken charges =  -0.00000

 Dipole moment (field-independent basis, Debye):
    X=              1.8453    Y=              2.6692    Z=              1.2515  Tot=              3.4779
 Quadrupole moment (field-independent basis, Debye-Ang):
   XX=           -164.9047   YY=           -101.9023   ZZ=           -101.9269
   XY=             26.0973   XZ=              1.6758   YZ=             -1.8022

 Normal termination of Gaussian 16 at Wed May  5 21:01:43 2021.
