 Gaussian 16, Revision A.03,
 Gaussian 16:  EM64L-G16RevA.03 25-Dec-2016

 -------------
 #p 6-31g* mp2
 -------------

 ------------------------------------------------------
 Input file generated by CHIRIPA (05-May-2021 14:57:25)
 ------------------------------------------------------
 Symbolic Z-matrix:
 Charge =  0 Multiplicity = 1

                         Standard orientation:
 ---------------------------------------------------------------------
 Center     Atomic      Atomic             Coordinates (Angstroms)
 Number     Number       Type             X           Y           Z
 ---------------------------------------------------------------------
      1          6           0       -4.647495    0.776509   -0.924145
      2          6           0       -3.925572    1.456379    0.062326
      3          6           0       -2.874531    0.825606    0.734626
      4          6           0       -2.571074   -0.491578    0.393700
      5          6           0       -3.271682   -1.195570   -0.584478
      6          6           0       -4.318826   -0.544966   -1.243835
      7          1           0       -5.462455    1.274212   -1.441377
      8          1           0       -4.178601    2.482706    0.312674
      9          1           0       -2.299176    1.328448    1.502437
     10          1           0       -2.996057   -2.218113   -0.812196
     11          1           0       -4.877755   -1.075423   -2.009509
     12          7           0       -1.460447   -1.169847    1.098584
     13          8           0       -1.212850   -2.330752    0.779788
     14          8           0       -0.858564   -0.527725    1.956519
     15          6           0        4.841027   -1.038109   -0.294675
     16          6           0        4.857396    0.224315    0.307438
     17          6           0        3.706970    1.018563    0.322858
     18          6           0        2.552364    0.516869   -0.275870
     19          6           0        2.504455   -0.736745   -0.883690
     20          6           0        3.666679   -1.513771   -0.887273
     21          1           0        5.739288   -1.648410   -0.302056
     22          1           0        5.767984    0.596290    0.768425
     23          1           0        3.691759    1.999569    0.782004
     24          1           0        1.581702   -1.080474   -1.335130
     25          1           0        3.651043   -2.493801   -1.355614
     26          7           0        1.328214    1.348587   -0.265811
     27          8           0        0.323696    0.883736   -0.800127
     28          8           0        1.396423    2.449592    0.276199
 ---------------------------------------------------------------------

 SCF Done:  E(RHF) =  -868.340475807     A.U. after   16 cycles
 E2 =    -0.2600671202D+01 EUMP2 =    -0.87094114700883D+03

 The electronic state is 1-A.
 Alpha  occ. eigenvalues --  -20.60487 -20.60426 -20.59966 -20.59956 -15.85486
 Alpha  occ. eigenvalues --  -15.84999 -11.30581 -11.30041 -11.27170 -11.27114
 Alpha  occ. eigenvalues --  -11.26898 -11.26722 -11.26559 -11.26440 -11.26160
 Alpha  occ. eigenvalues --  -11.26105 -11.25715 -11.25594  -1.59502  -1.59017
 Alpha  occ. eigenvalues --   -1.39080  -1.38591  -1.18745  -1.18230  -1.08203
 Alpha  occ. eigenvalues --   -1.07704  -1.04126  -1.03633  -0.95085  -0.94593
 Alpha  occ. eigenvalues --   -0.85547  -0.85057  -0.81949  -0.81464  -0.77009
 Alpha  occ. eigenvalues --   -0.76517  -0.71825  -0.71289  -0.70958  -0.69991
 Alpha  occ. eigenvalues --   -0.69893  -0.69432  -0.64427  -0.64160  -0.63936
 Alpha  occ. eigenvalues --   -0.63697  -0.61489  -0.61011  -0.54683  -0.54222
 Alpha  occ. eigenvalues --   -0.52449  -0.52246  -0.51928  -0.51770  -0.48500
 Alpha  occ. eigenvalues --   -0.48468  -0.48025  -0.47968  -0.44748  -0.43900
 Alpha  occ. eigenvalues --   -0.36730  -0.36173  -0.35698  -0.35182
 Alpha virt. eigenvalues --    0.05448   0.06137   0.11952   0.12471   0.17064
 Alpha virt. eigenvalues --    0.17558   0.21987   0.22389   0.27903   0.28289
 Alpha virt. eigenvalues --    0.28818   0.29294   0.31436   0.31917   0.33049

 Mulliken charges:
               1
     1  C   -0.170203
     2  C   -0.219267
     3  C   -0.155052
     4  C    0.169737
     5  C   -0.172121
     6  C   -0.219457
     7  H    0.221429
     8  H    0.221523
     9  H    0.277666
    10  H    0.268966
    11  H    0.217943
    12  N    0.492429
    13  O   -0.471667
    14  O   -0.463570
    15  C   -0.170018
    16  C   -0.218810
    17  C   -0.169574
    18  C    0.162245
    19  C   -0.163903
    20  C   -0.217960
    21  H    0.223945
    22  H    0.221302
    23  H    0.273443
    24  H    0.275950
    25  H    0.223318
    26  N    0.495713
    27  O   -0.472087
    28  O   -0.461919
 Sum of Mulliken charges =  -0.00000

 Dipole moment (field-independent basis, Debye):
    X=              0.5779    Y=             -0.3819    Z=             -2.4367  Tot=              2.5332
 Quadrupole moment (field-independent basis, Debye-Ang):
   XX=            -63.5359   YY=           -105.1286   ZZ=           -105.5571
   XY=             -7.5627   XZ=              5.4605   YZ=              7.8104

 Normal termination of Gaussian 16 at Fri May  7 09:38:37 2021.
