 Gaussian 16, Revision A.03,
 Gaussian 16:  EM64L-G16RevA.03 25-Dec-2016

 -------------
 #p 6-31g* mp2
 -------------

 ------------------------------------------------------
 Input file generated by CHIRIPA (05-May-2021 14:51:13)
 ------------------------------------------------------
 Symbolic Z-matrix:
 Charge =  0 Multiplicity = 1

                         Standard orientation:
 ---------------------------------------------------------------------
 Center     Atomic      Atomic             Coordinates (Angstroms)
 Number     Number       Type             X           Y           Z
 ---------------------------------------------------------------------
      1          6           0        4.356182   -0.584300    0.316406
      2          6           0        5.534519   -0.646564   -0.656030
      3          6           0        6.509489   -1.778820   -0.331646
      4          1           0        4.738797   -0.459049    1.338591
      5          1           0        3.823186   -1.545007    0.297691
      6          1           0        6.064313    0.314453   -0.636512
      7          1           0        5.149047   -0.771488   -1.676041
      8          1           0        6.001275   -2.747747   -0.370367
      9          1           0        6.921741   -1.655636    0.675069
     10          1           0        7.344106   -1.804977   -1.039170
     11          6           0        3.372745    0.542513    0.005163
     12          6           0        2.194409    0.604778    0.977599
     13          6           0        1.219439    1.737033    0.653215
     14          1           0        3.905742    1.503221    0.023877
     15          1           0        2.990131    0.417263   -1.017023
     16          1           0        2.579881    0.729702    1.997609
     17          1           0        1.664615   -0.356239    0.958080
     18          1           0        0.807187    1.613850   -0.353500
     19          1           0        1.727653    2.705961    0.691935
     20          1           0        0.384822    1.763191    1.360738
     21          6           0       -3.766995    0.778127   -0.183782
     22          6           0       -2.318595    1.195543   -0.440466
     23          6           0       -2.139622    2.713401   -0.483694
     24          1           0       -4.408631    1.202229   -0.968247
     25          1           0       -4.104364    1.215248    0.766220
     26          1           0       -1.983612    0.756629   -1.389020
     27          1           0       -1.680306    0.770239    0.344595
     28          1           0       -2.447368    3.164769    0.465073
     29          1           0       -2.752398    3.151081   -1.278391
     30          1           0       -1.096791    2.989589   -0.668312
     31          6           0       -3.961933   -0.736340   -0.137786
     32          6           0       -5.410332   -1.153756    0.118896
     33          6           0       -5.589306   -2.671615    0.162125
     34          1           0       -3.624564   -1.173461   -1.087788
     35          1           0       -3.320296   -1.160443    0.646678
     36          1           0       -6.048622   -0.728453   -0.666163
     37          1           0       -5.745316   -0.714843    1.067452
     38          1           0       -4.976530   -3.109295    0.956823
     39          1           0       -5.281559   -3.122983   -0.786643
     40          1           0       -6.632136   -2.947804    0.346743
 ---------------------------------------------------------------------

 SCF Done:  E(RHF) =  -470.731839470     A.U. after   11 cycles
 E2 =    -0.1583546251D+01 EUMP2 =    -0.47231538572083D+03

 The electronic state is 1-A.
 Alpha  occ. eigenvalues --  -11.21603 -11.21592 -11.21583 -11.21494 -11.21406
 Alpha  occ. eigenvalues --  -11.21367 -11.21347 -11.21302 -11.21072 -11.21061
 Alpha  occ. eigenvalues --  -11.21029 -11.20906  -1.08441  -1.08376  -1.03591
 Alpha  occ. eigenvalues --   -1.03422  -0.96087  -0.95830  -0.87075  -0.86877
 Alpha  occ. eigenvalues --   -0.79620  -0.79533  -0.78256  -0.78189  -0.65089
 Alpha  occ. eigenvalues --   -0.65005  -0.61058  -0.60850  -0.59502  -0.59154
 Alpha  occ. eigenvalues --   -0.57643  -0.57545  -0.55281  -0.55151  -0.52889
 Alpha  occ. eigenvalues --   -0.52535  -0.52459  -0.52117  -0.49908  -0.49836
 Alpha  occ. eigenvalues --   -0.48002  -0.47764  -0.46656  -0.46526  -0.45781
 Alpha  occ. eigenvalues --   -0.45741  -0.45701  -0.45656  -0.43784  -0.43694
 Alpha virt. eigenvalues --    0.21903   0.23046   0.23540   0.24909   0.26302
 Alpha virt. eigenvalues --    0.26602   0.26930   0.27381   0.27879   0.29338
 Alpha virt. eigenvalues --    0.29573   0.31327   0.31531   0.31877   0.32477

 Mulliken charges:
               1
     1  C   -0.298268
     2  C   -0.299644
     3  C   -0.475707
     4  H    0.149633
     5  H    0.149570
     6  H    0.151914
     7  H    0.151928
     8  H    0.155197
     9  H    0.155169
    10  H    0.160254
    11  C   -0.298562
    12  C   -0.301251
    13  C   -0.478247
    14  H    0.149532
    15  H    0.149768
    16  H    0.151663
    17  H    0.152102
    18  H    0.158828
    19  H    0.154574
    20  H    0.162495
    21  C   -0.297933
    22  C   -0.302707
    23  C   -0.479698
    24  H    0.149391
    25  H    0.149174
    26  H    0.149984
    27  H    0.156372
    28  H    0.153872
    29  H    0.154127
    30  H    0.167216
    31  C   -0.298149
    32  C   -0.299579
    33  C   -0.475672
    34  H    0.149222
    35  H    0.149254
    36  H    0.151953
    37  H    0.151879
    38  H    0.155070
    39  H    0.155071
    40  H    0.160204
 Sum of Mulliken charges =  -0.00000

 Dipole moment (field-independent basis, Debye):
    X=              0.0363    Y=              0.0135    Z=              0.0062  Tot=              0.0392
 Quadrupole moment (field-independent basis, Debye-Ang):
   XX=            -85.4617   YY=            -86.1708   ZZ=            -83.4217
   XY=              0.6930   XZ=              0.3895   YZ=              0.5555

 Normal termination of Gaussian 16 at Thu May  6 07:08:40 2021.
