 Gaussian 16, Revision A.03,
 Gaussian 16:  EM64L-G16RevA.03 25-Dec-2016

 -------------
 #p 6-31g* mp2
 -------------

 ------------------------------------------------------
 Input file generated by CHIRIPA (05-May-2021 14:55:25)
 ------------------------------------------------------
 Symbolic Z-matrix:
 Charge =  0 Multiplicity = 1

                         Standard orientation:
 ---------------------------------------------------------------------
 Center     Atomic      Atomic             Coordinates (Angstroms)
 Number     Number       Type             X           Y           Z
 ---------------------------------------------------------------------
      1          6           0       -3.560644   -0.054515   -1.688896
      2          6           0       -3.655269    0.620205   -0.467291
      3          6           0       -2.771168    0.327998    0.575556
      4          6           0       -1.800193   -0.649051    0.361379
      5          6           0       -1.680495   -1.338608   -0.844222
      6          6           0       -2.575296   -1.030049   -1.873138
      7          1           0       -4.251591    0.178830   -2.493594
      8          1           0       -4.419508    1.378289   -0.321375
      9          1           0       -2.821992    0.835063    1.531443
     10          1           0       -0.908185   -2.089333   -0.959844
     11          1           0       -2.499459   -1.555647   -2.820788
     12          7           0       -0.858571   -0.967054    1.458020
     13          8           0       -0.011986   -1.832032    1.244141
     14          8           0       -0.984942   -0.345305    2.510681
     15          6           0        1.799161    0.932045    0.013437
     16          6           0        1.419213    2.398351   -0.195298
     17          6           0        0.008509    2.719644    0.299149
     18          1           0        1.072297    0.293810   -0.507399
     19          1           0        1.719796    0.688477    1.081975
     20          1           0        1.500608    2.639452   -1.262941
     21          1           0        2.147175    3.033176    0.325936
     22          1           0       -0.082445    2.506824    1.369212
     23          1           0       -0.732686    2.110863   -0.228693
     24          1           0       -0.242405    3.773041    0.140224
     25          6           0        3.206621    0.595354   -0.475873
     26          6           0        3.586569   -0.870951   -0.267137
     27          6           0        4.997272   -1.192245   -0.761584
     28          1           0        3.285986    0.838922   -1.544410
     29          1           0        3.933484    1.233590    0.044964
     30          1           0        2.858606   -1.505776   -0.788371
     31          1           0        3.505174   -1.112053    0.800506
     32          1           0        5.738468   -0.583464   -0.233742
     33          1           0        5.088226   -0.979424   -1.831647
     34          1           0        5.248186   -2.245642   -0.602659
 ---------------------------------------------------------------------

 SCF Done:  E(RHF) =  -669.534475683     A.U. after   15 cycles
 E2 =    -0.2096578164D+01 EUMP2 =    -0.67163105384685D+03

 The electronic state is 1-A.
 Alpha  occ. eigenvalues --  -20.60911 -20.60892 -15.85881 -11.31217 -11.27842
 Alpha  occ. eigenvalues --  -11.27794 -11.27587 -11.26848 -11.26827 -11.21123
 Alpha  occ. eigenvalues --  -11.20792 -11.20737 -11.20663 -11.20618 -11.20462
 Alpha  occ. eigenvalues --   -1.59936  -1.39496  -1.19448  -1.08833  -1.07803
 Alpha  occ. eigenvalues --   -1.04848  -1.02949  -0.95676  -0.95425  -0.86491
 Alpha  occ. eigenvalues --   -0.86204  -0.82510  -0.79024  -0.77725  -0.77488
 Alpha  occ. eigenvalues --   -0.72139  -0.71188  -0.70547  -0.65095  -0.64840
 Alpha  occ. eigenvalues --   -0.64446  -0.62186  -0.60368  -0.58804  -0.57073
 Alpha  occ. eigenvalues --   -0.55344  -0.54778  -0.53263  -0.52927  -0.52128
 Alpha  occ. eigenvalues --   -0.51802  -0.49379  -0.48906  -0.48897  -0.47297
 Alpha  occ. eigenvalues --   -0.46032  -0.45404  -0.45011  -0.44561  -0.43189
 Alpha  occ. eigenvalues --   -0.37359  -0.36390
 Alpha virt. eigenvalues --    0.04904   0.11100   0.16393   0.21228   0.23487
 Alpha virt. eigenvalues --    0.24725   0.26470   0.27270   0.27648   0.28621
 Alpha virt. eigenvalues --    0.28790   0.30821   0.31748   0.32226   0.32460

 Mulliken charges:
               1
     1  C   -0.170753
     2  C   -0.217633
     3  C   -0.171542
     4  C    0.161391
     5  C   -0.172888
     6  C   -0.218918
     7  H    0.226154
     8  H    0.224319
     9  H    0.276570
    10  H    0.275749
    11  H    0.223810
    12  N    0.491781
    13  O   -0.457888
    14  O   -0.460260
    15  C   -0.307418
    16  C   -0.296381
    17  C   -0.489943
    18  H    0.143204
    19  H    0.166204
    20  H    0.147305
    21  H    0.151762
    22  H    0.164621
    23  H    0.156454
    24  H    0.155593
    25  C   -0.298257
    26  C   -0.297658
    27  C   -0.475961
    28  H    0.144064
    29  H    0.148604
    30  H    0.150599
    31  H    0.162917
    32  H    0.153859
    33  H    0.150788
    34  H    0.159754
 Sum of Mulliken charges =  -0.00000

 Dipole moment (field-independent basis, Debye):
    X=             -3.4419    Y=              0.9568    Z=             -3.6515  Tot=              5.1084
 Quadrupole moment (field-independent basis, Debye-Ang):
   XX=            -83.3839   YY=            -94.8966   ZZ=            -95.5494
   XY=             -1.3656   XZ=              5.5913   YZ=              5.4282

 Normal termination of Gaussian 16 at Wed May  5 22:30:24 2021.
