 Gaussian 16, Revision A.03,
 Gaussian 16:  EM64L-G16RevA.03 25-Dec-2016

 -------------
 #p 6-31g* mp2
 -------------

 ------------------------------------------------------
 Input file generated by CHIRIPA (05-May-2021 14:51:11)
 ------------------------------------------------------
 Symbolic Z-matrix:
 Charge =  0 Multiplicity = 1

                         Standard orientation:
 ---------------------------------------------------------------------
 Center     Atomic      Atomic             Coordinates (Angstroms)
 Number     Number       Type             X           Y           Z
 ---------------------------------------------------------------------
      1          6           0        2.140789    1.080242   -0.461410
      2          6           0        1.935270    2.576422   -0.222259
      3          6           0        1.047410    3.228123   -1.282818
      4          1           0        2.585051    0.931867   -1.455171
      5          1           0        1.162107    0.580970   -0.478839
      6          1           0        2.914133    3.072515   -0.203907
      7          1           0        1.491623    2.721265    0.771126
      8          1           0        0.057933    2.759811   -1.297623
      9          1           0        1.488525    3.113056   -2.278196
     10          1           0        0.913760    4.297604   -1.092531
     11          6           0        3.026213    0.414595    0.590571
     12          6           0        3.231732   -1.081584    0.351420
     13          6           0        4.119592   -1.733285    1.411978
     14          1           0        4.004895    0.913868    0.608000
     15          1           0        2.581951    0.562971    1.584332
     16          1           0        3.675379   -1.226427   -0.641965
     17          1           0        2.252869   -1.577677    0.333068
     18          1           0        3.678477   -1.618219    2.407357
     19          1           0        5.109069   -1.264973    1.426784
     20          1           0        4.253242   -2.802766    1.221692
     21          6           0       -1.892121   -0.943381   -0.323470
     22          6           0       -1.814495   -2.391092   -0.809362
     23          6           0       -0.425069   -2.768141   -1.324264
     24          1           0       -1.609465   -0.271719   -1.145614
     25          1           0       -1.150999   -0.791152    0.473373
     26          1           0       -2.556495   -2.540916   -1.604098
     27          1           0       -2.097554   -3.059378    0.013978
     28          1           0        0.324178   -2.646805   -0.535273
     29          1           0       -0.137371   -2.125397   -2.162542
     30          1           0       -0.392090   -3.807186   -1.666547
     31          6           0       -3.274882   -0.551457    0.194309
     32          6           0       -3.352507    0.896255    0.680201
     33          6           0       -4.741933    1.273304    1.195103
     34          1           0       -4.016003   -0.703685   -0.602534
     35          1           0       -3.557537   -1.223119    1.016452
     36          1           0       -3.069448    1.564540   -0.143140
     37          1           0       -2.610507    1.046078    1.474936
     38          1           0       -5.029631    0.630559    2.033381
     39          1           0       -5.491180    1.151967    0.406111
     40          1           0       -4.774911    2.312348    1.537387
 ---------------------------------------------------------------------

 SCF Done:  E(RHF) =  -470.733215217     A.U. after   11 cycles
 E2 =    -0.1583950919D+01 EUMP2 =    -0.47231716613574D+03

 The electronic state is 1-A.
 Alpha  occ. eigenvalues --  -11.21668 -11.21656 -11.21548 -11.21547 -11.21490
 Alpha  occ. eigenvalues --  -11.21425 -11.21343 -11.21262 -11.21116 -11.21079
 Alpha  occ. eigenvalues --  -11.21049 -11.21037  -1.08506  -1.08372  -1.03586
 Alpha  occ. eigenvalues --   -1.03486  -0.96034  -0.95935  -0.87057  -0.86945
 Alpha  occ. eigenvalues --   -0.79676  -0.79532  -0.78405  -0.78102  -0.65159
 Alpha  occ. eigenvalues --   -0.64989  -0.61040  -0.60842  -0.59405  -0.59305
 Alpha  occ. eigenvalues --   -0.57654  -0.57536  -0.55355  -0.55196  -0.52719
 Alpha  occ. eigenvalues --   -0.52646  -0.52499  -0.52320  -0.50045  -0.49825
 Alpha  occ. eigenvalues --   -0.48089  -0.47802  -0.46787  -0.46504  -0.46194
 Alpha  occ. eigenvalues --   -0.45765  -0.45702  -0.45190  -0.43844  -0.43732
 Alpha virt. eigenvalues --    0.20402   0.22476   0.23676   0.24121   0.25663
 Alpha virt. eigenvalues --    0.26033   0.26901   0.27849   0.28025   0.29871
 Alpha virt. eigenvalues --    0.30626   0.31314   0.31655   0.31897   0.32135

 Mulliken charges:
               1
     1  C   -0.304585
     2  C   -0.299058
     3  C   -0.476486
     4  H    0.149023
     5  H    0.156820
     6  H    0.151619
     7  H    0.151687
     8  H    0.155629
     9  H    0.154828
    10  H    0.160058
    11  C   -0.297513
    12  C   -0.306955
    13  C   -0.475211
    14  H    0.149348
    15  H    0.148672
    16  H    0.152273
    17  H    0.158412
    18  H    0.154563
    19  H    0.155233
    20  H    0.160172
    21  C   -0.301520
    22  C   -0.299487
    23  C   -0.482186
    24  H    0.151316
    25  H    0.150107
    26  H    0.152241
    27  H    0.151925
    28  H    0.161180
    29  H    0.156326
    30  H    0.160554
    31  C   -0.298209
    32  C   -0.300206
    33  C   -0.475741
    34  H    0.150024
    35  H    0.149933
    36  H    0.152215
    37  H    0.151683
    38  H    0.155312
    39  H    0.155424
    40  H    0.160579
 Sum of Mulliken charges =  -0.00000

 Dipole moment (field-independent basis, Debye):
    X=             -0.0462    Y=             -0.0310    Z=             -0.0150  Tot=              0.0576
 Quadrupole moment (field-independent basis, Debye-Ang):
   XX=            -85.3144   YY=            -85.2383   ZZ=            -84.2085
   XY=              0.8465   XZ=             -0.3094   YZ=             -0.1102

 Normal termination of Gaussian 16 at Thu May  6 03:50:51 2021.
