 Gaussian 16, Revision A.03,
 Gaussian 16:  EM64L-G16RevA.03 25-Dec-2016

 -------------
 #p 6-31g* mp2
 -------------

 ------------------------------------------------------
 Input file generated by CHIRIPA (05-May-2021 14:53:16)
 ------------------------------------------------------
 Symbolic Z-matrix:
 Charge =  0 Multiplicity = 1

                         Standard orientation:
 ---------------------------------------------------------------------
 Center     Atomic      Atomic             Coordinates (Angstroms)
 Number     Number       Type             X           Y           Z
 ---------------------------------------------------------------------
      1          6           0        4.359475   -0.572467    0.299282
      2          6           0        5.495058   -1.511199   -0.109642
      3          6           0        5.409906   -2.875498    0.575363
      4          1           0        4.377496   -0.438689    1.389568
      5          1           0        3.397373   -1.045397    0.058258
      6          1           0        6.454761   -1.036050    0.130815
      7          1           0        5.474449   -1.642606   -1.199102
      8          1           0        4.467357   -3.373562    0.326097
      9          1           0        5.453239   -2.763561    1.663569
     10          1           0        6.231257   -3.530647    0.268730
     11          6           0        4.430882    0.795375   -0.377207
     12          6           0        3.295298    1.734106    0.031717
     13          6           0        3.380450    3.098405   -0.653287
     14          1           0        5.392984    1.268304   -0.136183
     15          1           0        4.412860    0.661597   -1.467493
     16          1           0        3.315907    1.865513    1.121177
     17          1           0        2.335595    1.258958   -0.208739
     18          1           0        3.337117    2.986468   -1.741494
     19          1           0        4.323000    3.596470   -0.404021
     20          1           0        2.559100    3.753554   -0.346654
     21          6           0       -0.993888    0.512328    0.262384
     22          6           0       -1.417917   -0.298955   -0.795227
     23          6           0       -2.767293   -0.637466   -0.933587
     24          6           0       -3.669608   -0.145021    0.008016
     25          6           0       -3.278062    0.665289    1.072619
     26          6           0       -1.923675    0.991016    1.191294
     27          1           0        0.056286    0.770325    0.362219
     28          1           0       -0.698056   -0.672146   -1.518121
     29          1           0       -3.122848   -1.263761   -1.742754
     30          1           0       -4.019097    1.022183    1.777539
     31          1           0       -1.597229    1.621254    2.013655
     32          7           0       -5.100784   -0.496621   -0.128040
     33          8           0       -5.875934   -0.050011    0.714765
     34          8           0       -5.420293   -1.212156   -1.074908
 ---------------------------------------------------------------------

 SCF Done:  E(RHF) =  -669.535547325     A.U. after   15 cycles
 E2 =    -0.2090967648D+01 EUMP2 =    -0.67162651497306D+03

 The electronic state is 1-A.
 Alpha  occ. eigenvalues --  -20.60731 -20.60726 -15.85786 -11.31143 -11.27719
 Alpha  occ. eigenvalues --  -11.27713 -11.27420 -11.26728 -11.26714 -11.22825
 Alpha  occ. eigenvalues --  -11.22334 -11.22296 -11.22227 -11.22034 -11.21652
 Alpha  occ. eigenvalues --   -1.59807  -1.39361  -1.19316  -1.09346  -1.08709
 Alpha  occ. eigenvalues --   -1.04722  -1.04406  -0.96815  -0.95547  -0.87831
 Alpha  occ. eigenvalues --   -0.86117  -0.82385  -0.80505  -0.79152  -0.77431
 Alpha  occ. eigenvalues --   -0.72003  -0.71131  -0.70435  -0.65978  -0.64967
 Alpha  occ. eigenvalues --   -0.64727  -0.62072  -0.61805  -0.60211  -0.58439
 Alpha  occ. eigenvalues --   -0.56093  -0.55229  -0.53510  -0.53229  -0.53049
 Alpha  occ. eigenvalues --   -0.52814  -0.50754  -0.48815  -0.48759  -0.48739
 Alpha  occ. eigenvalues --   -0.47541  -0.46678  -0.46598  -0.44768  -0.44656
 Alpha  occ. eigenvalues --   -0.37290  -0.36330
 Alpha virt. eigenvalues --    0.05107   0.11325   0.16595   0.19444   0.22440
 Alpha virt. eigenvalues --    0.23607   0.24988   0.26142   0.27036   0.27524
 Alpha virt. eigenvalues --    0.29006   0.30359   0.30796   0.31147   0.32274

 Mulliken charges:
               1
     1  C   -0.298209
     2  C   -0.300302
     3  C   -0.476158
     4  H    0.150928
     5  H    0.144716
     6  H    0.153970
     7  H    0.152782
     8  H    0.155114
     9  H    0.156186
    10  H    0.162715
    11  C   -0.297950
    12  C   -0.306061
    13  C   -0.475593
    14  H    0.153740
    15  H    0.151223
    16  H    0.153497
    17  H    0.143330
    18  H    0.157606
    19  H    0.159693
    20  H    0.160287
    21  C   -0.178236
    22  C   -0.221642
    23  C   -0.170802
    24  C    0.158174
    25  C   -0.170605
    26  C   -0.221015
    27  H    0.238533
    28  H    0.222376
    29  H    0.275414
    30  H    0.275400
    31  H    0.224020
    32  N    0.488012
    33  O   -0.460534
    34  O   -0.460612
 Sum of Mulliken charges =  -0.00000

 Dipole moment (field-independent basis, Debye):
    X=              5.3122    Y=              1.2698    Z=              0.4799  Tot=              5.4829
 Quadrupole moment (field-independent basis, Debye-Ang):
   XX=           -130.7740   YY=            -94.9161   ZZ=            -91.1926
   XY=             -5.5451   XZ=             -2.3538   YZ=              3.1759

 Normal termination of Gaussian 16 at Thu May  6 10:36:23 2021.
