 Gaussian 16, Revision A.03,
 Gaussian 16:  EM64L-G16RevA.03 25-Dec-2016

 -------------
 #p 6-31g* mp2
 -------------

 ------------------------------------------------------
 Input file generated by CHIRIPA (05-May-2021 14:57:26)
 ------------------------------------------------------
 Symbolic Z-matrix:
 Charge =  0 Multiplicity = 1

                         Standard orientation:
 ---------------------------------------------------------------------
 Center     Atomic      Atomic             Coordinates (Angstroms)
 Number     Number       Type             X           Y           Z
 ---------------------------------------------------------------------
      1          6           0        5.016841    1.872316    1.106960
      2          6           0        3.820613    2.163917    0.443236
      3          6           0        3.153052    1.174425   -0.284647
      4          6           0        3.712555   -0.101656   -0.327809
      5          6           0        4.902754   -0.423211    0.322821
      6          6           0        5.553148    0.581957    1.044744
      7          1           0        5.528751    2.647066    1.670082
      8          1           0        3.401783    3.165145    0.489813
      9          1           0        2.225532    1.372797   -0.807882
     10          1           0        5.295738   -1.430577    0.258044
     11          1           0        6.482003    0.352626    1.559215
     12          7           0        3.014925   -1.157485   -1.095231
     13          8           0        3.528556   -2.273869   -1.117767
     14          8           0        1.967701   -0.848668   -1.659670
     15          6           0       -2.144111   -1.460471    1.468275
     16          6           0       -3.402021   -1.205960    2.024518
     17          6           0       -4.342617   -0.438120    1.331517
     18          6           0       -3.990279    0.061841    0.078845
     19          6           0       -2.745216   -0.174321   -0.501960
     20          6           0       -1.820294   -0.944749    0.209031
     21          1           0       -1.419521   -2.057952    2.013601
     22          1           0       -3.656249   -1.605194    3.002283
     23          1           0       -5.323705   -0.225721    1.738666
     24          1           0       -2.520743    0.237168   -1.478539
     25          1           0       -0.844145   -1.140795   -0.225416
     26          7           0       -4.977750    0.876087   -0.664327
     27          8           0       -4.642896    1.305146   -1.766333
     28          8           0       -6.067887    1.069819   -0.130746
 ---------------------------------------------------------------------

 SCF Done:  E(RHF) =  -868.339838401     A.U. after   16 cycles
 E2 =    -0.2598413025D+01 EUMP2 =    -0.87093825142636D+03

 The electronic state is 1-A.
 Alpha  occ. eigenvalues --  -20.61736 -20.61678 -20.60380 -20.60372 -15.86729
 Alpha  occ. eigenvalues --  -15.85425 -11.31862 -11.30686 -11.28402 -11.28392
 Alpha  occ. eigenvalues --  -11.28083 -11.27353 -11.27340 -11.27262 -11.27153
 Alpha  occ. eigenvalues --  -11.26928 -11.26282 -11.26041  -1.60768  -1.59457
 Alpha  occ. eigenvalues --   -1.40329  -1.39012  -1.20010  -1.18831  -1.09445
 Alpha  occ. eigenvalues --   -1.08248  -1.05373  -1.04195  -0.96317  -0.95105
 Alpha  occ. eigenvalues --   -0.86781  -0.85599  -0.83156  -0.81922  -0.78236
 Alpha  occ. eigenvalues --   -0.76984  -0.72950  -0.72077  -0.71645  -0.71107
 Alpha  occ. eigenvalues --   -0.70779  -0.69945  -0.65662  -0.65364  -0.64471
 Alpha  occ. eigenvalues --   -0.64156  -0.62721  -0.61521  -0.55872  -0.54713
 Alpha  occ. eigenvalues --   -0.53720  -0.53455  -0.52564  -0.52251  -0.49722
 Alpha  occ. eigenvalues --   -0.49683  -0.48407  -0.48392  -0.45770  -0.44441
 Alpha  occ. eigenvalues --   -0.37975  -0.36967  -0.36825  -0.35806
 Alpha virt. eigenvalues --    0.04236   0.05510   0.10688   0.11841   0.15751
 Alpha virt. eigenvalues --    0.17036   0.20834   0.22106   0.26756   0.27401
 Alpha virt. eigenvalues --    0.28337   0.28846   0.30427   0.31442   0.32299

 Mulliken charges:
               1
     1  C   -0.170042
     2  C   -0.218415
     3  C   -0.171476
     4  C    0.156899
     5  C   -0.171030
     6  C   -0.218575
     7  H    0.228156
     8  H    0.226564
     9  H    0.274980
    10  H    0.276273
    11  H    0.225413
    12  N    0.488229
    13  O   -0.455913
    14  O   -0.467412
    15  C   -0.172431
    16  C   -0.218650
    17  C   -0.172799
    18  C    0.158267
    19  C   -0.174009
    20  C   -0.227756
    21  H    0.224985
    22  H    0.220917
    23  H    0.273383
    24  H    0.277208
    25  H    0.242563
    26  N    0.487978
    27  O   -0.460880
    28  O   -0.462426
 Sum of Mulliken charges =  -0.00000

 Dipole moment (field-independent basis, Debye):
    X=              6.3671    Y=              0.8723    Z=              5.3068  Tot=              8.3345
 Quadrupole moment (field-independent basis, Debye-Ang):
   XX=           -110.2539   YY=           -104.5820   ZZ=           -104.2527
   XY=             23.4054   XZ=             -2.1910   YZ=             -2.8039

 Normal termination of Gaussian 16 at Wed May  5 19:35:58 2021.
