 Gaussian 16, Revision A.03,
 Gaussian 16:  EM64L-G16RevA.03 25-Dec-2016

 -------------
 #p 6-31g* mp2
 -------------

 ------------------------------------------------------
 Input file generated by CHIRIPA (05-May-2021 14:57:24)
 ------------------------------------------------------
 Symbolic Z-matrix:
 Charge =  0 Multiplicity = 1

                         Standard orientation:
 ---------------------------------------------------------------------
 Center     Atomic      Atomic             Coordinates (Angstroms)
 Number     Number       Type             X           Y           Z
 ---------------------------------------------------------------------
      1          6           0        1.937416    1.347550    0.395979
      2          6           0        2.245545    0.885685   -0.887867
      3          6           0        3.416248    0.157063   -1.118330
      4          6           0        4.260017   -0.092667   -0.037137
      5          6           0        3.980678    0.354029    1.253492
      6          6           0        2.804437    1.080718    1.460683
      7          1           0        1.025835    1.912810    0.565969
      8          1           0        1.574061    1.091419   -1.716617
      9          1           0        3.679196   -0.212384   -2.102091
     10          1           0        4.669602    0.133232    2.059749
     11          1           0        2.567698    1.438163    2.458798
     12          7           0        5.502319   -0.863003   -0.268800
     13          8           0        6.229171   -1.069751    0.700519
     14          8           0        5.725660   -1.245458   -1.415309
     15          6           0       -2.276983    1.752270   -0.109681
     16          6           0       -3.588760    2.045878   -0.496406
     17          6           0       -4.582192    1.063791   -0.440342
     18          6           0       -4.227189   -0.207012    0.009459
     19          6           0       -2.929151   -0.530393    0.401648
     20          6           0       -1.951937    0.467337    0.337323
     21          1           0       -1.511560    2.521255   -0.156442
     22          1           0       -3.844075    3.042905   -0.843967
     23          1           0       -5.605596    1.263871   -0.733655
     24          1           0       -2.705001   -1.533445    0.743789
     25          1           0       -0.934020    0.236463    0.638295
     26          7           0       -5.270307   -1.254985    0.073184
     27          8           0       -4.931915   -2.366824    0.473112
     28          8           0       -6.406541   -0.944703   -0.278003
 ---------------------------------------------------------------------

 SCF Done:  E(RHF) =  -868.336268631     A.U. after   16 cycles
 E2 =    -0.2600788278D+01 EUMP2 =    -0.87093705690854D+03

 The electronic state is 1-A.
 Alpha  occ. eigenvalues --  -20.61387 -20.61382 -20.61287 -20.61282 -15.86445
 Alpha  occ. eigenvalues --  -15.86345 -11.32031 -11.31876 -11.28576 -11.28569
 Alpha  occ. eigenvalues --  -11.28526 -11.28449 -11.28437 -11.28371 -11.27731
 Alpha  occ. eigenvalues --  -11.27710 -11.27549 -11.27536  -1.60457  -1.60359
 Alpha  occ. eigenvalues --   -1.40004  -1.39907  -1.20227  -1.20075  -1.09632
 Alpha  occ. eigenvalues --   -1.09468  -1.05636  -1.05490  -0.96428  -0.96265
 Alpha  occ. eigenvalues --   -0.87048  -0.86906  -0.83220  -0.83088  -0.78198
 Alpha  occ. eigenvalues --   -0.78081  -0.72661  -0.72566  -0.71780  -0.71683
 Alpha  occ. eigenvalues --   -0.71602  -0.71118  -0.65893  -0.65759  -0.65679
 Alpha  occ. eigenvalues --   -0.65446  -0.62957  -0.62824  -0.56325  -0.56044
 Alpha  occ. eigenvalues --   -0.54029  -0.53826  -0.53727  -0.53522  -0.49438
 Alpha  occ. eigenvalues --   -0.49401  -0.49335  -0.49305  -0.45359  -0.45275
 Alpha  occ. eigenvalues --   -0.38286  -0.38114  -0.37227  -0.37070
 Alpha virt. eigenvalues --    0.04252   0.04438   0.10309   0.10629   0.15524
 Alpha virt. eigenvalues --    0.15875   0.17926   0.22012   0.24816   0.26510
 Alpha virt. eigenvalues --    0.26876   0.29447   0.29768   0.31236   0.31783

 Mulliken charges:
               1
     1  C   -0.179632
     2  C   -0.219187
     3  C   -0.169848
     4  C    0.160369
     5  C   -0.170010
     6  C   -0.219271
     7  H    0.219734
     8  H    0.224819
     9  H    0.278975
    10  H    0.278764
    11  H    0.226382
    12  N    0.487762
    13  O   -0.457780
    14  O   -0.457691
    15  C   -0.176620
    16  C   -0.217311
    17  C   -0.170376
    18  C    0.159601
    19  C   -0.170603
    20  C   -0.223438
    21  H    0.217535
    22  H    0.225291
    23  H    0.277978
    24  H    0.278801
    25  H    0.224625
    26  N    0.487840
    27  O   -0.458184
    28  O   -0.458528
 Sum of Mulliken charges =  -0.00000

 Dipole moment (field-independent basis, Debye):
    X=             -0.5942    Y=              6.2245    Z=              0.5600  Tot=              6.2778
 Quadrupole moment (field-independent basis, Debye-Ang):
   XX=           -169.2828   YY=           -105.9894   ZZ=           -100.1749
   XY=             -6.8934   XZ=              7.3362   YZ=             -0.9939

 Normal termination of Gaussian 16 at Wed May  5 16:25:01 2021.
