 Gaussian 16, Revision A.03,
 Gaussian 16:  EM64L-G16RevA.03 25-Dec-2016

 -------------
 #p 6-31g* mp2
 -------------

 ------------------------------------------------------
 Input file generated by CHIRIPA (05-May-2021 14:57:24)
 ------------------------------------------------------
 Symbolic Z-matrix:
 Charge =  0 Multiplicity = 1

                         Standard orientation:
 ---------------------------------------------------------------------
 Center     Atomic      Atomic             Coordinates (Angstroms)
 Number     Number       Type             X           Y           Z
 ---------------------------------------------------------------------
      1          6           0       -2.604163    2.215489    0.932444
      2          6           0       -3.514745    1.526961    1.740708
      3          6           0       -4.098291    0.336260    1.297703
      4          6           0       -3.746960   -0.139394    0.035321
      5          6           0       -2.843023    0.523671   -0.793253
      6          6           0       -2.271795    1.712533   -0.329732
      7          1           0       -2.155635    3.139740    1.284549
      8          1           0       -3.774734    1.915210    2.721378
      9          1           0       -4.806143   -0.217010    1.902893
     10          1           0       -2.603524    0.111839   -1.766111
     11          1           0       -1.564930    2.245132   -0.959593
     12          7           0       -4.358214   -1.398963   -0.444529
     13          8           0       -4.032085   -1.797071   -1.560677
     14          8           0       -5.151870   -1.964254    0.304600
     15          6           0        1.705880    1.162135   -1.157139
     16          6           0        1.515854   -0.112823   -0.614096
     17          6           0        2.583749   -0.803784   -0.033819
     18          6           0        3.833803   -0.187142   -0.013598
     19          6           0        4.054887    1.081950   -0.546343
     20          6           0        2.972558    1.754408   -1.121591
     21          1           0        0.870707    1.691703   -1.605958
     22          1           0        0.533243   -0.575245   -0.640298
     23          1           0        2.464657   -1.791853    0.393911
     24          1           0        5.046065    1.517045   -0.505415
     25          1           0        3.123071    2.744447   -1.542557
     26          7           0        4.971976   -0.908837    0.598054
     27          8           0        6.063429   -0.343735    0.603366
     28          8           0        4.751072   -2.025938    1.060572
 ---------------------------------------------------------------------

 SCF Done:  E(RHF) =  -868.336845900     A.U. after   16 cycles
 E2 =    -0.2600326433D+01 EUMP2 =    -0.87093717233319D+03

 The electronic state is 1-A.
 Alpha  occ. eigenvalues --  -20.61496 -20.61481 -20.61028 -20.61020 -15.86553
 Alpha  occ. eigenvalues --  -15.86081 -11.32069 -11.31550 -11.28737 -11.28598
 Alpha  occ. eigenvalues --  -11.28397 -11.28123 -11.28079 -11.27997 -11.27820
 Alpha  occ. eigenvalues --  -11.27609 -11.27222 -11.27147  -1.60566  -1.60099
 Alpha  occ. eigenvalues --   -1.40115  -1.39649  -1.20259  -1.19735  -1.09612
 Alpha  occ. eigenvalues --   -1.09140  -1.05700  -1.05137  -0.96421  -0.95957
 Alpha  occ. eigenvalues --   -0.87078  -0.86546  -0.83267  -0.82769  -0.78299
 Alpha  occ. eigenvalues --   -0.77774  -0.72762  -0.72299  -0.71897  -0.71423
 Alpha  occ. eigenvalues --   -0.71333  -0.70940  -0.65909  -0.65715  -0.65392
 Alpha  occ. eigenvalues --   -0.65144  -0.63045  -0.62467  -0.56167  -0.55750
 Alpha  occ. eigenvalues --   -0.54009  -0.53768  -0.53466  -0.53218  -0.49535
 Alpha  occ. eigenvalues --   -0.49512  -0.49067  -0.49046  -0.45488  -0.45031
 Alpha  occ. eigenvalues --   -0.38228  -0.37780  -0.37288  -0.36717
 Alpha virt. eigenvalues --    0.04231   0.04729   0.10264   0.10949   0.15586
 Alpha virt. eigenvalues --    0.16164   0.18401   0.21960   0.24746   0.26346
 Alpha virt. eigenvalues --    0.27732   0.28812   0.29691   0.31382   0.32347

 Mulliken charges:
               1
     1  C   -0.169383
     2  C   -0.217818
     3  C   -0.169274
     4  C    0.159210
     5  C   -0.177638
     6  C   -0.220518
     7  H    0.228606
     8  H    0.227559
     9  H    0.279035
    10  H    0.274436
    11  H    0.217552
    12  N    0.487939
    13  O   -0.460276
    14  O   -0.456803
    15  C   -0.173211
    16  C   -0.218759
    17  C   -0.170893
    18  C    0.159312
    19  C   -0.170975
    20  C   -0.218784
    21  H    0.216324
    22  H    0.226883
    23  H    0.278577
    24  H    0.276503
    25  H    0.222826
    26  N    0.487847
    27  O   -0.459860
    28  O   -0.458416
 Sum of Mulliken charges =  -0.00000

 Dipole moment (field-independent basis, Debye):
    X=             -1.9989    Y=              6.8818    Z=             -0.2347  Tot=              7.1701
 Quadrupole moment (field-independent basis, Debye-Ang):
   XX=           -148.2615   YY=           -104.8733   ZZ=           -101.6604
   XY=             -3.7470   XZ=            -18.2392   YZ=             -0.7309

 Normal termination of Gaussian 16 at Thu May  6 22:46:53 2021.
