 Gaussian 16, Revision A.03,
 Gaussian 16:  EM64L-G16RevA.03 25-Dec-2016

 -------------
 #p 6-31g* mp2
 -------------

 ------------------------------------------------------
 Input file generated by CHIRIPA (05-May-2021 14:53:13)
 ------------------------------------------------------
 Symbolic Z-matrix:
 Charge =  0 Multiplicity = 1

                         Standard orientation:
 ---------------------------------------------------------------------
 Center     Atomic      Atomic             Coordinates (Angstroms)
 Number     Number       Type             X           Y           Z
 ---------------------------------------------------------------------
      1          6           0        2.756115    1.289944   -0.286327
      2          6           0        1.515335    1.899699    0.366857
      3          6           0        1.515387    3.428084    0.324024
      4          1           0        3.653824    1.672296    0.218520
      5          1           0        2.816346    1.628429   -1.329973
      6          1           0        1.456709    1.559059    1.408559
      7          1           0        0.620468    1.515703   -0.139480
      8          1           0        1.549546    3.784475   -0.710587
      9          1           0        2.390538    3.828077    0.846247
     10          1           0        0.619493    3.842974    0.796360
     11          6           0        2.770575   -0.237242   -0.251367
     12          6           0        4.011354   -0.846997   -0.904551
     13          6           0        4.011303   -2.375382   -0.861719
     14          1           0        2.710344   -0.575727    0.792278
     15          1           0        1.872866   -0.619594   -0.756214
     16          1           0        4.906221   -0.463001   -0.398215
     17          1           0        4.069981   -0.506357   -1.946253
     18          1           0        3.136151   -2.775375   -1.383942
     19          1           0        3.977143   -2.731773    0.172892
     20          1           0        4.907196   -2.790272   -1.334055
     21          6           0       -3.677042    0.544708   -1.564018
     22          6           0       -3.466170   -0.836238   -1.493030
     23          6           0       -2.627054   -1.376955   -0.514226
     24          6           0       -2.012092   -0.503626    0.381546
     25          6           0       -2.202226    0.876631    0.336529
     26          6           0       -3.045511    1.395236   -0.650623
     27          1           0       -4.330507    0.956162   -2.327619
     28          1           0       -3.955307   -1.499167   -2.201065
     29          1           0       -2.446188   -2.442168   -0.436584
     30          1           0       -1.700744    1.512204    1.056237
     31          1           0       -3.207431    2.468104   -0.703375
     32          7           0       -1.121550   -1.064354    1.422180
     33          8           0       -0.591490   -0.273619    2.199618
     34          8           0       -0.970465   -2.283973    1.440686
 ---------------------------------------------------------------------

 SCF Done:  E(RHF) =  -669.535302613     A.U. after   15 cycles
 E2 =    -0.2093713059D+01 EUMP2 =    -0.67162901567137D+03

 The electronic state is 1-A.
 Alpha  occ. eigenvalues --  -20.60860 -20.60838 -15.85883 -11.31242 -11.27816
 Alpha  occ. eigenvalues --  -11.27791 -11.27556 -11.26823 -11.26810 -11.21076
 Alpha  occ. eigenvalues --  -11.21011 -11.20908 -11.20884 -11.20733 -11.20500
 Alpha  occ. eigenvalues --   -1.59909  -1.39466  -1.19421  -1.08812  -1.07903
 Alpha  occ. eigenvalues --   -1.04822  -1.03066  -0.95656  -0.95535  -0.86552
 Alpha  occ. eigenvalues --   -0.86216  -0.82487  -0.79139  -0.77790  -0.77428
 Alpha  occ. eigenvalues --   -0.72113  -0.71212  -0.70528  -0.65072  -0.64829
 Alpha  occ. eigenvalues --   -0.64528  -0.62178  -0.60462  -0.58916  -0.57148
 Alpha  occ. eigenvalues --   -0.55319  -0.54825  -0.53163  -0.52903  -0.52259
 Alpha  occ. eigenvalues --   -0.51957  -0.49463  -0.48899  -0.48867  -0.47445
 Alpha  occ. eigenvalues --   -0.46127  -0.45437  -0.45185  -0.44542  -0.43306
 Alpha  occ. eigenvalues --   -0.37384  -0.36386
 Alpha virt. eigenvalues --    0.04971   0.11158   0.16440   0.20997   0.23343
 Alpha virt. eigenvalues --    0.24321   0.26644   0.27089   0.27682   0.28147
 Alpha virt. eigenvalues --    0.29229   0.30745   0.31549   0.31800   0.32472

 Mulliken charges:
               1
     1  C   -0.297613
     2  C   -0.309290
     3  C   -0.475353
     4  H    0.148970
     5  H    0.144727
     6  H    0.174481
     7  H    0.144615
     8  H    0.151617
     9  H    0.157251
    10  H    0.151446
    11  C   -0.299746
    12  C   -0.299508
    13  C   -0.475240
    14  H    0.162642
    15  H    0.144297
    16  H    0.151130
    17  H    0.148241
    18  H    0.154280
    19  H    0.159962
    20  H    0.157245
    21  C   -0.170531
    22  C   -0.218639
    23  C   -0.171097
    24  C    0.158162
    25  C   -0.171063
    26  C   -0.220239
    27  H    0.225896
    28  H    0.223644
    29  H    0.275780
    30  H    0.279809
    31  H    0.224169
    32  N    0.489859
    33  O   -0.459934
    34  O   -0.459970
 Sum of Mulliken charges =  -0.00000

 Dipole moment (field-independent basis, Debye):
    X=             -3.1951    Y=              1.8319    Z=             -3.4669  Tot=              5.0580
 Quadrupole moment (field-independent basis, Debye-Ang):
   XX=            -82.4969   YY=            -94.3424   ZZ=            -96.7796
   XY=             -1.4985   XZ=              7.7261   YZ=              4.4775

 Normal termination of Gaussian 16 at Thu May  6 15:23:37 2021.
