 Gaussian 16, Revision A.03,
 Gaussian 16:  EM64L-G16RevA.03 25-Dec-2016

 -------------
 #p 6-31g* mp2
 -------------

 ------------------------------------------------------
 Input file generated by CHIRIPA (05-May-2021 14:55:19)
 ------------------------------------------------------
 Symbolic Z-matrix:
 Charge =  0 Multiplicity = 1

                         Standard orientation:
 ---------------------------------------------------------------------
 Center     Atomic      Atomic             Coordinates (Angstroms)
 Number     Number       Type             X           Y           Z
 ---------------------------------------------------------------------
      1          6           0        3.314172   -2.480545   -0.643700
      2          6           0        2.565154   -2.357073    0.531139
      3          6           0        2.167385   -1.097999    0.990552
      4          6           0        2.537722    0.021478    0.246972
      5          6           0        3.283516   -0.068913   -0.927298
      6          6           0        3.670335   -1.338085   -1.367893
      7          1           0        3.618916   -3.462546   -0.993274
      8          1           0        2.287122   -3.242586    1.095596
      9          1           0        1.587105   -0.973624    1.896766
     10          1           0        3.545583    0.832115   -1.468488
     11          1           0        4.251988   -1.430957   -2.280635
     12          7           0        2.122417    1.359748    0.723370
     13          8           0        2.461425    2.330554    0.050134
     14          8           0        1.465759    1.412538    1.760987
     15          6           0       -2.864460    0.798060    0.041439
     16          6           0       -2.445641    1.797615   -1.037201
     17          6           0       -1.502527    2.878276   -0.507576
     18          1           0       -3.350174    1.339114    0.865021
     19          1           0       -1.966014    0.327075    0.463770
     20          1           0       -3.344687    2.265565   -1.458337
     21          1           0       -1.961039    1.254095   -1.858397
     22          1           0       -0.588997    2.428796   -0.105043
     23          1           0       -1.980506    3.446012    0.297291
     24          1           0       -1.215782    3.582051   -1.295191
     25          6           0       -3.807332   -0.288401   -0.472685
     26          6           0       -4.226151   -1.287957    0.605955
     27          6           0       -5.169265   -2.368617    0.076330
     28          1           0       -4.705778    0.182583   -0.895017
     29          1           0       -3.321618   -0.829456   -1.296267
     30          1           0       -4.710753   -0.744437    1.427151
     31          1           0       -3.327106   -1.755907    1.027090
     32          1           0       -4.691286   -2.936355   -0.728538
     33          1           0       -6.082795   -1.919138   -0.326204
     34          1           0       -5.456010   -3.072393    0.863945
 ---------------------------------------------------------------------

 SCF Done:  E(RHF) =  -669.535925590     A.U. after   15 cycles
 E2 =    -0.2091667935D+01 EUMP2 =    -0.67162759352488D+03

 The electronic state is 1-A.
 Alpha  occ. eigenvalues --  -20.60948 -20.60942 -15.85965 -11.31309 -11.27873
 Alpha  occ. eigenvalues --  -11.27868 -11.27610 -11.26879 -11.26869 -11.21405
 Alpha  occ. eigenvalues --  -11.21050 -11.20964 -11.20905 -11.20808 -11.19908
 Alpha  occ. eigenvalues --   -1.60011  -1.39561  -1.19478  -1.08879  -1.07980
 Alpha  occ. eigenvalues --   -1.04874  -1.03017  -0.95718  -0.95434  -0.86441
 Alpha  occ. eigenvalues --   -0.86273  -0.82550  -0.79104  -0.77755  -0.77603
 Alpha  occ. eigenvalues --   -0.72179  -0.71353  -0.70583  -0.65129  -0.64874
 Alpha  occ. eigenvalues --   -0.64624  -0.62219  -0.60421  -0.58859  -0.57039
 Alpha  occ. eigenvalues --   -0.55378  -0.54723  -0.53207  -0.52963  -0.52122
 Alpha  occ. eigenvalues --   -0.51839  -0.49427  -0.48947  -0.48897  -0.47382
 Alpha  occ. eigenvalues --   -0.46154  -0.45301  -0.45237  -0.44921  -0.43272
 Alpha  occ. eigenvalues --   -0.37456  -0.36475
 Alpha virt. eigenvalues --    0.04887   0.11169   0.16376   0.21297   0.23218
 Alpha virt. eigenvalues --    0.24815   0.26870   0.27278   0.27762   0.28353
 Alpha virt. eigenvalues --    0.28616   0.30828   0.31935   0.32147   0.32410

 Mulliken charges:
               1
     1  C   -0.170547
     2  C   -0.218595
     3  C   -0.171441
     4  C    0.158614
     5  C   -0.170802
     6  C   -0.218613
     7  H    0.226117
     8  H    0.223969
     9  H    0.276050
    10  H    0.276107
    11  H    0.223954
    12  N    0.485909
    13  O   -0.457891
    14  O   -0.459024
    15  C   -0.296887
    16  C   -0.300922
    17  C   -0.477258
    18  H    0.151162
    19  H    0.149012
    20  H    0.148800
    21  H    0.146690
    22  H    0.168623
    23  H    0.155061
    24  H    0.158290
    25  C   -0.297730
    26  C   -0.298446
    27  C   -0.475292
    28  H    0.149088
    29  H    0.146717
    30  H    0.153059
    31  H    0.148595
    32  H    0.153239
    33  H    0.155631
    34  H    0.158762
 Sum of Mulliken charges =  -0.00000

 Dipole moment (field-independent basis, Debye):
    X=              1.6640    Y=             -4.6455    Z=             -1.6103  Tot=              5.1906
 Quadrupole moment (field-independent basis, Debye-Ang):
   XX=            -87.0809   YY=            -94.8584   ZZ=            -92.9368
   XY=            -12.2236   XZ=             -6.6846   YZ=             -2.9863

 Normal termination of Gaussian 16 at Thu May  6 10:46:41 2021.
