 Gaussian 16, Revision A.03,
 Gaussian 16:  EM64L-G16RevA.03 25-Dec-2016

 -------------
 #p 6-31g* mp2
 -------------

 ------------------------------------------------------
 Input file generated by CHIRIPA (05-May-2021 14:55:24)
 ------------------------------------------------------
 Symbolic Z-matrix:
 Charge =  0 Multiplicity = 1

                         Standard orientation:
 ---------------------------------------------------------------------
 Center     Atomic      Atomic             Coordinates (Angstroms)
 Number     Number       Type             X           Y           Z
 ---------------------------------------------------------------------
      1          6           0        1.012131    0.325190    0.560846
      2          6           0        1.679743    1.080823   -0.408604
      3          6           0        3.023850    0.831679   -0.701608
      4          6           0        3.672570   -0.185284   -0.002867
      5          6           0        3.034818   -0.955404    0.968461
      6          6           0        1.690603   -0.688725    1.245078
      7          1           0       -0.032046    0.525542    0.782093
      8          1           0        1.155354    1.868869   -0.941563
      9          1           0        3.564875    1.401432   -1.447323
     10          1           0        3.584120   -1.734365    1.483150
     11          1           0        1.174662   -1.277156    1.998469
     12          7           0        5.095572   -0.458324   -0.304382
     13          8           0        5.644667   -1.359844    0.325217
     14          8           0        5.634883    0.234357   -1.164600
     15          6           0       -4.366855    0.931303    0.071112
     16          6           0       -2.937968    1.471582    0.137178
     17          6           0       -2.886724    2.976948    0.399937
     18          1           0       -4.916485    1.461708   -0.718523
     19          1           0       -4.880914    1.157301    1.015603
     20          1           0       -2.426321    1.243415   -0.806631
     21          1           0       -2.391620    0.939697    0.926619
     22          1           0       -3.372662    3.218815    1.350708
     23          1           0       -3.407562    3.524258   -0.392389
     24          1           0       -1.855861    3.342056    0.443277
     25          6           0       -4.434531   -0.572177   -0.190989
     26          6           0       -5.863418   -1.112455   -0.257055
     27          6           0       -5.914662   -2.617821   -0.519814
     28          1           0       -3.920471   -0.798173   -1.135480
     29          1           0       -3.884901   -1.102582    0.598646
     30          1           0       -6.409766   -0.580569   -1.046495
     31          1           0       -6.375065   -0.884288    0.686753
     32          1           0       -5.393824   -3.165131    0.272512
     33          1           0       -5.428723   -2.859687   -1.470585
     34          1           0       -6.945525   -2.982929   -0.563153
 ---------------------------------------------------------------------

 SCF Done:  E(RHF) =  -669.535558339     A.U. after   15 cycles
 E2 =    -0.2091206402D+01 EUMP2 =    -0.67162676474139D+03

 The electronic state is 1-A.
 Alpha  occ. eigenvalues --  -20.60705 -20.60700 -15.85759 -11.31105 -11.27682
 Alpha  occ. eigenvalues --  -11.27679 -11.27351 -11.26680 -11.26669 -11.22939
 Alpha  occ. eigenvalues --  -11.22366 -11.22275 -11.22218 -11.22201 -11.21629
 Alpha  occ. eigenvalues --   -1.59781  -1.39335  -1.19277  -1.09378  -1.08667
 Alpha  occ. eigenvalues --   -1.04682  -1.04464  -0.96871  -0.95507  -0.87887
 Alpha  occ. eigenvalues --   -0.86076  -0.82351  -0.80580  -0.79164  -0.77399
 Alpha  occ. eigenvalues --   -0.71977  -0.71105  -0.70380  -0.66001  -0.64926
 Alpha  occ. eigenvalues --   -0.64691  -0.62036  -0.61853  -0.60292  -0.58501
 Alpha  occ. eigenvalues --   -0.56135  -0.55164  -0.53581  -0.53290  -0.53008
 Alpha  occ. eigenvalues --   -0.52772  -0.50804  -0.48865  -0.48733  -0.48719
 Alpha  occ. eigenvalues --   -0.47606  -0.46691  -0.46592  -0.44745  -0.44702
 Alpha  occ. eigenvalues --   -0.37243  -0.36293
 Alpha virt. eigenvalues --    0.05141   0.11356   0.16634   0.19424   0.22338
 Alpha virt. eigenvalues --    0.23800   0.25018   0.25834   0.26568   0.27676
 Alpha virt. eigenvalues --    0.29044   0.29871   0.30836   0.31211   0.31820

 Mulliken charges:
               1
     1  C   -0.177405
     2  C   -0.222931
     3  C   -0.170684
     4  C    0.158009
     5  C   -0.170583
     6  C   -0.221493
     7  H    0.239402
     8  H    0.223408
     9  H    0.275240
    10  H    0.275233
    11  H    0.223148
    12  N    0.488024
    13  O   -0.460702
    14  O   -0.460723
    15  C   -0.297216
    16  C   -0.307233
    17  C   -0.476211
    18  H    0.153522
    19  H    0.152384
    20  H    0.151787
    21  H    0.145009
    22  H    0.159881
    23  H    0.160459
    24  H    0.156308
    25  C   -0.299027
    26  C   -0.300395
    27  C   -0.476209
    28  H    0.150883
    29  H    0.147337
    30  H    0.153668
    31  H    0.153046
    32  H    0.155159
    33  H    0.156335
    34  H    0.162572
 Sum of Mulliken charges =  -0.00000

 Dipole moment (field-independent basis, Debye):
    X=             -5.3274    Y=              0.9881    Z=              1.0294  Tot=              5.5152
 Quadrupole moment (field-independent basis, Debye-Ang):
   XX=           -131.2492   YY=            -93.6976   ZZ=            -91.8952
   XY=              4.0887   XZ=              4.0335   YZ=             -3.4964

 Normal termination of Gaussian 16 at Wed May  5 20:47:38 2021.
