 Gaussian 16, Revision A.03,
 Gaussian 16:  EM64L-G16RevA.03 25-Dec-2016

 -------------
 #p 6-31g* mp2
 -------------

 ------------------------------------------------------
 Input file generated by CHIRIPA (05-May-2021 14:53:15)
 ------------------------------------------------------
 Symbolic Z-matrix:
 Charge =  0 Multiplicity = 1

                         Standard orientation:
 ---------------------------------------------------------------------
 Center     Atomic      Atomic             Coordinates (Angstroms)
 Number     Number       Type             X           Y           Z
 ---------------------------------------------------------------------
      1          6           0       -4.156614    0.813664   -0.514042
      2          6           0       -3.143573    1.737928    0.162323
      3          6           0       -2.643638    2.846312   -0.764685
      4          1           0       -3.697417    0.367602   -1.406853
      5          1           0       -5.009176    1.410738   -0.866227
      6          1           0       -2.293816    1.139093    0.514354
      7          1           0       -3.605171    2.181694    1.053735
      8          1           0       -3.477442    3.468204   -1.106185
      9          1           0       -2.158636    2.419679   -1.648630
     10          1           0       -1.920483    3.495264   -0.260931
     11          6           0       -4.665672   -0.299488    0.400004
     12          6           0       -5.678713   -1.223752   -0.276361
     13          6           0       -6.178648   -2.332136    0.650647
     14          1           0       -3.813110   -0.896562    0.752189
     15          1           0       -5.124869    0.146574    1.292815
     16          1           0       -5.217115   -1.667518   -1.167773
     17          1           0       -6.528470   -0.624917   -0.628392
     18          1           0       -6.663650   -1.905503    1.534592
     19          1           0       -5.344844   -2.954028    0.992147
     20          1           0       -6.901803   -2.981088    0.146893
     21          6           0        0.934974    0.027156    0.132041
     22          6           0        1.535643   -0.709423   -0.894198
     23          6           0        2.926127   -0.842431   -0.952606
     24          6           0        3.688983   -0.222893    0.036087
     25          6           0        3.120119    0.517558    1.071181
     26          6           0        1.727732    0.637221    1.109732
     27          1           0       -0.145926    0.125297    0.169702
     28          1           0        0.922474   -1.184291   -1.654835
     29          1           0        3.417263   -1.406862   -1.735947
     30          1           0        3.757660    0.979512    1.815196
     31          1           0        1.263983    1.209867    1.907891
     32          7           0        5.162033   -0.356638   -0.015237
     33          8           0        5.811902    0.198815    0.867815
     34          8           0        5.638847   -1.014388   -0.937543
 ---------------------------------------------------------------------

 SCF Done:  E(RHF) =  -669.535450861     A.U. after   15 cycles
 E2 =    -0.2091058777D+01 EUMP2 =    -0.67162650963816D+03

 The electronic state is 1-A.
 Alpha  occ. eigenvalues --  -20.60745 -20.60740 -15.85799 -11.31164 -11.27737
 Alpha  occ. eigenvalues --  -11.27732 -11.27458 -11.26752 -11.26738 -11.22789
 Alpha  occ. eigenvalues --  -11.22359 -11.22313 -11.22225 -11.22048 -11.21666
 Alpha  occ. eigenvalues --   -1.59821  -1.39375  -1.19337  -1.09355  -1.08731
 Alpha  occ. eigenvalues --   -1.04742  -1.04414  -0.96829  -0.95568  -0.87842
 Alpha  occ. eigenvalues --   -0.86139  -0.82404  -0.80496  -0.79150  -0.77447
 Alpha  occ. eigenvalues --   -0.72017  -0.71144  -0.70473  -0.65999  -0.64989
 Alpha  occ. eigenvalues --   -0.64747  -0.62091  -0.61826  -0.60212  -0.58443
 Alpha  occ. eigenvalues --   -0.56127  -0.55237  -0.53517  -0.53239  -0.53069
 Alpha  occ. eigenvalues --   -0.52834  -0.50773  -0.48809  -0.48772  -0.48757
 Alpha  occ. eigenvalues --   -0.47547  -0.46679  -0.46610  -0.44780  -0.44662
 Alpha  occ. eigenvalues --   -0.37314  -0.36348
 Alpha virt. eigenvalues --    0.05086   0.11305   0.16560   0.18864   0.22589
 Alpha virt. eigenvalues --    0.23682   0.25155   0.26257   0.27081   0.27451
 Alpha virt. eigenvalues --    0.28992   0.30408   0.30932   0.31042   0.32171

 Mulliken charges:
               1
     1  C   -0.298614
     2  C   -0.304571
     3  C   -0.476342
     4  H    0.147902
     5  H    0.154163
     6  H    0.141291
     7  H    0.157060
     8  H    0.160313
     9  H    0.154981
    10  H    0.161547
    11  C   -0.298192
    12  C   -0.300117
    13  C   -0.476174
    14  H    0.145504
    15  H    0.152093
    16  H    0.151707
    17  H    0.154023
    18  H    0.156452
    19  H    0.155192
    20  H    0.162532
    21  C   -0.177004
    22  C   -0.220896
    23  C   -0.170587
    24  C    0.158278
    25  C   -0.170820
    26  C   -0.221571
    27  H    0.236822
    28  H    0.223530
    29  H    0.275456
    30  H    0.275585
    31  H    0.223445
    32  N    0.487997
    33  O   -0.460478
    34  O   -0.460505
 Sum of Mulliken charges =  -0.00000

 Dipole moment (field-independent basis, Debye):
    X=             -5.4320    Y=              0.5323    Z=              0.1604  Tot=              5.4604
 Quadrupole moment (field-independent basis, Debye-Ang):
   XX=           -132.2246   YY=            -94.0425   ZZ=            -91.7685
   XY=              2.1256   XZ=              0.9287   YZ=              3.2996

 Normal termination of Gaussian 16 at Thu May  6 18:50:46 2021.
