 Gaussian 16, Revision A.03,
 Gaussian 16:  EM64L-G16RevA.03 25-Dec-2016

 -------------
 #p 6-31g* mp2
 -------------

 ------------------------------------------------------
 Input file generated by CHIRIPA (05-May-2021 14:57:23)
 ------------------------------------------------------
 Symbolic Z-matrix:
 Charge =  0 Multiplicity = 1

                         Standard orientation:
 ---------------------------------------------------------------------
 Center     Atomic      Atomic             Coordinates (Angstroms)
 Number     Number       Type             X           Y           Z
 ---------------------------------------------------------------------
      1          6           0       -2.488887   -2.097954    1.164919
      2          6           0       -3.195579   -2.105168   -0.042167
      3          6           0       -3.659304   -0.910307   -0.600570
      4          6           0       -3.397366    0.278916    0.077977
      5          6           0       -2.696126    0.318789    1.282121
      6          6           0       -2.241852   -0.888131    1.822052
      7          1           0       -2.132324   -3.030835    1.591525
      8          1           0       -3.388892   -3.043238   -0.554708
      9          1           0       -4.208921   -0.887052   -1.533736
     10          1           0       -2.518832    1.269646    1.769825
     11          1           0       -1.693289   -0.879506    2.759628
     12          7           0       -3.883289    1.550245   -0.503402
     13          8           0       -3.639511    2.584662    0.114005
     14          8           0       -4.498732    1.488223   -1.565485
     15          6           0        1.196031   -1.217855   -0.913557
     16          6           0        1.279196   -0.657376    0.365297
     17          6           0        2.449541   -0.018630    0.785826
     18          6           0        3.522354    0.041645   -0.102277
     19          6           0        3.470260   -0.507121   -1.382681
     20          6           0        2.289901   -1.141074   -1.781934
     21          1           0        0.282990   -1.712187   -1.231972
     22          1           0        0.431259   -0.715504    1.041809
     23          1           0        2.541070    0.423793    1.770359
     24          1           0        4.332128   -0.433363   -2.034725
     25          1           0        2.228160   -1.575456   -2.775686
     26          7           0        4.766646    0.715319    0.331657
     27          8           0        5.697780    0.755070   -0.469622
     28          8           0        4.787228    1.190838    1.464836
 ---------------------------------------------------------------------

 SCF Done:  E(RHF) =  -868.337060219     A.U. after   16 cycles
 E2 =    -0.2601649194D+01 EUMP2 =    -0.87093870941327D+03

 The electronic state is 1-A.
 Alpha  occ. eigenvalues --  -20.61589 -20.61580 -20.60873 -20.60866 -15.86653
 Alpha  occ. eigenvalues --  -15.85925 -11.32292 -11.31313 -11.28919 -11.28912
 Alpha  occ. eigenvalues --  -11.28735 -11.27983 -11.27966 -11.27890 -11.27872
 Alpha  occ. eigenvalues --  -11.27607 -11.26898 -11.26815  -1.60658  -1.59947
 Alpha  occ. eigenvalues --   -1.40203  -1.39500  -1.20533  -1.19481  -1.09870
 Alpha  occ. eigenvalues --   -1.08868  -1.05976  -1.04891  -0.96638  -0.95704
 Alpha  occ. eigenvalues --   -0.87347  -0.86284  -0.83464  -0.82541  -0.78460
 Alpha  occ. eigenvalues --   -0.77591  -0.72863  -0.72144  -0.71988  -0.71584
 Alpha  occ. eigenvalues --   -0.71269  -0.70595  -0.66162  -0.65969  -0.65132
 Alpha  occ. eigenvalues --   -0.64922  -0.63278  -0.62264  -0.56426  -0.55387
 Alpha  occ. eigenvalues --   -0.54366  -0.54030  -0.53216  -0.52889  -0.49645
 Alpha  occ. eigenvalues --   -0.49601  -0.48905  -0.48898  -0.45548  -0.44901
 Alpha  occ. eigenvalues --   -0.38530  -0.37601  -0.37433  -0.36488
 Alpha virt. eigenvalues --    0.04072   0.04949   0.09911   0.11157   0.15438
 Alpha virt. eigenvalues --    0.16442   0.19946   0.21641   0.25611   0.27261
 Alpha virt. eigenvalues --    0.27885   0.28026   0.29832   0.31078   0.31885

 Mulliken charges:
               1
     1  C   -0.173386
     2  C   -0.223339
     3  C   -0.170316
     4  C    0.159824
     5  C   -0.167670
     6  C   -0.233648
     7  H    0.230336
     8  H    0.226932
     9  H    0.279352
    10  H    0.280646
    11  H    0.226848
    12  N    0.488103
    13  O   -0.456319
    14  O   -0.457873
    15  C   -0.175384
    16  C   -0.222155
    17  C   -0.173251
    18  C    0.159477
    19  C   -0.170902
    20  C   -0.217968
    21  H    0.224291
    22  H    0.225825
    23  H    0.273660
    24  H    0.276082
    25  H    0.223316
    26  N    0.488114
    27  O   -0.459758
    28  O   -0.460838
 Sum of Mulliken charges =  -0.00000

 Dipole moment (field-independent basis, Debye):
    X=             -3.0024    Y=             -6.7599    Z=              0.4664  Tot=              7.4113
 Quadrupole moment (field-independent basis, Debye-Ang):
   XX=           -145.9872   YY=           -107.1069   ZZ=            -97.6018
   XY=              7.8234   XZ=            -12.2982   YZ=              3.6802

 Normal termination of Gaussian 16 at Thu May  6 06:36:37 2021.
