 Gaussian 16, Revision A.03,
 Gaussian 16:  EM64L-G16RevA.03 25-Dec-2016

 -------------
 #p 6-31g* mp2
 -------------

 ------------------------------------------------------
 Input file generated by CHIRIPA (05-May-2021 14:53:12)
 ------------------------------------------------------
 Symbolic Z-matrix:
 Charge =  0 Multiplicity = 1

                         Standard orientation:
 ---------------------------------------------------------------------
 Center     Atomic      Atomic             Coordinates (Angstroms)
 Number     Number       Type             X           Y           Z
 ---------------------------------------------------------------------
      1          6           0       -1.717085    0.891187   -0.778472
      2          6           0       -1.218410    2.336189   -0.814202
      3          6           0       -0.010251    2.522073   -1.732675
      4          1           0       -0.899443    0.235893   -0.448325
      5          1           0       -1.978391    0.575509   -1.798012
      6          1           0       -0.959429    2.649502    0.205298
      7          1           0       -2.037390    2.988143   -1.144118
      8          1           0       -0.259450    2.236060   -2.759659
      9          1           0        0.824636    1.895496   -1.402577
     10          1           0        0.329752    3.562336   -1.743223
     11          6           0       -2.924492    0.689416    0.135413
     12          6           0       -3.423166   -0.755586    0.171144
     13          6           0       -4.631326   -0.941470    1.089616
     14          1           0       -2.663185    1.005094    1.154953
     15          1           0       -3.742134    1.344710   -0.194733
     16          1           0       -2.604186   -1.407540    0.501059
     17          1           0       -3.682148   -1.068899   -0.848356
     18          1           0       -5.466213   -0.314892    0.759518
     19          1           0       -4.382127   -0.655457    2.116601
     20          1           0       -4.971328   -1.981733    1.100165
     21          6           0        2.626682    1.204886    1.794964
     22          6           0        3.240811    1.013781    0.552851
     23          6           0        2.798348    0.007182   -0.310593
     24          6           0        1.734463   -0.793597    0.101949
     25          6           0        1.102016   -0.627997    1.333158
     26          6           0        1.561123    0.384833    2.180473
     27          1           0        2.976862    1.989256    2.459443
     28          1           0        4.068546    1.649141    0.250828
     29          1           0        3.255632   -0.162651   -1.277788
     30          1           0        0.279075   -1.277202    1.606505
     31          1           0        1.082278    0.530955    3.144529
     32          7           0        1.257237   -1.862537   -0.803603
     33          8           0        0.318108   -2.554646   -0.416746
     34          8           0        1.831354   -1.988022   -1.883085
 ---------------------------------------------------------------------

 SCF Done:  E(RHF) =  -669.534224215     A.U. after   15 cycles
 E2 =    -0.2096634086D+01 EUMP2 =    -0.67163085830105D+03

 The electronic state is 1-A.
 Alpha  occ. eigenvalues --  -20.60949 -20.60934 -15.85962 -11.31325 -11.27921
 Alpha  occ. eigenvalues --  -11.27908 -11.27669 -11.26947 -11.26930 -11.21464
 Alpha  occ. eigenvalues --  -11.21202 -11.21139 -11.21040 -11.20898 -11.20806
 Alpha  occ. eigenvalues --   -1.59996  -1.39552  -1.19551  -1.08926  -1.08184
 Alpha  occ. eigenvalues --   -1.04950  -1.03289  -0.95764  -0.95752  -0.86787
 Alpha  occ. eigenvalues --   -0.86334  -0.82584  -0.79346  -0.78025  -0.77610
 Alpha  occ. eigenvalues --   -0.72192  -0.71328  -0.70637  -0.65197  -0.64979
 Alpha  occ. eigenvalues --   -0.64800  -0.62281  -0.60729  -0.59129  -0.57366
 Alpha  occ. eigenvalues --   -0.55436  -0.55098  -0.53303  -0.53020  -0.52452
 Alpha  occ. eigenvalues --   -0.52187  -0.49747  -0.48964  -0.48949  -0.47635
 Alpha  occ. eigenvalues --   -0.46360  -0.45668  -0.45490  -0.44723  -0.43542
 Alpha  occ. eigenvalues --   -0.37436  -0.36475
 Alpha virt. eigenvalues --    0.04846   0.10996   0.16346   0.20773   0.23033
 Alpha virt. eigenvalues --    0.24205   0.26084   0.27203   0.27386   0.28233
 Alpha virt. eigenvalues --    0.28789   0.30640   0.31319   0.31849   0.32113

 Mulliken charges:
               1
     1  C   -0.302825
     2  C   -0.297237
     3  C   -0.481573
     4  H    0.151868
     5  H    0.154143
     6  H    0.146606
     7  H    0.151139
     8  H    0.157654
     9  H    0.157907
    10  H    0.155618
    11  C   -0.297986
    12  C   -0.303550
    13  C   -0.475481
    14  H    0.141325
    15  H    0.149073
    16  H    0.160638
    17  H    0.156468
    18  H    0.154002
    19  H    0.149845
    20  H    0.162171
    21  C   -0.170616
    22  C   -0.215747
    23  C   -0.175397
    24  C    0.160582
    25  C   -0.175913
    26  C   -0.216758
    27  H    0.226717
    28  H    0.224936
    29  H    0.276907
    30  H    0.277379
    31  H    0.224509
    32  N    0.492001
    33  O   -0.460041
    34  O   -0.458363
 Sum of Mulliken charges =  -0.00000

 Dipole moment (field-independent basis, Debye):
    X=              1.8416    Y=              3.5868    Z=              3.1447  Tot=              5.1133
 Quadrupole moment (field-independent basis, Debye-Ang):
   XX=            -87.1847   YY=           -101.4461   ZZ=            -91.9595
   XY=              6.2855   XZ=              4.4922   YZ=             -2.8782

 Normal termination of Gaussian 16 at Thu May  6 07:16:07 2021.
