 Gaussian 16, Revision A.03,
 Gaussian 16:  EM64L-G16RevA.03 25-Dec-2016

 -------------
 #p 6-31g* mp2
 -------------

 ------------------------------------------------------
 Input file generated by CHIRIPA (05-May-2021 14:51:10)
 ------------------------------------------------------
 Symbolic Z-matrix:
 Charge =  0 Multiplicity = 1

                         Standard orientation:
 ---------------------------------------------------------------------
 Center     Atomic      Atomic             Coordinates (Angstroms)
 Number     Number       Type             X           Y           Z
 ---------------------------------------------------------------------
      1          6           0        2.908353    0.259141   -0.417808
      2          6           0        2.510511   -1.203436   -0.619240
      3          6           0        3.583842   -2.013139   -1.347345
      4          1           0        3.112846    0.714976   -1.396247
      5          1           0        3.848556    0.301356    0.149318
      6          1           0        1.570614   -1.242847   -1.184623
      7          1           0        2.306756   -1.655790    0.359778
      8          1           0        4.522270   -2.003600   -0.783552
      9          1           0        3.781945   -1.588311   -2.336727
     10          1           0        3.278762   -3.055733   -1.480698
     11          6           0        1.845525    1.081535    0.308684
     12          6           0        2.243368    2.544112    0.510117
     13          6           0        1.170037    3.353815    1.238221
     14          1           0        0.905322    1.039320   -0.258442
     15          1           0        1.641033    0.625700    1.287123
     16          1           0        2.447122    2.996466   -0.468901
     17          1           0        3.183264    2.583523    1.075499
     18          1           0        0.971933    2.928987    2.227604
     19          1           0        0.231609    3.344276    0.674428
     20          1           0        1.475117    4.396409    1.371574
     21          6           0       -2.377400   -1.336815    0.427712
     22          6           0       -0.977282   -1.912851    0.641804
     23          6           0       -0.994674   -3.246336    1.389675
     24          1           0       -2.866031   -1.205580    1.402884
     25          1           0       -2.983846   -2.063458   -0.130506
     26          1           0       -0.373238   -1.184762    1.198250
     27          1           0       -0.491856   -2.042551   -0.333981
     28          1           0       -1.574184   -3.991496    0.835143
     29          1           0       -1.454893   -3.128833    2.376079
     30          1           0        0.016556   -3.640116    1.531841
     31          6           0       -2.376478   -0.003862   -0.318588
     32          6           0       -3.776597    0.572176   -0.532680
     33          6           0       -3.759204    1.905660   -1.280552
     34          1           0       -1.770032    0.722782    0.239630
     35          1           0       -1.887846   -0.135096   -1.293761
     36          1           0       -4.262023    0.701875    0.443103
     37          1           0       -4.380641   -0.155914   -1.089126
     38          1           0       -3.298986    1.788157   -2.266956
     39          1           0       -3.179694    2.650820   -0.726020
     40          1           0       -4.770435    2.299440   -1.422717
 ---------------------------------------------------------------------

 SCF Done:  E(RHF) =  -470.732107560     A.U. after   11 cycles
 E2 =    -0.1585160292D+01 EUMP2 =    -0.47231726785225D+03

 The electronic state is 1-A.
 Alpha  occ. eigenvalues --  -11.21604 -11.21600 -11.21522 -11.21441 -11.21383
 Alpha  occ. eigenvalues --  -11.21373 -11.21313 -11.21303 -11.21107 -11.21093
 Alpha  occ. eigenvalues --  -11.21042 -11.21021  -1.08469  -1.08346  -1.03557
 Alpha  occ. eigenvalues --   -1.03458  -0.95982  -0.95949  -0.87003  -0.86960
 Alpha  occ. eigenvalues --   -0.79767  -0.79434  -0.78572  -0.77843  -0.65098
 Alpha  occ. eigenvalues --   -0.64992  -0.60971  -0.60850  -0.59484  -0.59202
 Alpha  occ. eigenvalues --   -0.57667  -0.57480  -0.55273  -0.55238  -0.52708
 Alpha  occ. eigenvalues --   -0.52617  -0.52425  -0.52360  -0.49924  -0.49902
 Alpha  occ. eigenvalues --   -0.48230  -0.47683  -0.46748  -0.46566  -0.46395
 Alpha  occ. eigenvalues --   -0.45782  -0.45416  -0.44946  -0.43777  -0.43720
 Alpha virt. eigenvalues --    0.21075   0.22318   0.23594   0.23916   0.24856
 Alpha virt. eigenvalues --    0.25893   0.26669   0.27040   0.28444   0.30311
 Alpha virt. eigenvalues --    0.30691   0.31142   0.31338   0.31919   0.32155

 Mulliken charges:
               1
     1  C   -0.297947
     2  C   -0.302468
     3  C   -0.475665
     4  H    0.149219
     5  H    0.149014
     6  H    0.155108
     7  H    0.153829
     8  H    0.154895
     9  H    0.154772
    10  H    0.159794
    11  C   -0.304370
    12  C   -0.299269
    13  C   -0.476655
    14  H    0.156432
    15  H    0.149496
    16  H    0.152044
    17  H    0.151819
    18  H    0.154657
    19  H    0.155285
    20  H    0.160633
    21  C   -0.297997
    22  C   -0.305355
    23  C   -0.476610
    24  H    0.149063
    25  H    0.148861
    26  H    0.157109
    27  H    0.156204
    28  H    0.154747
    29  H    0.154633
    30  H    0.159943
    31  C   -0.302046
    32  C   -0.299337
    33  C   -0.475883
    34  H    0.153504
    35  H    0.148099
    36  H    0.152228
    37  H    0.151981
    38  H    0.154816
    39  H    0.154887
    40  H    0.160528
 Sum of Mulliken charges =  -0.00000

 Dipole moment (field-independent basis, Debye):
    X=              0.0079    Y=              0.0084    Z=             -0.0044  Tot=              0.0123
 Quadrupole moment (field-independent basis, Debye-Ang):
   XX=            -85.2571   YY=            -86.0572   ZZ=            -83.7542
   XY=              0.5443   XZ=              0.7387   YZ=              0.3906

 Normal termination of Gaussian 16 at Thu May  6 02:11:28 2021.
