 Gaussian 16, Revision A.03,
 Gaussian 16:  EM64L-G16RevA.03 25-Dec-2016

 -------------
 #p 6-31g* mp2
 -------------

 ------------------------------------------------------
 Input file generated by CHIRIPA (05-May-2021 14:53:12)
 ------------------------------------------------------
 Symbolic Z-matrix:
 Charge =  0 Multiplicity = 1

                         Standard orientation:
 ---------------------------------------------------------------------
 Center     Atomic      Atomic             Coordinates (Angstroms)
 Number     Number       Type             X           Y           Z
 ---------------------------------------------------------------------
      1          6           0        3.520469   -0.440774   -0.493071
      2          6           0        2.235633   -0.278696    0.319893
      3          6           0        0.992998   -0.745013   -0.439185
      4          1           0        3.427698    0.125013   -1.430206
      5          1           0        3.636756   -1.496307   -0.775426
      6          1           0        2.122521    0.775982    0.601807
      7          1           0        2.331548   -0.844779    1.255289
      8          1           0        1.079749   -1.802941   -0.707260
      9          1           0        0.869533   -0.172970   -1.364455
     10          1           0        0.085928   -0.620243    0.160412
     11          6           0        4.771358    0.021106    0.252362
     12          6           0        6.056195   -0.140973   -0.560602
     13          6           0        7.298830    0.325344    0.198476
     14          1           0        4.655072    1.076638    0.534717
     15          1           0        4.864129   -0.544682    1.189498
     16          1           0        5.960279    0.425111   -1.495998
     17          1           0        6.169307   -1.195651   -0.842516
     18          1           0        7.422294   -0.246699    1.123746
     19          1           0        7.212079    1.383272    0.466551
     20          1           0        8.205900    0.200574   -0.401121
     21          6           0       -3.857327   -2.282033    0.065030
     22          6           0       -4.455068   -1.398136   -0.839376
     23          6           0       -4.120083   -0.040828   -0.832352
     24          6           0       -3.179217    0.400400    0.096830
     25          6           0       -2.566255   -0.455479    1.010635
     26          6           0       -2.916486   -1.808718    0.985527
     27          1           0       -4.123474   -3.334842    0.052550
     28          1           0       -5.186060   -1.762911   -1.555361
     29          1           0       -4.567466    0.665311   -1.521288
     30          1           0       -1.840961   -0.062277    1.712603
     31          1           0       -2.450662   -2.492873    1.689077
     32          7           0       -2.816513    1.835167    0.113839
     33          8           0       -1.984742    2.198920    0.942379
     34          8           0       -3.370865    2.568817   -0.701691
 ---------------------------------------------------------------------

 SCF Done:  E(RHF) =  -669.534911280     A.U. after   15 cycles
 E2 =    -0.2092074866D+01 EUMP2 =    -0.67162698614588D+03

 The electronic state is 1-A.
 Alpha  occ. eigenvalues --  -20.60791 -20.60784 -15.85841 -11.31209 -11.27784
 Alpha  occ. eigenvalues --  -11.27778 -11.27522 -11.26800 -11.26788 -11.21485
 Alpha  occ. eigenvalues --  -11.21456 -11.21274 -11.21214 -11.20976 -11.20958
 Alpha  occ. eigenvalues --   -1.59862  -1.39416  -1.19393  -1.08778  -1.08304
 Alpha  occ. eigenvalues --   -1.04806  -1.03415  -0.95884  -0.95611  -0.86903
 Alpha  occ. eigenvalues --   -0.86191  -0.82449  -0.79480  -0.78114  -0.77497
 Alpha  occ. eigenvalues --   -0.72061  -0.71185  -0.70510  -0.65045  -0.64930
 Alpha  occ. eigenvalues --   -0.64805  -0.62175  -0.60807  -0.59268  -0.57503
 Alpha  occ. eigenvalues --   -0.55295  -0.55156  -0.53334  -0.52907  -0.52406
 Alpha  occ. eigenvalues --   -0.52232  -0.49811  -0.48820  -0.48815  -0.47799
 Alpha  occ. eigenvalues --   -0.46503  -0.45661  -0.45574  -0.44822  -0.43684
 Alpha  occ. eigenvalues --   -0.37355  -0.36332
 Alpha virt. eigenvalues --    0.05015   0.11189   0.16512   0.21190   0.23010
 Alpha virt. eigenvalues --    0.24310   0.26787   0.26884   0.27643   0.27921
 Alpha virt. eigenvalues --    0.28803   0.30769   0.31520   0.31674   0.32062

 Mulliken charges:
               1
     1  C   -0.298458
     2  C   -0.300381
     3  C   -0.478412
     4  H    0.151213
     5  H    0.147205
     6  H    0.160076
     7  H    0.147234
     8  H    0.150584
     9  H    0.158279
    10  H    0.159000
    11  C   -0.298457
    12  C   -0.299589
    13  C   -0.475703
    14  H    0.151901
    15  H    0.148322
    16  H    0.152580
    17  H    0.150732
    18  H    0.154514
    19  H    0.156163
    20  H    0.159855
    21  C   -0.170604
    22  C   -0.218115
    23  C   -0.171076
    24  C    0.161401
    25  C   -0.173714
    26  C   -0.216703
    27  H    0.225764
    28  H    0.223574
    29  H    0.275697
    30  H    0.275998
    31  H    0.223965
    32  N    0.488485
    33  O   -0.461006
    34  O   -0.460323
 Sum of Mulliken charges =  -0.00000

 Dipole moment (field-independent basis, Debye):
    X=             -1.3449    Y=             -4.9948    Z=             -0.0774  Tot=              5.1733
 Quadrupole moment (field-independent basis, Debye-Ang):
   XX=            -86.0300   YY=            -98.5411   ZZ=            -92.3584
   XY=             15.0656   XZ=              2.5306   YZ=             -1.7751

 Normal termination of Gaussian 16 at Thu May  6 10:24:59 2021.
