 Gaussian 16, Revision A.03,
 Gaussian 16:  EM64L-G16RevA.03 25-Dec-2016

 -------------
 #p 6-31g* mp2
 -------------

 ------------------------------------------------------
 Input file generated by CHIRIPA (05-May-2021 14:51:12)
 ------------------------------------------------------
 Symbolic Z-matrix:
 Charge =  0 Multiplicity = 1

                         Standard orientation:
 ---------------------------------------------------------------------
 Center     Atomic      Atomic             Coordinates (Angstroms)
 Number     Number       Type             X           Y           Z
 ---------------------------------------------------------------------
      1          6           0        2.005171    0.217714    0.778917
      2          6           0        2.642632    1.484650    1.350321
      3          6           0        1.911561    2.008216    2.586932
      4          1           0        0.956194    0.424560    0.526315
      5          1           0        1.992273   -0.559991    1.555063
      6          1           0        2.655580    2.259293    0.572904
      7          1           0        3.690267    1.274818    1.601414
      8          1           0        1.910503    1.255053    3.381504
      9          1           0        0.869937    2.245121    2.347150
     10          1           0        2.383973    2.914301    2.978975
     11          6           0        2.724802   -0.317815   -0.457637
     12          6           0        2.087341   -1.584751   -1.029040
     13          6           0        2.818412   -2.108317   -2.265652
     14          1           0        2.737700    0.459890   -1.233783
     15          1           0        3.773779   -0.524660   -0.205035
     16          1           0        1.039706   -1.374919   -1.280133
     17          1           0        2.074393   -2.359394   -0.251623
     18          1           0        3.860037   -2.345222   -2.025870
     19          1           0        2.819471   -1.355154   -3.060224
     20          1           0        2.346001   -3.014402   -2.657695
     21          6           0       -1.912185    0.532478   -0.542303
     22          6           0       -2.681771    1.523901   -1.415688
     23          6           0       -1.762156    2.482385   -2.172925
     24          1           0       -1.291173    1.088937    0.172989
     25          1           0       -1.221612   -0.042971   -1.174255
     26          1           0       -3.371681    2.096351   -0.782487
     27          1           0       -3.301168    0.965016   -2.128856
     28          1           0       -1.082729    1.927520   -2.827987
     29          1           0       -1.153642    3.065284   -1.473968
     30          1           0       -2.333097    3.182317   -2.790971
     31          6           0       -2.817788   -0.432377    0.221022
     32          6           0       -2.048202   -1.423801    1.094407
     33          6           0       -2.967818   -2.382284    1.851644
     34          1           0       -3.508361    0.143072    0.852974
     35          1           0       -3.438800   -0.988837   -0.494270
     36          1           0       -1.428805   -0.864915    1.807576
     37          1           0       -1.358292   -1.996250    0.461207
     38          1           0       -3.576332   -2.965182    1.152687
     39          1           0       -3.647245   -1.827419    2.506706
     40          1           0       -2.396876   -3.082217    2.469691
 ---------------------------------------------------------------------

 SCF Done:  E(RHF) =  -470.732752640     A.U. after   11 cycles
 E2 =    -0.1584864932D+01 EUMP2 =    -0.47231761757201D+03

 The electronic state is 1-A.
 Alpha  occ. eigenvalues --  -11.21678 -11.21579 -11.21577 -11.21555 -11.21482
 Alpha  occ. eigenvalues --  -11.21403 -11.21329 -11.21208 -11.21155 -11.21088
 Alpha  occ. eigenvalues --  -11.21068 -11.21064  -1.08513  -1.08355  -1.03569
 Alpha  occ. eigenvalues --   -1.03507  -0.96035  -0.95947  -0.87046  -0.86969
 Alpha  occ. eigenvalues --   -0.79636  -0.79566  -0.78572  -0.77951  -0.65134
 Alpha  occ. eigenvalues --   -0.65014  -0.60980  -0.60894  -0.59395  -0.59320
 Alpha  occ. eigenvalues --   -0.57671  -0.57541  -0.55341  -0.55225  -0.52732
 Alpha  occ. eigenvalues --   -0.52647  -0.52472  -0.52370  -0.50006  -0.49875
 Alpha  occ. eigenvalues --   -0.47977  -0.47909  -0.46757  -0.46606  -0.46562
 Alpha  occ. eigenvalues --   -0.45671  -0.45631  -0.44902  -0.43826  -0.43735
 Alpha virt. eigenvalues --    0.20474   0.22318   0.23524   0.24183   0.24835
 Alpha virt. eigenvalues --    0.26484   0.27042   0.27849   0.28084   0.30547
 Alpha virt. eigenvalues --    0.31110   0.31248   0.31517   0.31951   0.32087

 Mulliken charges:
               1
     1  C   -0.308989
     2  C   -0.299249
     3  C   -0.476227
     4  H    0.162969
     5  H    0.148751
     6  H    0.151577
     7  H    0.151686
     8  H    0.155266
     9  H    0.153790
    10  H    0.160420
    11  C   -0.297417
    12  C   -0.305585
    13  C   -0.475501
    14  H    0.149151
    15  H    0.149262
    16  H    0.156510
    17  H    0.152117
    18  H    0.155397
    19  H    0.154965
    20  H    0.159780
    21  C   -0.307787
    22  C   -0.298612
    23  C   -0.475989
    24  H    0.152811
    25  H    0.154076
    26  H    0.152313
    27  H    0.152306
    28  H    0.154846
    29  H    0.154807
    30  H    0.160909
    31  C   -0.297712
    32  C   -0.303026
    33  C   -0.475757
    34  H    0.149563
    35  H    0.149632
    36  H    0.153963
    37  H    0.154575
    38  H    0.154988
    39  H    0.155084
    40  H    0.160334
 Sum of Mulliken charges =  -0.00000

 Dipole moment (field-independent basis, Debye):
    X=             -0.0472    Y=             -0.0008    Z=             -0.0074  Tot=              0.0477
 Quadrupole moment (field-independent basis, Debye-Ang):
   XX=            -84.9546   YY=            -84.8967   ZZ=            -85.0405
   XY=             -0.5910   XZ=              1.0520   YZ=              0.1396

 Normal termination of Gaussian 16 at Thu May  6 00:43:12 2021.
