 Gaussian 16, Revision A.03,
 Gaussian 16:  EM64L-G16RevA.03 25-Dec-2016

 -------------
 #p 6-31g* mp2
 -------------

 ------------------------------------------------------
 Input file generated by CHIRIPA (05-May-2021 14:55:24)
 ------------------------------------------------------
 Symbolic Z-matrix:
 Charge =  0 Multiplicity = 1

                         Standard orientation:
 ---------------------------------------------------------------------
 Center     Atomic      Atomic             Coordinates (Angstroms)
 Number     Number       Type             X           Y           Z
 ---------------------------------------------------------------------
      1          6           0        1.363184    0.870111   -0.712488
      2          6           0        1.764527   -0.444378   -0.972415
      3          6           0        3.064245   -0.862534   -0.671704
      4          6           0        3.940575    0.064256   -0.109213
      5          6           0        3.570591    1.380722    0.161560
      6          6           0        2.265905    1.776868   -0.147327
      7          1           0        0.351602    1.186395   -0.949263
      8          1           0        1.065596   -1.150739   -1.411272
      9          1           0        3.401321   -1.874161   -0.862517
     10          1           0        4.289808    2.062085    0.599613
     11          1           0        1.956980    2.798347    0.055627
     12          7           0        5.319158   -0.366776    0.213464
     13          8           0        6.072221    0.468953    0.708530
     14          8           0        5.620525   -1.532186   -0.034799
     15          6           0       -5.335910   -0.051917   -0.270750
     16          6           0       -6.694400    0.000612    0.429057
     17          6           0       -7.850411    0.243846   -0.541648
     18          1           0       -5.171616    0.891092   -0.809904
     19          1           0       -5.352471   -0.846815   -1.029209
     20          1           0       -6.674826    0.794259    1.186922
     21          1           0       -6.855396   -0.942557    0.966765
     22          1           0       -7.898481   -0.553001   -1.290865
     23          1           0       -7.716885    1.193681   -1.069457
     24          1           0       -8.812101    0.277735   -0.020241
     25          6           0       -4.170312   -0.294439    0.686480
     26          6           0       -2.811822   -0.346969   -0.013328
     27          6           0       -1.655810   -0.590201    0.957377
     28          1           0       -4.153751    0.500459    1.444938
     29          1           0       -4.334606   -1.237448    1.225633
     30          1           0       -2.650826    0.596200   -0.551035
     31          1           0       -2.831396   -1.140614   -0.771193
     32          1           0       -1.789337   -1.540038    1.485186
     33          1           0       -1.607741    0.206645    1.706595
     34          1           0       -0.694121   -0.624091    0.435971
 ---------------------------------------------------------------------

 SCF Done:  E(RHF) =  -669.534267162     A.U. after   15 cycles
 E2 =    -0.2092529300D+01 EUMP2 =    -0.67162679646263D+03

 The electronic state is 1-A.
 Alpha  occ. eigenvalues --  -20.60766 -20.60760 -15.85821 -11.31195 -11.27783
 Alpha  occ. eigenvalues --  -11.27778 -11.27502 -11.26780 -11.26769 -11.22554
 Alpha  occ. eigenvalues --  -11.22110 -11.22096 -11.21976 -11.21845 -11.21502
 Alpha  occ. eigenvalues --   -1.59841  -1.39395  -1.19384  -1.09123  -1.08778
 Alpha  occ. eigenvalues --   -1.04792  -1.04221  -0.96659  -0.95601  -0.87668
 Alpha  occ. eigenvalues --   -0.86188  -0.82436  -0.80297  -0.78913  -0.77481
 Alpha  occ. eigenvalues --   -0.72041  -0.71165  -0.70514  -0.65749  -0.65049
 Alpha  occ. eigenvalues --   -0.64821  -0.62154  -0.61616  -0.60050  -0.58281
 Alpha  occ. eigenvalues --   -0.55939  -0.55248  -0.53627  -0.53145  -0.52891
 Alpha  occ. eigenvalues --   -0.52719  -0.50574  -0.48801  -0.48794  -0.48602
 Alpha  occ. eigenvalues --   -0.47341  -0.46454  -0.46366  -0.44799  -0.44477
 Alpha  occ. eigenvalues --   -0.37283  -0.36377
 Alpha virt. eigenvalues --    0.05047   0.11115   0.16505   0.19965   0.22522
 Alpha virt. eigenvalues --    0.24001   0.25565   0.26403   0.26842   0.27361
 Alpha virt. eigenvalues --    0.29163   0.29834   0.30858   0.31538   0.31747

 Mulliken charges:
               1
     1  C   -0.169470
     2  C   -0.220010
     3  C   -0.171544
     4  C    0.158078
     5  C   -0.170483
     6  C   -0.220181
     7  H    0.230341
     8  H    0.224521
     9  H    0.275874
    10  H    0.275763
    11  H    0.223583
    12  N    0.488142
    13  O   -0.460427
    14  O   -0.460377
    15  C   -0.298616
    16  C   -0.300175
    17  C   -0.476021
    18  H    0.148835
    19  H    0.150051
    20  H    0.152576
    21  H    0.153180
    22  H    0.155712
    23  H    0.155207
    24  H    0.161874
    25  C   -0.298099
    26  C   -0.301918
    27  C   -0.483847
    28  H    0.150850
    29  H    0.152546
    30  H    0.144965
    31  H    0.151506
    32  H    0.159678
    33  H    0.156927
    34  H    0.160957
 Sum of Mulliken charges =  -0.00000

 Dipole moment (field-independent basis, Debye):
    X=             -4.9516    Y=              1.5084    Z=             -1.0867  Tot=              5.2891
 Quadrupole moment (field-independent basis, Debye-Ang):
   XX=           -133.7199   YY=            -89.3905   ZZ=            -94.9886
   XY=              7.1834   XZ=             -4.2434   YZ=              1.7967

 Normal termination of Gaussian 16 at Thu May  6 14:18:14 2021.
