 Gaussian 16, Revision A.03,
 Gaussian 16:  EM64L-G16RevA.03 25-Dec-2016

 -------------
 #p 6-31g* mp2
 -------------

 ------------------------------------------------------
 Input file generated by CHIRIPA (05-May-2021 14:55:24)
 ------------------------------------------------------
 Symbolic Z-matrix:
 Charge =  0 Multiplicity = 1

                         Standard orientation:
 ---------------------------------------------------------------------
 Center     Atomic      Atomic             Coordinates (Angstroms)
 Number     Number       Type             X           Y           Z
 ---------------------------------------------------------------------
      1          6           0        0.645795   -0.820392    1.303756
      2          6           0        1.497701   -1.873131    0.953729
      3          6           0        2.719500   -1.618343    0.323778
      4          6           0        3.059315   -0.292837    0.057604
      5          6           0        2.232058    0.777567    0.394014
      6          6           0        1.015042    0.499270    1.023275
      7          1           0       -0.301470   -1.027449    1.792849
      8          1           0        1.213536   -2.898987    1.170326
      9          1           0        3.398003   -2.414338    0.041920
     10          1           0        2.542688    1.789769    0.165162
     11          1           0        0.355431    1.318832    1.293970
     12          7           0        4.350248   -0.010661   -0.608932
     13          8           0        4.626526    1.165911   -0.832510
     14          8           0        5.061358   -0.971405   -0.895165
     15          6           0       -3.432974    1.071922    0.149779
     16          6           0       -2.177163    1.718155   -0.436144
     17          6           0       -1.768391    2.992670    0.302986
     18          1           0       -4.258600    1.796042    0.119195
     19          1           0       -3.258005    0.841978    1.209924
     20          1           0       -2.353966    1.945549   -1.495224
     21          1           0       -1.354479    0.992347   -0.404337
     22          1           0       -1.565047    2.778258    1.357158
     23          1           0       -2.570214    3.736874    0.260073
     24          1           0       -0.868433    3.438113   -0.132348
     25          6           0       -3.854205   -0.203204   -0.578469
     26          6           0       -5.110015   -0.849437    0.007455
     27          6           0       -5.518787   -2.123951   -0.731675
     28          1           0       -4.029174    0.026740   -1.638614
     29          1           0       -3.028578   -0.927324   -0.547884
     30          1           0       -5.932699   -0.123629   -0.024352
     31          1           0       -4.933212   -1.076831    1.066534
     32          1           0       -4.716965   -2.868156   -0.688762
     33          1           0       -5.722131   -1.909540   -1.785848
     34          1           0       -6.418745   -2.569395   -0.296341
 ---------------------------------------------------------------------

 SCF Done:  E(RHF) =  -669.534270326     A.U. after   15 cycles
 E2 =    -0.2093420881D+01 EUMP2 =    -0.67162769120651D+03

 The electronic state is 1-A.
 Alpha  occ. eigenvalues --  -20.60776 -20.60771 -15.85828 -11.31212 -11.27768
 Alpha  occ. eigenvalues --  -11.27749 -11.27514 -11.26802 -11.26707 -11.22394
 Alpha  occ. eigenvalues --  -11.22277 -11.22249 -11.22170 -11.22120 -11.21651
 Alpha  occ. eigenvalues --   -1.59850  -1.39403  -1.19381  -1.09253  -1.08773
 Alpha  occ. eigenvalues --   -1.04802  -1.04333  -0.96822  -0.95607  -0.87826
 Alpha  occ. eigenvalues --   -0.86188  -0.82435  -0.80393  -0.79031  -0.77486
 Alpha  occ. eigenvalues --   -0.72048  -0.71173  -0.70492  -0.66058  -0.65026
 Alpha  occ. eigenvalues --   -0.64763  -0.62372  -0.61461  -0.60164  -0.58396
 Alpha  occ. eigenvalues --   -0.56188  -0.55232  -0.53491  -0.53223  -0.53128
 Alpha  occ. eigenvalues --   -0.52799  -0.50754  -0.48816  -0.48801  -0.48680
 Alpha  occ. eigenvalues --   -0.47448  -0.46565  -0.46511  -0.44805  -0.44587
 Alpha  occ. eigenvalues --   -0.37333  -0.36339
 Alpha virt. eigenvalues --    0.05031   0.11150   0.16473   0.19315   0.22680
 Alpha virt. eigenvalues --    0.23904   0.25371   0.26004   0.26822   0.28547
 Alpha virt. eigenvalues --    0.29383   0.30562   0.30823   0.31325   0.31753

 Mulliken charges:
               1
     1  C   -0.174693
     2  C   -0.218143
     3  C   -0.171165
     4  C    0.159044
     5  C   -0.175412
     6  C   -0.222328
     7  H    0.226152
     8  H    0.223444
     9  H    0.275665
    10  H    0.276001
    11  H    0.237842
    12  N    0.488058
    13  O   -0.460195
    14  O   -0.460389
    15  C   -0.297566
    16  C   -0.310467
    17  C   -0.484116
    18  H    0.153321
    19  H    0.142536
    20  H    0.158088
    21  H    0.157428
    22  H    0.146956
    23  H    0.164391
    24  H    0.162311
    25  C   -0.298711
    26  C   -0.299903
    27  C   -0.475813
    28  H    0.153381
    29  H    0.147119
    30  H    0.154199
    31  H    0.149530
    32  H    0.154027
    33  H    0.157398
    34  H    0.162014
 Sum of Mulliken charges =  -0.00000

 Dipole moment (field-independent basis, Debye):
    X=             -4.6702    Y=             -0.9585    Z=              2.2373  Tot=              5.2664
 Quadrupole moment (field-independent basis, Debye-Ang):
   XX=           -122.3464   YY=            -89.7150   ZZ=            -95.1140
   XY=             -3.6910   XZ=              7.4619   YZ=             -1.5011

 Normal termination of Gaussian 16 at Thu May  6 12:41:45 2021.
