 Gaussian 16, Revision A.03,
 Gaussian 16:  EM64L-G16RevA.03 25-Dec-2016

 -------------
 #p 6-31g* mp2
 -------------

 ------------------------------------------------------
 Input file generated by CHIRIPA (05-May-2021 14:51:08)
 ------------------------------------------------------
 Symbolic Z-matrix:
 Charge =  0 Multiplicity = 1

                         Standard orientation:
 ---------------------------------------------------------------------
 Center     Atomic      Atomic             Coordinates (Angstroms)
 Number     Number       Type             X           Y           Z
 ---------------------------------------------------------------------
      1          6           0        2.514968   -1.194693    0.598647
      2          6           0        1.276156   -2.028737    0.270468
      3          6           0        0.935282   -3.037823    1.367438
      4          1           0        3.369358   -1.866364    0.759334
      5          1           0        2.351041   -0.665012    1.547310
      6          1           0        1.441829   -2.555605   -0.677993
      7          1           0        0.424658   -1.354992    0.110355
      8          1           0        0.743543   -2.525706    2.315897
      9          1           0        1.766493   -3.733141    1.523070
     10          1           0        0.046470   -3.623281    1.112266
     11          6           0        2.868472   -0.181352   -0.488507
     12          6           0        4.107284    0.652692   -0.160328
     13          6           0        4.448158    1.661778   -1.257299
     14          1           0        3.032399   -0.711033   -1.437170
     15          1           0        2.014082    0.490319   -0.649194
     16          1           0        4.958781   -0.021053   -0.000215
     17          1           0        3.941611    1.179560    0.788133
     18          1           0        3.616946    2.357096   -1.412930
     19          1           0        4.639896    1.149662   -2.205757
     20          1           0        5.336970    2.247236   -1.002126
     21          6           0       -2.787783   -0.065730    0.022784
     22          6           0       -3.575926   -0.698275   -1.124692
     23          6           0       -3.759838   -2.206602   -0.954637
     24          1           0       -1.804607   -0.550606    0.094927
     25          1           0       -3.306467   -0.268311    0.970056
     26          1           0       -3.056640   -0.493378   -2.069667
     27          1           0       -4.557267   -0.211705   -1.194235
     28          1           0       -4.298023   -2.426913   -0.027049
     29          1           0       -2.788870   -2.710185   -0.907454
     30          1           0       -4.325855   -2.638281   -1.785985
     31          6           0       -2.595656    1.441775   -0.132924
     32          6           0       -1.807514    2.074319    1.014553
     33          6           0       -1.623601    3.582646    0.844497
     34          1           0       -2.076973    1.644356   -1.080195
     35          1           0       -3.578833    1.926651   -0.205068
     36          1           0       -0.826172    1.587749    1.084095
     37          1           0       -2.326800    1.869423    1.959526
     38          1           0       -2.594569    4.086230    0.797314
     39          1           0       -1.085417    3.802957   -0.083092
     40          1           0       -1.057585    4.014325    1.675845
 ---------------------------------------------------------------------

 SCF Done:  E(RHF) =  -470.733425120     A.U. after   11 cycles
 E2 =    -0.1583330380D+01 EUMP2 =    -0.47231675550083D+03

 The electronic state is 1-A.
 Alpha  occ. eigenvalues --  -11.21663 -11.21647 -11.21635 -11.21610 -11.21454
 Alpha  occ. eigenvalues --  -11.21429 -11.21394 -11.21363 -11.21119 -11.21098
 Alpha  occ. eigenvalues --  -11.21098 -11.21075  -1.08488  -1.08450  -1.03574
 Alpha  occ. eigenvalues --   -1.03553  -0.96017  -0.96003  -0.87035  -0.87016
 Alpha  occ. eigenvalues --   -0.79659  -0.79603  -0.78359  -0.78210  -0.65257
 Alpha  occ. eigenvalues --   -0.64960  -0.61017  -0.60913  -0.59407  -0.59350
 Alpha  occ. eigenvalues --   -0.57637  -0.57607  -0.55347  -0.55251  -0.52710
 Alpha  occ. eigenvalues --   -0.52697  -0.52463  -0.52408  -0.50015  -0.49901
 Alpha  occ. eigenvalues --   -0.48001  -0.47914  -0.46829  -0.46607  -0.46097
 Alpha  occ. eigenvalues --   -0.45788  -0.45774  -0.45305  -0.43823  -0.43811
 Alpha virt. eigenvalues --    0.19691   0.22815   0.23735   0.24589   0.25569
 Alpha virt. eigenvalues --    0.26869   0.27145   0.27236   0.28197   0.29551
 Alpha virt. eigenvalues --    0.30677   0.31568   0.31728   0.31925   0.32061

 Mulliken charges:
               1
     1  C   -0.297570
     2  C   -0.309400
     3  C   -0.475522
     4  H    0.150012
     5  H    0.149706
     6  H    0.152052
     7  H    0.159167
     8  H    0.155670
     9  H    0.155424
    10  H    0.160637
    11  C   -0.298813
    12  C   -0.299679
    13  C   -0.475746
    14  H    0.149703
    15  H    0.149153
    16  H    0.152136
    17  H    0.152144
    18  H    0.155160
    19  H    0.155188
    20  H    0.160465
    21  C   -0.308671
    22  C   -0.298931
    23  C   -0.476256
    24  H    0.159272
    25  H    0.149719
    26  H    0.152028
    27  H    0.151983
    28  H    0.155220
    29  H    0.155556
    30  H    0.160323
    31  C   -0.297708
    32  C   -0.300569
    33  C   -0.475697
    34  H    0.149395
    35  H    0.149970
    36  H    0.151203
    37  H    0.152310
    38  H    0.155582
    39  H    0.155097
    40  H    0.160286
 Sum of Mulliken charges =  -0.00000

 Dipole moment (field-independent basis, Debye):
    X=              0.0015    Y=             -0.0065    Z=              0.0065  Tot=              0.0093
 Quadrupole moment (field-independent basis, Debye-Ang):
   XX=            -83.7690   YY=            -86.0426   ZZ=            -84.7976
   XY=             -1.1170   XZ=             -0.4651   YZ=              0.9255

 Normal termination of Gaussian 16 at Thu May  6 02:07:25 2021.
