 Gaussian 16, Revision A.03,
 Gaussian 16:  EM64L-G16RevA.03 25-Dec-2016

 -------------
 #p 6-31g* mp2
 -------------

 ------------------------------------------------------
 Input file generated by CHIRIPA (05-May-2021 14:55:22)
 ------------------------------------------------------
 Symbolic Z-matrix:
 Charge =  0 Multiplicity = 1

                         Standard orientation:
 ---------------------------------------------------------------------
 Center     Atomic      Atomic             Coordinates (Angstroms)
 Number     Number       Type             X           Y           Z
 ---------------------------------------------------------------------
      1          6           0        3.350602   -2.280581    0.986594
      2          6           0        2.001869   -1.916990    0.914203
      3          6           0        1.619185   -0.731416    0.279761
      4          6           0        2.615979    0.070506   -0.273963
      5          6           0        3.968005   -0.264454   -0.218138
      6          6           0        4.327643   -1.454609    0.421189
      7          1           0        3.638929   -3.203343    1.481341
      8          1           0        1.240927   -2.556507    1.352415
      9          1           0        0.582320   -0.425851    0.209336
     10          1           0        4.703800    0.393528   -0.664327
     11          1           0        5.375850   -1.734455    0.475902
     12          7           0        2.223048    1.328045   -0.948204
     13          8           0        3.120432    2.017250   -1.428136
     14          8           0        1.025123    1.600688   -0.983976
     15          6           0       -3.524513   -0.578333    0.123709
     16          6           0       -4.613094   -0.944991   -0.885517
     17          6           0       -4.787648   -2.455685   -1.044031
     18          1           0       -2.573323   -1.027537   -0.193151
     19          1           0       -3.771681   -1.023963    1.097217
     20          1           0       -4.364655   -0.497648   -1.856485
     21          1           0       -5.561762   -0.494703   -0.566319
     22          1           0       -5.059443   -2.914507   -0.087887
     23          1           0       -3.855534   -2.917469   -1.385383
     24          1           0       -5.570748   -2.695342   -1.770100
     25          6           0       -3.338180    0.928417    0.293162
     26          6           0       -2.249598    1.295073    1.302389
     27          6           0       -2.075045    2.805768    1.460902
     28          1           0       -3.091012    1.374046   -0.680345
     29          1           0       -4.289369    1.377620    0.610022
     30          1           0       -1.300930    0.844786    0.983191
     31          1           0       -2.498037    0.847731    2.273356
     32          1           0       -3.007159    3.267552    1.802254
     33          1           0       -1.803250    3.264590    0.504758
     34          1           0       -1.291944    3.045425    2.186972
 ---------------------------------------------------------------------

 SCF Done:  E(RHF) =  -669.535784619     A.U. after   15 cycles
 E2 =    -0.2091874223D+01 EUMP2 =    -0.67162765884215D+03

 The electronic state is 1-A.
 Alpha  occ. eigenvalues --  -20.60863 -20.60856 -15.85905 -11.31234 -11.27799
 Alpha  occ. eigenvalues --  -11.27787 -11.27536 -11.26812 -11.26797 -11.21542
 Alpha  occ. eigenvalues --  -11.21376 -11.21295 -11.21101 -11.21067 -11.20439
 Alpha  occ. eigenvalues --   -1.59929  -1.39485  -1.19405  -1.08806  -1.08249
 Alpha  occ. eigenvalues --   -1.04803  -1.03290  -0.95734  -0.95645  -0.86747
 Alpha  occ. eigenvalues --   -0.86205  -0.82480  -0.79396  -0.78097  -0.77520
 Alpha  occ. eigenvalues --   -0.72130  -0.71245  -0.70521  -0.65067  -0.64946
 Alpha  occ. eigenvalues --   -0.64731  -0.62172  -0.60646  -0.59129  -0.57357
 Alpha  occ. eigenvalues --   -0.55311  -0.54999  -0.53133  -0.52911  -0.52417
 Alpha  occ. eigenvalues --   -0.52163  -0.49654  -0.48891  -0.48878  -0.47698
 Alpha  occ. eigenvalues --   -0.46413  -0.45622  -0.45494  -0.44882  -0.43566
 Alpha  occ. eigenvalues --   -0.37384  -0.36401
 Alpha virt. eigenvalues --    0.04978   0.11222   0.16492   0.20016   0.22973
 Alpha virt. eigenvalues --    0.24286   0.25179   0.27288   0.27769   0.28193
 Alpha virt. eigenvalues --    0.29646   0.30740   0.31526   0.31897   0.32390

 Mulliken charges:
               1
     1  C   -0.170392
     2  C   -0.222263
     3  C   -0.176810
     4  C    0.155568
     5  C   -0.169956
     6  C   -0.218903
     7  H    0.225874
     8  H    0.224639
     9  H    0.289016
    10  H    0.275684
    11  H    0.223619
    12  N    0.487931
    13  O   -0.459440
    14  O   -0.463701
    15  C   -0.297641
    16  C   -0.299759
    17  C   -0.475582
    18  H    0.142190
    19  H    0.146848
    20  H    0.155183
    21  H    0.152813
    22  H    0.153622
    23  H    0.153210
    24  H    0.161007
    25  C   -0.298814
    26  C   -0.305381
    27  C   -0.474898
    28  H    0.158170
    29  H    0.149070
    30  H    0.154779
    31  H    0.146002
    32  H    0.151023
    33  H    0.168840
    34  H    0.158453
 Sum of Mulliken charges =  -0.00000

 Dipole moment (field-independent basis, Debye):
    X=              1.4385    Y=             -4.2937    Z=              2.2730  Tot=              5.0667
 Quadrupole moment (field-independent basis, Debye-Ang):
   XX=            -82.4192   YY=            -96.7578   ZZ=            -96.3535
   XY=            -11.2131   XZ=              4.5796   YZ=              0.6693

 Normal termination of Gaussian 16 at Wed May  5 20:39:37 2021.
