 Gaussian 16, Revision A.03,
 Gaussian 16:  EM64L-G16RevA.03 25-Dec-2016

 -------------
 #p 6-31g* mp2
 -------------

 ------------------------------------------------------
 Input file generated by CHIRIPA (05-May-2021 14:57:22)
 ------------------------------------------------------
 Symbolic Z-matrix:
 Charge =  0 Multiplicity = 1

                         Standard orientation:
 ---------------------------------------------------------------------
 Center     Atomic      Atomic             Coordinates (Angstroms)
 Number     Number       Type             X           Y           Z
 ---------------------------------------------------------------------
      1          6           0       -4.030782   -1.604251    0.085656
      2          6           0       -3.070458   -1.571417   -0.930819
      3          6           0       -2.286064   -0.431411   -1.129966
      4          6           0       -2.489452    0.662717   -0.290438
      5          6           0       -3.438159    0.660638    0.730953
      6          6           0       -4.211249   -0.490083    0.911842
      7          1           0       -4.635727   -2.493997    0.233267
      8          1           0       -2.928124   -2.435220   -1.573960
      9          1           0       -1.535478   -0.378961   -1.909253
     10          1           0       -3.557061    1.537259    1.356106
     11          1           0       -4.956301   -0.512750    1.702050
     12          7           0       -1.665032    1.875262   -0.491601
     13          8           0       -1.863621    2.826070    0.261501
     14          8           0       -0.835874    1.851887   -1.398567
     15          6           0        0.405638   -1.519818    0.824543
     16          6           0        0.962671   -0.561035    1.677170
     17          6           0        2.191984    0.031196    1.372868
     18          6           0        2.839917   -0.360693    0.202443
     19          6           0        2.310740   -1.313084   -0.667162
     20          6           0        1.080262   -1.892126   -0.342844
     21          1           0       -0.549773   -1.974754    1.068707
     22          1           0        0.440988   -0.269958    2.584455
     23          1           0        2.645991    0.775983    2.015197
     24          1           0        2.854373   -1.582828   -1.564446
     25          1           0        0.650050   -2.636464   -1.006865
     26          7           0        4.141952    0.259295   -0.130303
     27          8           0        4.692863   -0.103198   -1.167479
     28          8           0        4.586924    1.095993    0.652368
 ---------------------------------------------------------------------

 SCF Done:  E(RHF) =  -868.336447910     A.U. after   16 cycles
 E2 =    -0.2603347701D+01 EUMP2 =    -0.87093979561053D+03

 The electronic state is 1-A.
 Alpha  occ. eigenvalues --  -20.61296 -20.61266 -20.60389 -20.60378 -15.86348
 Alpha  occ. eigenvalues --  -15.85449 -11.31940 -11.30885 -11.28580 -11.28562
 Alpha  occ. eigenvalues --  -11.28395 -11.27650 -11.27611 -11.27577 -11.27511
 Alpha  occ. eigenvalues --  -11.27316 -11.26631 -11.26516  -1.60352  -1.59456
 Alpha  occ. eigenvalues --   -1.39900  -1.39010  -1.20195  -1.19113  -1.09524
 Alpha  occ. eigenvalues --   -1.08508  -1.05630  -1.04555  -0.96312  -0.95314
 Alpha  occ. eigenvalues --   -0.86992  -0.85962  -0.83139  -0.82158  -0.78140
 Alpha  occ. eigenvalues --   -0.77175  -0.72562  -0.71691  -0.71675  -0.71264
 Alpha  occ. eigenvalues --   -0.70768  -0.70259  -0.65822  -0.65605  -0.64789
 Alpha  occ. eigenvalues --   -0.64606  -0.62947  -0.61910  -0.56097  -0.55241
 Alpha  occ. eigenvalues --   -0.53917  -0.53695  -0.52730  -0.52675  -0.49338
 Alpha  occ. eigenvalues --   -0.49300  -0.48439  -0.48416  -0.45253  -0.44402
 Alpha  occ. eigenvalues --   -0.38372  -0.37656  -0.36537  -0.36103
 Alpha virt. eigenvalues --    0.04348   0.05395   0.10259   0.11567   0.15795
 Alpha virt. eigenvalues --    0.16816   0.20274   0.21717   0.25871   0.27392
 Alpha virt. eigenvalues --    0.28037   0.28416   0.30088   0.31166   0.31741

 Mulliken charges:
               1
     1  C   -0.173395
     2  C   -0.227909
     3  C   -0.168111
     4  C    0.159960
     5  C   -0.173458
     6  C   -0.220718
     7  H    0.227801
     8  H    0.222900
     9  H    0.278248
    10  H    0.277797
    11  H    0.225886
    12  N    0.488733
    13  O   -0.460349
    14  O   -0.455391
    15  C   -0.170458
    16  C   -0.223235
    17  C   -0.164329
    18  C    0.161367
    19  C   -0.166212
    20  C   -0.223392
    21  H    0.225952
    22  H    0.222799
    23  H    0.277771
    24  H    0.275002
    25  H    0.214558
    26  N    0.488760
    27  O   -0.461425
    28  O   -0.459153
 Sum of Mulliken charges =  -0.00000

 Dipole moment (field-independent basis, Debye):
    X=             -7.4486    Y=             -6.1919    Z=              1.8668  Tot=              9.8644
 Quadrupole moment (field-independent basis, Debye-Ang):
   XX=           -116.2102   YY=           -107.8035   ZZ=            -98.8970
   XY=              2.9621   XZ=             -0.8001   YZ=              5.4410

 Normal termination of Gaussian 16 at Fri May  7 06:22:52 2021.
