 Gaussian 16, Revision A.03,
 Gaussian 16:  EM64L-G16RevA.03 25-Dec-2016

 -------------
 #p 6-31g* mp2
 -------------

 ------------------------------------------------------
 Input file generated by CHIRIPA (05-May-2021 14:57:23)
 ------------------------------------------------------
 Symbolic Z-matrix:
 Charge =  0 Multiplicity = 1

                         Standard orientation:
 ---------------------------------------------------------------------
 Center     Atomic      Atomic             Coordinates (Angstroms)
 Number     Number       Type             X           Y           Z
 ---------------------------------------------------------------------
      1          6           0        5.178176    1.057433   -0.773634
      2          6           0        4.567863    0.109673   -1.601758
      3          6           0        3.507327   -0.668724   -1.128567
      4          6           0        3.080666   -0.472214    0.183925
      5          6           0        3.668269    0.463966    1.033383
      6          6           0        4.727226    1.231249    0.538979
      7          1           0        6.001413    1.657794   -1.149459
      8          1           0        4.915984   -0.027473   -2.621585
      9          1           0        3.016784   -1.409593   -1.748162
     10          1           0        3.299189    0.577940    2.045415
     11          1           0        5.199310    1.966543    1.184366
     12          7           0        1.958759   -1.290384    0.696099
     13          8           0        1.601491   -1.098061    1.856275
     14          8           0        1.457920   -2.108498   -0.072333
     15          6           0       -2.220331    2.624591    0.105456
     16          6           0       -1.410708    1.484122    0.086452
     17          6           0       -1.978962    0.211793   -0.026743
     18          6           0       -3.366619    0.116249   -0.119328
     19          6           0       -4.199981    1.233630   -0.103217
     20          6           0       -3.609933    2.495933    0.010728
     21          1           0       -1.770432    3.609074    0.193679
     22          1           0       -0.331232    1.581022    0.159852
     23          1           0       -1.375752   -0.687795   -0.043947
     24          1           0       -5.272975    1.105224   -0.178136
     25          1           0       -4.241167    3.379889    0.025226
     26          7           0       -3.979741   -1.225401   -0.239559
     27          8           0       -5.204868   -1.282718   -0.319649
     28          8           0       -3.223568   -2.194266   -0.251430
 ---------------------------------------------------------------------

 SCF Done:  E(RHF) =  -868.338228983     A.U. after   16 cycles
 E2 =    -0.2599791632D+01 EUMP2 =    -0.87093802061487D+03

 The electronic state is 1-A.
 Alpha  occ. eigenvalues --  -20.61530 -20.61508 -20.59935 -20.59885 -15.86544
 Alpha  occ. eigenvalues --  -15.84967 -11.31856 -11.30395 -11.28417 -11.28373
 Alpha  occ. eigenvalues --  -11.28108 -11.27390 -11.27356 -11.27068 -11.26869
 Alpha  occ. eigenvalues --  -11.26861 -11.26111 -11.26051  -1.60600  -1.58993
 Alpha  occ. eigenvalues --   -1.40142  -1.38538  -1.20013  -1.18613  -1.09416
 Alpha  occ. eigenvalues --   -1.08018  -1.05388  -1.04023  -0.96252  -0.94823
 Alpha  occ. eigenvalues --   -0.86787  -0.85427  -0.83070  -0.81651  -0.78139
 Alpha  occ. eigenvalues --   -0.76662  -0.72720  -0.71955  -0.71183  -0.71090
 Alpha  occ. eigenvalues --   -0.70321  -0.69730  -0.65648  -0.65370  -0.64272
 Alpha  occ. eigenvalues --   -0.64053  -0.62723  -0.61340  -0.55875  -0.54581
 Alpha  occ. eigenvalues --   -0.53743  -0.53463  -0.52365  -0.52124  -0.49508
 Alpha  occ. eigenvalues --   -0.49486  -0.47970  -0.47920  -0.45541  -0.43930
 Alpha  occ. eigenvalues --   -0.37993  -0.36994  -0.36647  -0.35623
 Alpha virt. eigenvalues --    0.04327   0.05867   0.10649   0.12021   0.15833
 Alpha virt. eigenvalues --    0.17309   0.20863   0.21951   0.26799   0.27363
 Alpha virt. eigenvalues --    0.27892   0.28968   0.30575   0.31416   0.32045

 Mulliken charges:
               1
     1  C   -0.170443
     2  C   -0.218598
     3  C   -0.171346
     4  C    0.154520
     5  C   -0.174161
     6  C   -0.218911
     7  H    0.227780
     8  H    0.226277
     9  H    0.278839
    10  H    0.276305
    11  H    0.224970
    12  N    0.484078
    13  O   -0.458729
    14  O   -0.455919
    15  C   -0.171352
    16  C   -0.218646
    17  C   -0.173381
    18  C    0.156249
    19  C   -0.171106
    20  C   -0.219684
    21  H    0.220890
    22  H    0.217204
    23  H    0.293078
    24  H    0.273517
    25  H    0.220006
    26  N    0.487119
    27  O   -0.465364
    28  O   -0.453194
 Sum of Mulliken charges =  -0.00000

 Dipole moment (field-independent basis, Debye):
    X=              6.4647    Y=              7.3586    Z=             -1.4045  Tot=              9.8952
 Quadrupole moment (field-independent basis, Debye-Ang):
   XX=            -91.6417   YY=           -105.7705   ZZ=           -102.5623
   XY=            -10.1315   XZ=             -6.4424   YZ=              3.1998

 Normal termination of Gaussian 16 at Thu May  6 16:18:08 2021.
