 Gaussian 16, Revision A.03,
 Gaussian 16:  EM64L-G16RevA.03 25-Dec-2016

 -------------
 #p 6-31g* mp2
 -------------

 ------------------------------------------------------
 Input file generated by CHIRIPA (05-May-2021 14:57:26)
 ------------------------------------------------------
 Symbolic Z-matrix:
 Charge =  0 Multiplicity = 1

                         Standard orientation:
 ---------------------------------------------------------------------
 Center     Atomic      Atomic             Coordinates (Angstroms)
 Number     Number       Type             X           Y           Z
 ---------------------------------------------------------------------
      1          6           0       -3.110111    2.361832    1.236820
      2          6           0       -3.406117    2.333903   -0.129972
      3          6           0       -3.428154    1.122237   -0.827056
      4          6           0       -3.148110   -0.047775   -0.122826
      5          6           0       -2.849692   -0.052606    1.238869
      6          6           0       -2.833331    1.170588    1.915682
      7          1           0       -3.095197    3.307561    1.770459
      8          1           0       -3.621464    3.257480   -0.659761
      9          1           0       -3.654223    1.071800   -1.885246
     10          1           0       -2.639195   -0.989698    1.739835
     11          1           0       -2.603125    1.189258    2.977144
     12          7           0       -3.168435   -1.336614   -0.850068
     13          8           0       -2.918194   -2.353528   -0.206715
     14          8           0       -3.434222   -1.305488   -2.049662
     15          6           0        1.328189   -1.739031    0.769314
     16          6           0        1.040777   -0.742384   -0.169094
     17          6           0        2.039471    0.135509   -0.600907
     18          6           0        3.320379   -0.012435   -0.071119
     19          6           0        3.637952   -0.995287    0.865065
     20          6           0        2.623575   -1.862085    1.282493
     21          1           0        0.546288   -2.416691    1.099169
     22          1           0        0.035663   -0.644475   -0.569347
     23          1           0        1.844513    0.916022   -1.326310
     24          1           0        4.649370   -1.068188    1.246034
     25          1           0        2.849669   -2.635158    2.011387
     26          7           0        4.385953    0.911079   -0.520646
     27          8           0        5.506441    0.759887   -0.038686
     28          8           0        4.080486    1.768634   -1.346433
 ---------------------------------------------------------------------

 SCF Done:  E(RHF) =  -868.338651390     A.U. after   16 cycles
 E2 =    -0.2600120240D+01 EUMP2 =    -0.87093877162984D+03

 The electronic state is 1-A.
 Alpha  occ. eigenvalues --  -20.61846 -20.61805 -20.60680 -20.60674 -15.86867
 Alpha  occ. eigenvalues --  -15.85731 -11.32107 -11.31023 -11.28672 -11.28604
 Alpha  occ. eigenvalues --  -11.28276 -11.27590 -11.27581 -11.27576 -11.27547
 Alpha  occ. eigenvalues --  -11.27236 -11.26572 -11.26534  -1.60912  -1.59757
 Alpha  occ. eigenvalues --   -1.40463  -1.39312  -1.20251  -1.19181  -1.09655
 Alpha  occ. eigenvalues --   -1.08575  -1.05606  -1.04575  -0.96510  -0.95424
 Alpha  occ. eigenvalues --   -0.87009  -0.85969  -0.83331  -0.82263  -0.78418
 Alpha  occ. eigenvalues --   -0.77338  -0.73066  -0.72276  -0.71946  -0.71306
 Alpha  occ. eigenvalues --   -0.71080  -0.70243  -0.65877  -0.65575  -0.64824
 Alpha  occ. eigenvalues --   -0.64571  -0.62949  -0.61932  -0.56066  -0.55025
 Alpha  occ. eigenvalues --   -0.53980  -0.53674  -0.52904  -0.52640  -0.49844
 Alpha  occ. eigenvalues --   -0.49811  -0.48709  -0.48700  -0.45879  -0.44734
 Alpha  occ. eigenvalues --   -0.38205  -0.37284  -0.37065  -0.36172
 Alpha virt. eigenvalues --    0.04059   0.05199   0.10385   0.11507   0.15604
 Alpha virt. eigenvalues --    0.16714   0.20494   0.21480   0.26291   0.26881
 Alpha virt. eigenvalues --    0.27298   0.28644   0.30435   0.30713   0.32217

 Mulliken charges:
               1
     1  C   -0.169526
     2  C   -0.217914
     3  C   -0.173206
     4  C    0.150620
     5  C   -0.174143
     6  C   -0.216196
     7  H    0.230193
     8  H    0.227854
     9  H    0.278161
    10  H    0.272513
    11  H    0.226593
    12  N    0.487907
    13  O   -0.464775
    14  O   -0.454957
    15  C   -0.174586
    16  C   -0.217217
    17  C   -0.172695
    18  C    0.158102
    19  C   -0.171684
    20  C   -0.219129
    21  H    0.232909
    22  H    0.223831
    23  H    0.274302
    24  H    0.274628
    25  H    0.222998
    26  N    0.488144
    27  O   -0.461083
    28  O   -0.461646
 Sum of Mulliken charges =  -0.00000

 Dipole moment (field-independent basis, Debye):
    X=             -3.9440    Y=              1.4317    Z=              4.1796  Tot=              5.9223
 Quadrupole moment (field-independent basis, Debye-Ang):
   XX=           -128.7962   YY=           -103.4968   ZZ=           -100.7509
   XY=            -28.3264   XZ=              0.8244   YZ=             -4.2346

 Normal termination of Gaussian 16 at Wed May  5 22:47:57 2021.
