 Gaussian 16, Revision A.03,
 Gaussian 16:  EM64L-G16RevA.03 25-Dec-2016

 -------------
 #p 6-31g* mp2
 -------------

 ------------------------------------------------------
 Input file generated by CHIRIPA (05-May-2021 14:57:26)
 ------------------------------------------------------
 Symbolic Z-matrix:
 Charge =  0 Multiplicity = 1

                         Standard orientation:
 ---------------------------------------------------------------------
 Center     Atomic      Atomic             Coordinates (Angstroms)
 Number     Number       Type             X           Y           Z
 ---------------------------------------------------------------------
      1          6           0        5.714922    1.391810   -0.512038
      2          6           0        5.088200    1.557575    0.727422
      3          6           0        4.014410    0.741196    1.094913
      4          6           0        3.591373   -0.235337    0.194517
      5          6           0        4.195191   -0.425053   -1.047538
      6          6           0        5.267207    0.402769   -1.394007
      7          1           0        6.548379    2.030437   -0.789349
      8          1           0        5.433771    2.324856    1.414375
      9          1           0        3.511045    0.847854    2.048153
     10          1           0        3.828262   -1.198565   -1.711210
     11          1           0        5.752023    0.271762   -2.357250
     12          7           0        2.455539   -1.105658    0.572436
     13          8           0        2.101794   -1.958684   -0.238642
     14          8           0        1.940524   -0.918310    1.672571
     15          6           0       -2.845434   -2.249652   -0.243230
     16          6           0       -2.012384   -1.152013   -0.483514
     17          6           0       -2.518601    0.149844   -0.424697
     18          6           0       -3.868784    0.318270   -0.121500
     19          6           0       -4.724120   -0.755038    0.122833
     20          6           0       -4.196262   -2.048017    0.058644
     21          1           0       -2.443787   -3.257518   -0.291007
     22          1           0       -0.962913   -1.305602   -0.718178
     23          1           0       -1.896047    1.017508   -0.606364
     24          1           0       -5.766075   -0.570291    0.354388
     25          1           0       -4.845564   -2.898581    0.245708
     26          7           0       -4.416150    1.691788   -0.056391
     27          8           0       -5.609217    1.813457    0.212727
     28          8           0       -3.641742    2.620675   -0.275708
 ---------------------------------------------------------------------

 SCF Done:  E(RHF) =  -868.340291180     A.U. after   16 cycles
 E2 =    -0.2598305294D+01 EUMP2 =    -0.87093859647431D+03

 The electronic state is 1-A.
 Alpha  occ. eigenvalues --  -20.61712 -20.61673 -20.60108 -20.60102 -15.86705
 Alpha  occ. eigenvalues --  -15.85150 -11.31778 -11.30305 -11.28326 -11.28290
 Alpha  occ. eigenvalues --  -11.27990 -11.27259 -11.27233 -11.26863 -11.26785
 Alpha  occ. eigenvalues --  -11.26449 -11.25847 -11.25608  -1.60759  -1.59186
 Alpha  occ. eigenvalues --   -1.40315  -1.38746  -1.19922  -1.18428  -1.09371
 Alpha  occ. eigenvalues --   -1.07848  -1.05276  -1.03789  -0.96252  -0.94732
 Alpha  occ. eigenvalues --   -0.86688  -0.85183  -0.83092  -0.81570  -0.78175
 Alpha  occ. eigenvalues --   -0.76657  -0.72925  -0.72065  -0.71376  -0.71020
 Alpha  occ. eigenvalues --   -0.70504  -0.69521  -0.65574  -0.65272  -0.64069
 Alpha  occ. eigenvalues --   -0.63748  -0.62625  -0.61136  -0.55783  -0.54261
 Alpha  occ. eigenvalues --   -0.53624  -0.53361  -0.52139  -0.51858  -0.49702
 Alpha  occ. eigenvalues --   -0.49658  -0.48144  -0.48108  -0.45774  -0.44200
 Alpha  occ. eigenvalues --   -0.37883  -0.36865  -0.36377  -0.35385
 Alpha virt. eigenvalues --    0.04297   0.05850   0.10794   0.12276   0.15851
 Alpha virt. eigenvalues --    0.17422   0.20973   0.22513   0.26909   0.27787
 Alpha virt. eigenvalues --    0.28441   0.29294   0.30562   0.31951   0.32207

 Mulliken charges:
               1
     1  C   -0.169505
     2  C   -0.218327
     3  C   -0.170190
     4  C    0.157016
     5  C   -0.171104
     6  C   -0.218387
     7  H    0.228194
     8  H    0.226298
     9  H    0.277352
    10  H    0.274590
    11  H    0.225222
    12  N    0.487373
    13  O   -0.468713
    14  O   -0.455975
    15  C   -0.171514
    16  C   -0.220330
    17  C   -0.172511
    18  C    0.158127
    19  C   -0.173030
    20  C   -0.218771
    21  H    0.228513
    22  H    0.239814
    23  H    0.271459
    24  H    0.272200
    25  H    0.220356
    26  N    0.488282
    27  O   -0.463002
    28  O   -0.463436
 Sum of Mulliken charges =  -0.00000

 Dipole moment (field-independent basis, Debye):
    X=              6.4414    Y=             -1.8007    Z=             -1.5049  Tot=              6.8555
 Quadrupole moment (field-independent basis, Debye-Ang):
   XX=            -87.8121   YY=           -108.6686   ZZ=           -102.0591
   XY=             32.2075   XZ=             -4.9697   YZ=              3.4039

 Normal termination of Gaussian 16 at Thu May  6 13:07:58 2021.
