 Gaussian 16, Revision A.03,
 Gaussian 16:  EM64L-G16RevA.03 25-Dec-2016

 -------------
 #p 6-31g* mp2
 -------------

 ------------------------------------------------------
 Input file generated by CHIRIPA (05-May-2021 14:51:08)
 ------------------------------------------------------
 Symbolic Z-matrix:
 Charge =  0 Multiplicity = 1

                         Standard orientation:
 ---------------------------------------------------------------------
 Center     Atomic      Atomic             Coordinates (Angstroms)
 Number     Number       Type             X           Y           Z
 ---------------------------------------------------------------------
      1          6           0        3.821723    0.244384    0.262844
      2          6           0        5.093638    0.101922   -0.573770
      3          6           0        6.098385    1.225698   -0.318027
      4          1           0        3.353298    1.213770    0.044180
      5          1           0        4.091645    0.260815    1.327863
      6          1           0        4.821273    0.084373   -1.636844
      7          1           0        5.558987   -0.867320   -0.353232
      8          1           0        6.398789    1.241696    0.734637
      9          1           0        5.656884    2.198796   -0.556268
     10          1           0        7.000075    1.104176   -0.926342
     11          6           0        2.807577   -0.871602    0.018279
     12          6           0        1.535662   -0.729140    0.854893
     13          6           0        0.530915   -1.852916    0.599150
     14          1           0        2.537655   -0.888033   -1.046741
     15          1           0        3.276002   -1.840988    0.236942
     16          1           0        1.070314    0.240102    0.634354
     17          1           0        1.808027   -0.711591    1.917966
     18          1           0        0.972416   -2.826014    0.837391
     19          1           0        0.230511   -1.868914   -0.453515
     20          1           0       -0.370775   -1.731394    1.207465
     21          6           0       -3.617463    0.973551    0.096530
     22          6           0       -2.768792    2.193746   -0.262454
     23          6           0       -3.387716    3.506515    0.218549
     24          1           0       -4.618866    1.090086   -0.339998
     25          1           0       -3.753716    0.938154    1.186290
     26          1           0       -2.633021    2.226059   -1.351094
     27          1           0       -1.769233    2.074204    0.174818
     28          1           0       -3.507955    3.499805    1.306712
     29          1           0       -4.376651    3.652523   -0.227871
     30          1           0       -2.764665    4.365746   -0.048639
     31          6           0       -3.011838   -0.346334   -0.377653
     32          6           0       -3.860508   -1.566527   -0.018668
     33          6           0       -3.241584   -2.879298   -0.499671
     34          1           0       -2.875584   -0.310937   -1.467413
     35          1           0       -2.010435   -0.462868    0.058875
     36          1           0       -4.860067   -1.446986   -0.455940
     37          1           0       -3.996280   -1.598840    1.069972
     38          1           0       -2.252650   -3.025305   -0.053251
     39          1           0       -3.121345   -2.872588   -1.587834
     40          1           0       -3.864635   -3.738529   -0.232483
 ---------------------------------------------------------------------

 SCF Done:  E(RHF) =  -470.732306159     A.U. after   11 cycles
 E2 =    -0.1583802107D+01 EUMP2 =    -0.47231610826506D+03

 The electronic state is 1-A.
 Alpha  occ. eigenvalues --  -11.21680 -11.21624 -11.21595 -11.21525 -11.21446
 Alpha  occ. eigenvalues --  -11.21384 -11.21337 -11.21230 -11.21136 -11.21088
 Alpha  occ. eigenvalues --  -11.21064 -11.20932  -1.08481  -1.08368  -1.03599
 Alpha  occ. eigenvalues --   -1.03465  -0.96042  -0.95918  -0.87068  -0.86937
 Alpha  occ. eigenvalues --   -0.79713  -0.79491  -0.78289  -0.78179  -0.65170
 Alpha  occ. eigenvalues --   -0.64978  -0.61037  -0.60869  -0.59459  -0.59220
 Alpha  occ. eigenvalues --   -0.57668  -0.57517  -0.55345  -0.55198  -0.52785
 Alpha  occ. eigenvalues --   -0.52607  -0.52514  -0.52292  -0.50009  -0.49859
 Alpha  occ. eigenvalues --   -0.47961  -0.47849  -0.46747  -0.46502  -0.45861
 Alpha  occ. eigenvalues --   -0.45751  -0.45682  -0.45573  -0.43762  -0.43715
 Alpha virt. eigenvalues --    0.21000   0.23065   0.23652   0.24252   0.26087
 Alpha virt. eigenvalues --    0.26666   0.27011   0.27296   0.28113   0.29414
 Alpha virt. eigenvalues --    0.30042   0.31099   0.31789   0.31983   0.32186

 Mulliken charges:
               1
     1  C   -0.298399
     2  C   -0.299693
     3  C   -0.475740
     4  H    0.149821
     5  H    0.149549
     6  H    0.152066
     7  H    0.151992
     8  H    0.155193
     9  H    0.155255
    10  H    0.160352
    11  C   -0.298630
    12  C   -0.302824
    13  C   -0.479820
    14  H    0.150154
    15  H    0.149965
    16  H    0.153008
    17  H    0.152219
    18  H    0.156407
    19  H    0.158725
    20  H    0.160854
    21  C   -0.297486
    22  C   -0.300152
    23  C   -0.475604
    24  H    0.149416
    25  H    0.148954
    26  H    0.151705
    27  H    0.151592
    28  H    0.155222
    29  H    0.155295
    30  H    0.160009
    31  C   -0.307703
    32  C   -0.298960
    33  C   -0.481936
    34  H    0.148158
    35  H    0.161488
    36  H    0.151532
    37  H    0.150701
    38  H    0.163812
    39  H    0.154104
    40  H    0.159398
 Sum of Mulliken charges =  -0.00000

 Dipole moment (field-independent basis, Debye):
    X=              0.0718    Y=             -0.0219    Z=              0.0042  Tot=              0.0752
 Quadrupole moment (field-independent basis, Debye-Ang):
   XX=            -85.3878   YY=            -86.1210   ZZ=            -83.5412
   XY=             -0.6310   XZ=              0.7529   YZ=             -0.8667

 Normal termination of Gaussian 16 at Thu May  6 02:06:48 2021.
