 Gaussian 16, Revision A.03,
 Gaussian 16:  EM64L-G16RevA.03 25-Dec-2016

 -------------
 #p 6-31g* mp2
 -------------

 ------------------------------------------------------
 Input file generated by CHIRIPA (05-May-2021 14:57:24)
 ------------------------------------------------------
 Symbolic Z-matrix:
 Charge =  0 Multiplicity = 1

                         Standard orientation:
 ---------------------------------------------------------------------
 Center     Atomic      Atomic             Coordinates (Angstroms)
 Number     Number       Type             X           Y           Z
 ---------------------------------------------------------------------
      1          6           0       -2.974404    2.429589    0.434934
      2          6           0       -4.179947    1.983194   -0.116357
      3          6           0       -4.389972    0.622005   -0.356357
      4          6           0       -3.368410   -0.269189   -0.031591
      5          6           0       -2.156324    0.144627    0.518766
      6          6           0       -1.968214    1.510501    0.750180
      7          1           0       -2.819764    3.488813    0.618037
      8          1           0       -4.963131    2.694703   -0.362169
      9          1           0       -5.313579    0.249123   -0.782184
     10          1           0       -1.394192   -0.588532    0.753396
     11          1           0       -1.030960    1.854315    1.178420
     12          7           0       -3.579153   -1.712699   -0.281124
     13          8           0       -2.663465   -2.477671    0.013782
     14          8           0       -4.656033   -2.051817   -0.766888
     15          6           0        3.775587   -2.431995    0.311253
     16          6           0        4.723618   -1.628536   -0.330784
     17          6           0        4.489372   -0.262482   -0.514008
     18          6           0        3.290954    0.269422   -0.040547
     19          6           0        2.326884   -0.504961    0.603029
     20          6           0        2.582350   -1.868637    0.775292
     21          1           0        3.965797   -3.492255    0.449328
     22          1           0        5.651186   -2.063330   -0.692193
     23          1           0        5.206079    0.382579   -1.007611
     24          1           0        1.411560   -0.042900    0.952454
     25          1           0        1.844291   -2.490198    1.274267
     26          7           0        3.031736    1.714344   -0.228717
     27          8           0        1.968060    2.158775    0.197559
     28          8           0        3.897146    2.375082   -0.798915
 ---------------------------------------------------------------------

 SCF Done:  E(RHF) =  -868.339365374     A.U. after   16 cycles
 E2 =    -0.2599391793D+01 EUMP2 =    -0.87093875716697D+03

 The electronic state is 1-A.
 Alpha  occ. eigenvalues --  -20.61398 -20.61353 -20.60812 -20.60786 -15.86419
 Alpha  occ. eigenvalues --  -15.85847 -11.31575 -11.31040 -11.28185 -11.28065
 Alpha  occ. eigenvalues --  -11.27733 -11.27609 -11.27537 -11.27152 -11.27039
 Alpha  occ. eigenvalues --  -11.27028 -11.26521 -11.26397  -1.60436  -1.59875
 Alpha  occ. eigenvalues --   -1.40004  -1.39438  -1.19702  -1.19153  -1.09120
 Alpha  occ. eigenvalues --   -1.08558  -1.05080  -1.04529  -0.96007  -0.95445
 Alpha  occ. eigenvalues --   -0.86482  -0.85917  -0.82855  -0.82288  -0.77957
 Alpha  occ. eigenvalues --   -0.77368  -0.72655  -0.72074  -0.71740  -0.71191
 Alpha  occ. eigenvalues --   -0.70818  -0.70246  -0.65362  -0.65072  -0.64795
 Alpha  occ. eigenvalues --   -0.64483  -0.62492  -0.61845  -0.55552  -0.54977
 Alpha  occ. eigenvalues --   -0.53401  -0.53166  -0.52854  -0.52596  -0.49417
 Alpha  occ. eigenvalues --   -0.49361  -0.48843  -0.48799  -0.45453  -0.44883
 Alpha  occ. eigenvalues --   -0.37635  -0.37081  -0.36665  -0.36116
 Alpha virt. eigenvalues --    0.04585   0.05146   0.10989   0.11549   0.16149
 Alpha virt. eigenvalues --    0.16701   0.18846   0.22316   0.24813   0.27261
 Alpha virt. eigenvalues --    0.28381   0.29451   0.30694   0.31496   0.32782

 Mulliken charges:
               1
     1  C   -0.171132
     2  C   -0.218071
     3  C   -0.172034
     4  C    0.159543
     5  C   -0.174155
     6  C   -0.219574
     7  H    0.229795
     8  H    0.223411
     9  H    0.274456
    10  H    0.263366
    11  H    0.240212
    12  N    0.488743
    13  O   -0.466457
    14  O   -0.459612
    15  C   -0.169811
    16  C   -0.218025
    17  C   -0.170477
    18  C    0.159285
    19  C   -0.171472
    20  C   -0.217625
    21  H    0.229268
    22  H    0.225328
    23  H    0.276136
    24  H    0.266647
    25  H    0.229852
    26  N    0.491712
    27  O   -0.473000
    28  O   -0.456308
 Sum of Mulliken charges =  -0.00000

 Dipole moment (field-independent basis, Debye):
    X=              1.8846    Y=              0.0547    Z=              1.4976  Tot=              2.4078
 Quadrupole moment (field-independent basis, Debye-Ang):
   XX=            -95.1336   YY=           -110.6225   ZZ=           -104.6958
   XY=            -35.6139   XZ=             -1.4165   YZ=             -0.6909

 Normal termination of Gaussian 16 at Fri May  7 00:21:04 2021.
