 Gaussian 16, Revision A.03,
 Gaussian 16:  EM64L-G16RevA.03 25-Dec-2016

 -------------
 #p 6-31g* mp2
 -------------

 ------------------------------------------------------
 Input file generated by CHIRIPA (05-May-2021 14:53:18)
 ------------------------------------------------------
 Symbolic Z-matrix:
 Charge =  0 Multiplicity = 1

                         Standard orientation:
 ---------------------------------------------------------------------
 Center     Atomic      Atomic             Coordinates (Angstroms)
 Number     Number       Type             X           Y           Z
 ---------------------------------------------------------------------
      1          6           0       -4.690238   -0.107784    0.391174
      2          6           0       -5.434928    0.887788   -0.498914
      3          6           0       -6.802735    1.275575    0.063687
      4          1           0       -5.305589   -1.009177    0.516786
      5          1           0       -4.565885    0.327787    1.392279
      6          1           0       -5.556620    0.451026   -1.498437
      7          1           0       -4.817649    1.786837   -0.622577
      8          1           0       -6.696693    1.735131    1.051697
      9          1           0       -7.439863    0.391729    0.170861
     10          1           0       -7.317720    1.987979   -0.588334
     11          6           0       -3.321176   -0.505101   -0.157950
     12          6           0       -2.576485   -1.500673    0.732138
     13          6           0       -1.208678   -1.888460    0.169538
     14          1           0       -3.445529   -0.940672   -1.159054
     15          1           0       -2.705824    0.396292   -0.283561
     16          1           0       -3.193764   -2.399723    0.855802
     17          1           0       -2.454794   -1.063911    1.731661
     18          1           0       -0.571551   -1.004615    0.062363
     19          1           0       -1.314720   -2.348016   -0.818473
     20          1           0       -0.693693   -2.600864    0.821558
     21          6           0        3.196236    2.752120    0.127395
     22          6           0        4.271503    1.981190    0.581255
     23          6           0        4.245342    0.588202    0.465286
     24          6           0        3.123003   -0.003511   -0.112227
     25          6           0        2.036076    0.737277   -0.573868
     26          6           0        2.083915    2.128803   -0.447703
     27          1           0        3.224979    3.833659    0.221443
     28          1           0        5.136651    2.462556    1.028303
     29          1           0        5.064003   -0.032722    0.808308
     30          1           0        1.187402    0.228861   -1.015097
     31          1           0        1.247405    2.724992   -0.801050
     32          7           0        3.083832   -1.477431   -0.240395
     33          8           0        2.083444   -1.974613   -0.752909
     34          8           0        4.054260   -2.107598    0.174088
 ---------------------------------------------------------------------

 SCF Done:  E(RHF) =  -669.535022505     A.U. after   15 cycles
 E2 =    -0.2092024231D+01 EUMP2 =    -0.67162704673578D+03

 The electronic state is 1-A.
 Alpha  occ. eigenvalues --  -20.60798 -20.60777 -15.85826 -11.31216 -11.27782
 Alpha  occ. eigenvalues --  -11.27767 -11.27530 -11.26809 -11.26799 -11.21634
 Alpha  occ. eigenvalues --  -11.21345 -11.21282 -11.21201 -11.21108 -11.20376
 Alpha  occ. eigenvalues --   -1.59858  -1.39411  -1.19389  -1.08781  -1.08310
 Alpha  occ. eigenvalues --   -1.04796  -1.03324  -0.95773  -0.95588  -0.86757
 Alpha  occ. eigenvalues --   -0.86191  -0.82444  -0.79400  -0.78141  -0.77465
 Alpha  occ. eigenvalues --   -0.72047  -0.71176  -0.70504  -0.65043  -0.64968
 Alpha  occ. eigenvalues --   -0.64793  -0.62174  -0.60718  -0.59138  -0.57363
 Alpha  occ. eigenvalues --   -0.55325  -0.55033  -0.53122  -0.52916  -0.52382
 Alpha  occ. eigenvalues --   -0.52146  -0.49721  -0.48813  -0.48809  -0.47673
 Alpha  occ. eigenvalues --   -0.46454  -0.45675  -0.45592  -0.44770  -0.43539
 Alpha  occ. eigenvalues --   -0.37369  -0.36393
 Alpha virt. eigenvalues --    0.05012   0.11175   0.16506   0.21025   0.22971
 Alpha virt. eigenvalues --    0.24319   0.26078   0.27082   0.27704   0.27778
 Alpha virt. eigenvalues --    0.29184   0.30674   0.31498   0.31890   0.32402

 Mulliken charges:
               1
     1  C   -0.297734
     2  C   -0.299067
     3  C   -0.475559
     4  H    0.150954
     5  H    0.148662
     6  H    0.152309
     7  H    0.148790
     8  H    0.154686
     9  H    0.156066
    10  H    0.159583
    11  C   -0.296343
    12  C   -0.303053
    13  C   -0.467295
    14  H    0.150284
    15  H    0.141170
    16  H    0.152068
    17  H    0.148936
    18  H    0.145209
    19  H    0.158566
    20  H    0.168462
    21  C   -0.170729
    22  C   -0.218374
    23  C   -0.170908
    24  C    0.157517
    25  C   -0.172913
    26  C   -0.219777
    27  H    0.225681
    28  H    0.223565
    29  H    0.275679
    30  H    0.280739
    31  H    0.223649
    32  N    0.488665
    33  O   -0.458947
    34  O   -0.460541
 Sum of Mulliken charges =  -0.00000

 Dipole moment (field-independent basis, Debye):
    X=              0.2600    Y=              5.0500    Z=              0.4384  Tot=              5.0757
 Quadrupole moment (field-independent basis, Debye-Ang):
   XX=            -91.0810   YY=            -94.5619   ZZ=            -94.5732
   XY=             17.0119   XZ=              4.2145   YZ=             -0.3850

 Normal termination of Gaussian 16 at Thu May  6 10:44:09 2021.
