 Gaussian 16, Revision A.03,
 Gaussian 16:  EM64L-G16RevA.03 25-Dec-2016

 -------------
 #p 6-31g* mp2
 -------------

 ------------------------------------------------------
 Input file generated by CHIRIPA (05-May-2021 14:51:08)
 ------------------------------------------------------
 Symbolic Z-matrix:
 Charge =  0 Multiplicity = 1

                         Standard orientation:
 ---------------------------------------------------------------------
 Center     Atomic      Atomic             Coordinates (Angstroms)
 Number     Number       Type             X           Y           Z
 ---------------------------------------------------------------------
      1          6           0        3.918626   -0.373540   -0.605692
      2          6           0        3.919497   -1.663471    0.215321
      3          6           0        4.654435   -2.808100   -0.482882
      4          1           0        3.453899   -0.568109   -1.581969
      5          1           0        4.956638   -0.074933   -0.807582
      6          1           0        2.881804   -1.958805    0.416781
      7          1           0        4.384103   -1.465762    1.189830
      8          1           0        5.698824   -2.538089   -0.669820
      9          1           0        4.187989   -3.033934   -1.447261
     10          1           0        4.642861   -3.720476    0.121515
     11          6           0        3.187684    0.779936    0.079104
     12          6           0        3.186813    2.069867   -0.741909
     13          6           0        2.451876    3.214496   -0.043706
     14          1           0        2.149672    0.481329    0.280994
     15          1           0        3.652411    0.974505    1.055381
     16          1           0        2.722207    1.872158   -1.716418
     17          1           0        4.224506    2.365201   -0.943369
     18          1           0        2.918321    3.440329    0.920674
     19          1           0        1.407486    2.944485    0.143232
     20          1           0        2.463450    4.126872   -0.648103
     21          6           0       -2.793995   -0.284307    0.240278
     22          6           0       -2.115720   -0.028158    1.586500
     23          6           0       -0.597057   -0.194277    1.524385
     24          1           0       -2.548379   -1.299764   -0.099523
     25          1           0       -2.379159    0.404729   -0.508412
     26          1           0       -2.532699   -0.716534    2.332745
     27          1           0       -2.363137    0.986740    1.923227
     28          1           0       -0.162534    0.502955    0.800741
     29          1           0       -0.333060   -1.209997    1.212586
     30          1           0       -0.132531   -0.006568    2.497443
     31          6           0       -4.312315   -0.122089    0.286310
     32          6           0       -4.990590   -0.378238   -1.059912
     33          6           0       -6.509254   -0.212119   -0.997797
     34          1           0       -4.727151   -0.811125    1.035000
     35          1           0       -4.557932    0.893368    0.626111
     36          1           0       -4.743174   -1.393136   -1.396640
     37          1           0       -4.573611    0.310139   -1.806157
     38          1           0       -6.773251    0.803601   -0.685999
     39          1           0       -6.943777   -0.909351   -0.274154
     40          1           0       -6.973779   -0.399828   -1.970855
 ---------------------------------------------------------------------

 SCF Done:  E(RHF) =  -470.733103190     A.U. after   11 cycles
 E2 =    -0.1582971450D+01 EUMP2 =    -0.47231607464042D+03

 The electronic state is 1-A.
 Alpha  occ. eigenvalues --  -11.21651 -11.21630 -11.21553 -11.21537 -11.21449
 Alpha  occ. eigenvalues --  -11.21387 -11.21313 -11.21224 -11.21143 -11.21092
 Alpha  occ. eigenvalues --  -11.21061 -11.21027  -1.08475  -1.08358  -1.03578
 Alpha  occ. eigenvalues --   -1.03479  -0.96035  -0.95923  -0.87059  -0.86938
 Alpha  occ. eigenvalues --   -0.79667  -0.79526  -0.78308  -0.78138  -0.65125
 Alpha  occ. eigenvalues --   -0.64984  -0.61034  -0.60830  -0.59391  -0.59297
 Alpha  occ. eigenvalues --   -0.57651  -0.57529  -0.55341  -0.55207  -0.52739
 Alpha  occ. eigenvalues --   -0.52629  -0.52495  -0.52319  -0.50028  -0.49848
 Alpha  occ. eigenvalues --   -0.48030  -0.47833  -0.46773  -0.46491  -0.45944
 Alpha  occ. eigenvalues --   -0.45763  -0.45690  -0.45368  -0.43819  -0.43721
 Alpha virt. eigenvalues --    0.21187   0.22976   0.23639   0.24535   0.25475
 Alpha virt. eigenvalues --    0.26513   0.27148   0.27543   0.27851   0.29578
 Alpha virt. eigenvalues --    0.29640   0.31495   0.31753   0.31916   0.32165

 Mulliken charges:
               1
     1  C   -0.297509
     2  C   -0.300236
     3  C   -0.475673
     4  H    0.149125
     5  H    0.149050
     6  H    0.152777
     7  H    0.151789
     8  H    0.155071
     9  H    0.154983
    10  H    0.159958
    11  C   -0.308056
    12  C   -0.299261
    13  C   -0.476977
    14  H    0.161737
    15  H    0.148932
    16  H    0.151252
    17  H    0.151760
    18  H    0.155442
    19  H    0.155308
    20  H    0.160061
    21  C   -0.298438
    22  C   -0.300171
    23  C   -0.479738
    24  H    0.149601
    25  H    0.149250
    26  H    0.152220
    27  H    0.152349
    28  H    0.157798
    29  H    0.155183
    30  H    0.161906
    31  C   -0.298313
    32  C   -0.299689
    33  C   -0.475738
    34  H    0.149680
    35  H    0.149829
    36  H    0.151939
    37  H    0.151945
    38  H    0.155269
    39  H    0.155241
    40  H    0.160341
 Sum of Mulliken charges =  -0.00000

 Dipole moment (field-independent basis, Debye):
    X=             -0.0425    Y=             -0.0075    Z=              0.0276  Tot=              0.0512
 Quadrupole moment (field-independent basis, Debye-Ang):
   XX=            -85.6090   YY=            -84.6477   ZZ=            -84.6735
   XY=              0.8985   XZ=              0.4779   YZ=             -0.4346

 Normal termination of Gaussian 16 at Thu May  6 16:32:55 2021.
