 Gaussian 16, Revision A.03,
 Gaussian 16:  EM64L-G16RevA.03 25-Dec-2016

 -------------
 #p 6-31g* mp2
 -------------

 ------------------------------------------------------
 Input file generated by CHIRIPA (05-May-2021 14:51:09)
 ------------------------------------------------------
 Symbolic Z-matrix:
 Charge =  0 Multiplicity = 1

                         Standard orientation:
 ---------------------------------------------------------------------
 Center     Atomic      Atomic             Coordinates (Angstroms)
 Number     Number       Type             X           Y           Z
 ---------------------------------------------------------------------
      1          6           0        2.539363   -0.121269    0.083568
      2          6           0        3.814417    0.311977   -0.640670
      3          6           0        4.078868    1.813467   -0.524955
      4          1           0        1.685436    0.435523   -0.325988
      5          1           0        2.615189    0.158006    1.143592
      6          1           0        3.736790    0.030730   -1.698729
      7          1           0        4.665381   -0.246050   -0.229474
      8          1           0        4.182703    2.106571    0.524763
      9          1           0        3.248836    2.384923   -0.952840
     10          1           0        4.995117    2.101357   -1.049805
     11          6           0        2.261441   -1.619642   -0.023046
     12          6           0        0.986387   -2.052888    0.701192
     13          6           0        0.721936   -3.554377    0.585477
     14          1           0        2.185616   -1.898916   -1.083070
     15          1           0        3.115369   -2.176433    0.386510
     16          1           0        0.135424   -1.494861    0.289996
     17          1           0        1.064015   -1.771640    1.759251
     18          1           0        1.551969   -4.125833    1.013362
     19          1           0        0.618101   -3.847481   -0.464241
     20          1           0       -0.194312   -3.842267    1.110327
     21          6           0       -2.406457    0.107231   -0.060010
     22          6           0       -3.735138   -0.470001   -0.549292
     23          6           0       -3.731688   -1.998025   -0.603363
     24          1           0       -1.599163   -0.235860   -0.721454
     25          1           0       -2.185125   -0.295411    0.938131
     26          1           0       -3.954577   -0.065316   -1.545631
     27          1           0       -4.539388   -0.125339    0.113281
     28          1           0       -3.537555   -2.418175    0.388800
     29          1           0       -2.949421   -2.357811   -1.279539
     30          1           0       -4.691106   -2.389438   -0.955746
     31          6           0       -2.394348    1.633679   -0.000512
     32          6           0       -1.065667    2.210911    0.488771
     33          6           0       -1.069116    3.738936    0.542841
     34          1           0       -2.615679    2.036321   -0.998653
     35          1           0       -3.201642    1.976771    0.660933
     36          1           0       -0.261416    1.866250   -0.173804
     37          1           0       -0.846229    1.806226    1.485110
     38          1           0       -1.851384    4.098721    1.219017
     39          1           0       -1.263249    4.159085   -0.449322
     40          1           0       -0.109699    4.130349    0.895225
 ---------------------------------------------------------------------

 SCF Done:  E(RHF) =  -470.732412333     A.U. after   11 cycles
 E2 =    -0.1584778838D+01 EUMP2 =    -0.47231719117032D+03

 The electronic state is 1-A.
 Alpha  occ. eigenvalues --  -11.21647 -11.21604 -11.21572 -11.21451 -11.21421
 Alpha  occ. eigenvalues --  -11.21389 -11.21331 -11.21273 -11.21109 -11.21079
 Alpha  occ. eigenvalues --  -11.21061 -11.20985  -1.08496  -1.08350  -1.03568
 Alpha  occ. eigenvalues --   -1.03458  -0.96016  -0.95920  -0.87044  -0.86924
 Alpha  occ. eigenvalues --   -0.79689  -0.79484  -0.78523  -0.77966  -0.65214
 Alpha  occ. eigenvalues --   -0.64908  -0.61013  -0.60837  -0.59419  -0.59256
 Alpha  occ. eigenvalues --   -0.57654  -0.57502  -0.55308  -0.55214  -0.52711
 Alpha  occ. eigenvalues --   -0.52607  -0.52513  -0.52291  -0.50010  -0.49823
 Alpha  occ. eigenvalues --   -0.48100  -0.47729  -0.46775  -0.46756  -0.46241
 Alpha  occ. eigenvalues --   -0.45791  -0.45628  -0.44847  -0.43813  -0.43709
 Alpha virt. eigenvalues --    0.20941   0.22538   0.23561   0.24666   0.25348
 Alpha virt. eigenvalues --    0.26241   0.26830   0.27500   0.28880   0.29673
 Alpha virt. eigenvalues --    0.30798   0.31105   0.31639   0.32147   0.32243

 Mulliken charges:
               1
     1  C   -0.304807
     2  C   -0.299160
     3  C   -0.475694
     4  H    0.155991
     5  H    0.149413
     6  H    0.151379
     7  H    0.151976
     8  H    0.155190
     9  H    0.154665
    10  H    0.160201
    11  C   -0.297325
    12  C   -0.309640
    13  C   -0.474937
    14  H    0.148220
    15  H    0.149182
    16  H    0.163945
    17  H    0.150407
    18  H    0.154584
    19  H    0.154269
    20  H    0.159984
    21  C   -0.303011
    22  C   -0.298977
    23  C   -0.476291
    24  H    0.151547
    25  H    0.152191
    26  H    0.151806
    27  H    0.152185
    28  H    0.155436
    29  H    0.155359
    30  H    0.160635
    31  C   -0.297392
    32  C   -0.305398
    33  C   -0.475500
    34  H    0.149102
    35  H    0.149829
    36  H    0.156885
    37  H    0.152859
    38  H    0.155191
    39  H    0.154794
    40  H    0.160904
 Sum of Mulliken charges =  -0.00000

 Dipole moment (field-independent basis, Debye):
    X=             -0.0630    Y=              0.0343    Z=              0.0097  Tot=              0.0724
 Quadrupole moment (field-independent basis, Debye-Ang):
   XX=            -84.5693   YY=            -87.2533   ZZ=            -83.1186
   XY=             -0.5036   XZ=              0.1128   YZ=             -0.2231

 Normal termination of Gaussian 16 at Thu May  6 05:19:50 2021.
