 Gaussian 16, Revision A.03,
 Gaussian 16:  EM64L-G16RevA.03 25-Dec-2016

 -------------
 #p 6-31g* mp2
 -------------

 ------------------------------------------------------
 Input file generated by CHIRIPA (05-May-2021 14:57:25)
 ------------------------------------------------------
 Symbolic Z-matrix:
 Charge =  0 Multiplicity = 1

                         Standard orientation:
 ---------------------------------------------------------------------
 Center     Atomic      Atomic             Coordinates (Angstroms)
 Number     Number       Type             X           Y           Z
 ---------------------------------------------------------------------
      1          6           0        1.221820    0.448503    1.122768
      2          6           0        1.854779   -0.794645    1.225074
      3          6           0        3.161489   -0.966587    0.758712
      4          6           0        3.808554    0.130992    0.193100
      5          6           0        3.204787    1.382105    0.077035
      6          6           0        1.897653    1.531002    0.550085
      7          1           0        0.206571    0.573120    1.487647
      8          1           0        1.332349   -1.637091    1.669368
      9          1           0        3.675211   -1.917931    0.825440
     10          1           0        3.751187    2.203324   -0.370700
     11          1           0        1.408573    2.497607    0.469326
     12          7           0        5.192134   -0.038837   -0.304157
     13          8           0        5.740572    0.943813   -0.798375
     14          8           0        5.701947   -1.151383   -0.190272
     15          6           0       -5.771576    0.851112    0.463132
     16          6           0       -4.774454    1.665338   -0.083952
     17          6           0       -3.556567    1.116506   -0.496363
     18          6           0       -3.368700   -0.256634   -0.346419
     19          6           0       -4.342759   -1.094117    0.194989
     20          6           0       -5.552932   -0.523594    0.600615
     21          1           0       -6.714665    1.285882    0.780867
     22          1           0       -4.941484    2.733275   -0.191922
     23          1           0       -2.767511    1.723692   -0.923133
     24          1           0       -4.147044   -2.155291    0.289981
     25          1           0       -6.325516   -1.158361    1.025149
     26          7           0       -2.083461   -0.849139   -0.779428
     27          8           0       -1.942612   -2.061746   -0.636659
     28          8           0       -1.241275   -0.089719   -1.253390
 ---------------------------------------------------------------------

 SCF Done:  E(RHF) =  -868.337962351     A.U. after   16 cycles
 E2 =    -0.2599912398D+01 EUMP2 =    -0.87093787474974D+03

 The electronic state is 1-A.
 Alpha  occ. eigenvalues --  -20.61696 -20.61673 -20.59941 -20.59934 -15.86708
 Alpha  occ. eigenvalues --  -15.84990 -11.32014 -11.30164 -11.28581 -11.28541
 Alpha  occ. eigenvalues --  -11.28250 -11.27545 -11.27519 -11.26769 -11.26718
 Alpha  occ. eigenvalues --  -11.26486 -11.25754 -11.25658  -1.60761  -1.59019
 Alpha  occ. eigenvalues --   -1.40314  -1.38579  -1.20169  -1.18326  -1.09571
 Alpha  occ. eigenvalues --   -1.07756  -1.05551  -1.03720  -0.96417  -0.94631
 Alpha  occ. eigenvalues --   -0.86950  -0.85137  -0.83244  -0.81482  -0.78315
 Alpha  occ. eigenvalues --   -0.76548  -0.72922  -0.72127  -0.71254  -0.71219
 Alpha  occ. eigenvalues --   -0.70337  -0.69470  -0.65811  -0.65536  -0.64002
 Alpha  occ. eigenvalues --   -0.63752  -0.62897  -0.61099  -0.56030  -0.54274
 Alpha  occ. eigenvalues --   -0.53895  -0.53631  -0.52023  -0.51844  -0.49695
 Alpha  occ. eigenvalues --   -0.49667  -0.47979  -0.47959  -0.45721  -0.44028
 Alpha  occ. eigenvalues --   -0.38144  -0.37157  -0.36198  -0.35298
 Alpha virt. eigenvalues --    0.04164   0.06033   0.10487   0.12364   0.15692
 Alpha virt. eigenvalues --    0.17589   0.20681   0.22216   0.26600   0.27526
 Alpha virt. eigenvalues --    0.28247   0.28796   0.30438   0.31691   0.31830

 Mulliken charges:
               1
     1  C   -0.152718
     2  C   -0.213674
     3  C   -0.170453
     4  C    0.157900
     5  C   -0.171369
     6  C   -0.215532
     7  H    0.216256
     8  H    0.223813
     9  H    0.273420
    10  H    0.271724
    11  H    0.216434
    12  N    0.488318
    13  O   -0.463700
    14  O   -0.462413
    15  C   -0.170329
    16  C   -0.218147
    17  C   -0.173901
    18  C    0.155809
    19  C   -0.171439
    20  C   -0.218207
    21  H    0.228326
    22  H    0.225334
    23  H    0.274079
    24  H    0.276695
    25  H    0.226054
    26  N    0.485167
    27  O   -0.459351
    28  O   -0.458097
 Sum of Mulliken charges =  -0.00000

 Dipole moment (field-independent basis, Debye):
    X=             -9.8117    Y=              2.5905    Z=              3.2340  Tot=             10.6508
 Quadrupole moment (field-independent basis, Debye-Ang):
   XX=           -112.2238   YY=            -97.2455   ZZ=           -106.0615
   XY=             -2.8298   XZ=              1.3795   YZ=             -3.8724

 Normal termination of Gaussian 16 at Thu May  6 01:55:35 2021.
