 Gaussian 16, Revision A.03,
 Gaussian 16:  EM64L-G16RevA.03 25-Dec-2016

 -------------
 #p 6-31g* mp2
 -------------

 ------------------------------------------------------
 Input file generated by CHIRIPA (05-May-2021 14:51:10)
 ------------------------------------------------------
 Symbolic Z-matrix:
 Charge =  0 Multiplicity = 1

                         Standard orientation:
 ---------------------------------------------------------------------
 Center     Atomic      Atomic             Coordinates (Angstroms)
 Number     Number       Type             X           Y           Z
 ---------------------------------------------------------------------
      1          6           0       -2.553553    0.208562   -0.271995
      2          6           0       -4.039998    0.198612   -0.630276
      3          6           0       -4.529514   -1.176986   -1.084035
      4          1           0       -1.970720   -0.120617   -1.143139
      5          1           0       -2.370210   -0.527496    0.522988
      6          1           0       -4.220721    0.935454   -1.423383
      7          1           0       -4.619347    0.528038    0.241762
      8          1           0       -4.377996   -1.919678   -0.294066
      9          1           0       -3.977105   -1.509947   -1.968672
     10          1           0       -5.594659   -1.161330   -1.335194
     11          6           0       -2.049321    1.576780    0.183481
     12          6           0       -0.562875    1.586730    0.541762
     13          6           0       -0.073359    2.962329    0.995521
     14          1           0       -2.232664    2.312838   -0.611502
     15          1           0       -2.632153    1.905960    1.054625
     16          1           0        0.016474    1.257305   -0.330276
     17          1           0       -0.382152    0.849888    1.334869
     18          1           0       -0.625768    3.295290    1.880158
     19          1           0       -0.224877    3.705021    0.205552
     20          1           0        0.991786    2.946672    1.246680
     21          6           0        2.694406   -0.610926   -0.547036
     22          6           0        3.978414    0.109204   -0.133855
     23          6           0        4.753561    0.667313   -1.327780
     24          1           0        2.945615   -1.427912   -1.237235
     25          1           0        2.055387    0.085903   -1.106926
     26          1           0        4.614213   -0.588378    0.426283
     27          1           0        3.724139    0.924450    0.555591
     28          1           0        4.140639    1.383848   -1.884113
     29          1           0        5.035770   -0.137576   -2.014156
     30          1           0        5.667795    1.178009   -1.009623
     31          6           0        1.908467   -1.174416    0.635550
     32          6           0        0.624460   -1.894547    0.222369
     33          6           0       -0.150687   -2.452656    1.416294
     34          1           0        2.547487   -1.871246    1.195440
     35          1           0        1.657259   -0.357431    1.325749
     36          1           0        0.878734   -2.709792   -0.467076
     37          1           0       -0.011340   -1.196964   -0.337769
     38          1           0       -0.432897   -1.647767    2.102671
     39          1           0        0.462234   -3.169190    1.972627
     40          1           0       -1.064922   -2.963352    1.098137
 ---------------------------------------------------------------------

 SCF Done:  E(RHF) =  -470.729759270     A.U. after   11 cycles
 E2 =    -0.1587768244D+01 EUMP2 =    -0.47231752751411D+03

 The electronic state is 1-A.
 Alpha  occ. eigenvalues --  -11.21653 -11.21626 -11.21577 -11.21450 -11.21372
 Alpha  occ. eigenvalues --  -11.21365 -11.21330 -11.21214 -11.21161 -11.21097
 Alpha  occ. eigenvalues --  -11.21057 -11.21038  -1.08597  -1.08275  -1.03616
 Alpha  occ. eigenvalues --   -1.03451  -0.96086  -0.95896  -0.87080  -0.86934
 Alpha  occ. eigenvalues --   -0.79706  -0.79546  -0.78471  -0.78098  -0.65157
 Alpha  occ. eigenvalues --   -0.65020  -0.61106  -0.60835  -0.59405  -0.59271
 Alpha  occ. eigenvalues --   -0.57755  -0.57491  -0.55356  -0.55190  -0.52739
 Alpha  occ. eigenvalues --   -0.52628  -0.52472  -0.52351  -0.50089  -0.49824
 Alpha  occ. eigenvalues --   -0.48027  -0.47876  -0.46965  -0.46675  -0.46177
 Alpha  occ. eigenvalues --   -0.45936  -0.45308  -0.44867  -0.43834  -0.43700
 Alpha virt. eigenvalues --    0.20564   0.22115   0.23590   0.24294   0.24633
 Alpha virt. eigenvalues --    0.26171   0.26702   0.28282   0.29024   0.29599
 Alpha virt. eigenvalues --    0.30435   0.31121   0.31611   0.31889   0.32524

 Mulliken charges:
               1
     1  C   -0.307928
     2  C   -0.298333
     3  C   -0.475912
     4  H    0.150494
     5  H    0.158530
     6  H    0.151781
     7  H    0.151931
     8  H    0.155105
     9  H    0.155260
    10  H    0.160469
    11  C   -0.296116
    12  C   -0.310437
    13  C   -0.476140
    14  H    0.149248
    15  H    0.149545
    16  H    0.156614
    17  H    0.157113
    18  H    0.155591
    19  H    0.155577
    20  H    0.160117
    21  C   -0.301221
    22  C   -0.299737
    23  C   -0.475676
    24  H    0.149609
    25  H    0.151014
    26  H    0.152097
    27  H    0.151612
    28  H    0.154900
    29  H    0.155161
    30  H    0.160181
    31  C   -0.300715
    32  C   -0.308783
    33  C   -0.478438
    34  H    0.149010
    35  H    0.153419
    36  H    0.151260
    37  H    0.164373
    38  H    0.153847
    39  H    0.155679
    40  H    0.159901
 Sum of Mulliken charges =  -0.00000

 Dipole moment (field-independent basis, Debye):
    X=             -0.0539    Y=              0.0240    Z=             -0.0058  Tot=              0.0593
 Quadrupole moment (field-independent basis, Debye-Ang):
   XX=            -85.2918   YY=            -85.1998   ZZ=            -84.5664
   XY=             -1.1111   XZ=              0.0469   YZ=             -0.0970

 Normal termination of Gaussian 16 at Wed May  5 18:11:22 2021.
