 Gaussian 16, Revision A.03,
 Gaussian 16:  EM64L-G16RevA.03 25-Dec-2016

 -------------
 #p 6-31g* mp2
 -------------

 ------------------------------------------------------
 Input file generated by CHIRIPA (05-May-2021 14:51:08)
 ------------------------------------------------------
 Symbolic Z-matrix:
 Charge =  0 Multiplicity = 1

                         Standard orientation:
 ---------------------------------------------------------------------
 Center     Atomic      Atomic             Coordinates (Angstroms)
 Number     Number       Type             X           Y           Z
 ---------------------------------------------------------------------
      1          6           0       -2.136935    1.703935    0.118219
      2          6           0       -0.643533    1.940118    0.346152
      3          6           0       -0.318415    3.398516    0.670448
      4          1           0       -2.482875    2.349111   -0.700938
      5          1           0       -2.691087    2.013400    1.015182
      6          1           0       -0.092239    1.629008   -0.550454
      7          1           0       -0.301067    1.294165    1.164735
      8          1           0       -0.842646    3.717668    1.577049
      9          1           0       -0.632631    4.054413   -0.147885
     10          1           0        0.754482    3.544835    0.829640
     11          6           0       -2.477747    0.250723   -0.206975
     12          6           0       -3.971149    0.014540   -0.434909
     13          6           0       -4.296266   -1.443858   -0.759204
     14          1           0       -1.923595   -0.058742   -1.103938
     15          1           0       -2.131807   -0.394453    0.612182
     16          1           0       -4.313614    0.660493   -1.253491
     17          1           0       -4.522442    0.325650    0.461697
     18          1           0       -3.982050   -2.099755    0.059128
     19          1           0       -3.772036   -1.763010   -1.665806
     20          1           0       -5.369164   -1.590177   -0.918397
     21          6           0        1.566206   -1.068098    0.205348
     22          6           0        1.181988   -2.519415    0.495251
     23          6           0       -0.303888   -2.684881    0.815544
     24          1           0        1.305094   -0.446132    1.072484
     25          1           0        0.965206   -0.698245   -0.636914
     26          1           0        1.784516   -2.886857    1.335823
     27          1           0        1.444220   -3.138029   -0.372600
     28          1           0       -0.919102   -2.344535   -0.023668
     29          1           0       -0.576872   -2.091937    1.694463
     30          1           0       -0.556636   -3.730042    1.019549
     31          6           0        3.048477   -0.886559   -0.116591
     32          6           0        3.432694    0.564756   -0.406495
     33          6           0        4.918569    0.730223   -0.726788
     34          1           0        3.649475   -1.256413    0.725670
     35          1           0        3.309589   -1.508525   -0.983727
     36          1           0        3.170462    1.183370    0.461357
     37          1           0        2.830166    0.932200   -1.247066
     38          1           0        5.191554    0.137279   -1.605707
     39          1           0        5.533783    0.389877    0.112424
     40          1           0        5.171319    1.775384   -0.930792
 ---------------------------------------------------------------------

 SCF Done:  E(RHF) =  -470.730244177     A.U. after   11 cycles
 E2 =    -0.1586484732D+01 EUMP2 =    -0.47231672890958D+03

 The electronic state is 1-A.
 Alpha  occ. eigenvalues --  -11.21601 -11.21545 -11.21539 -11.21452 -11.21349
 Alpha  occ. eigenvalues --  -11.21298 -11.21243 -11.21221 -11.21070 -11.21040
 Alpha  occ. eigenvalues --  -11.20998 -11.20970  -1.08465  -1.08289  -1.03510
 Alpha  occ. eigenvalues --   -1.03459  -0.95987  -0.95885  -0.87044  -0.86871
 Alpha  occ. eigenvalues --   -0.79646  -0.79577  -0.78613  -0.77696  -0.65171
 Alpha  occ. eigenvalues --   -0.64874  -0.60929  -0.60852  -0.59362  -0.59298
 Alpha  occ. eigenvalues --   -0.57736  -0.57363  -0.55285  -0.55173  -0.52670
 Alpha  occ. eigenvalues --   -0.52659  -0.52596  -0.52108  -0.49969  -0.49801
 Alpha  occ. eigenvalues --   -0.48087  -0.47889  -0.46756  -0.46585  -0.46335
 Alpha  occ. eigenvalues --   -0.45930  -0.45175  -0.44677  -0.43744  -0.43684
 Alpha virt. eigenvalues --    0.21283   0.22511   0.23336   0.23787   0.24402
 Alpha virt. eigenvalues --    0.25718   0.26914   0.27885   0.28478   0.30298
 Alpha virt. eigenvalues --    0.30346   0.30919   0.31452   0.31860   0.32419

 Mulliken charges:
               1
     1  C   -0.297707
     2  C   -0.302071
     3  C   -0.476117
     4  H    0.148536
     5  H    0.148580
     6  H    0.154468
     7  H    0.154196
     8  H    0.154360
     9  H    0.154686
    10  H    0.160189
    11  C   -0.305057
    12  C   -0.298730
    13  C   -0.477437
    14  H    0.147099
    15  H    0.159813
    16  H    0.151267
    17  H    0.151586
    18  H    0.157231
    19  H    0.154231
    20  H    0.160232
    21  C   -0.301603
    22  C   -0.299277
    23  C   -0.480931
    24  H    0.152763
    25  H    0.152555
    26  H    0.150986
    27  H    0.151231
    28  H    0.163907
    29  H    0.152743
    30  H    0.159478
    31  C   -0.297988
    32  C   -0.300627
    33  C   -0.475688
    34  H    0.149072
    35  H    0.149100
    36  H    0.152462
    37  H    0.151894
    38  H    0.155161
    39  H    0.155233
    40  H    0.160173
 Sum of Mulliken charges =  -0.00000

 Dipole moment (field-independent basis, Debye):
    X=              0.0023    Y=             -0.0226    Z=              0.0073  Tot=              0.0239
 Quadrupole moment (field-independent basis, Debye-Ang):
   XX=            -86.1797   YY=            -86.1223   ZZ=            -82.9425
   XY=             -0.4989   XZ=              0.1743   YZ=             -0.1988

 Normal termination of Gaussian 16 at Wed May  5 15:06:28 2021.
