 Gaussian 16, Revision A.03,
 Gaussian 16:  EM64L-G16RevA.03 25-Dec-2016

 -------------
 #p 6-31g* mp2
 -------------

 ------------------------------------------------------
 Input file generated by CHIRIPA (05-May-2021 14:57:26)
 ------------------------------------------------------
 Symbolic Z-matrix:
 Charge =  0 Multiplicity = 1

                         Standard orientation:
 ---------------------------------------------------------------------
 Center     Atomic      Atomic             Coordinates (Angstroms)
 Number     Number       Type             X           Y           Z
 ---------------------------------------------------------------------
      1          6           0       -2.606993   -1.660421    1.037066
      2          6           0       -2.263020   -0.869653   -0.064247
      3          6           0       -3.179537    0.040935   -0.598450
      4          6           0       -4.436840    0.135268   -0.003824
      5          6           0       -4.809309   -0.638716    1.094131
      6          6           0       -3.876801   -1.542636    1.611727
      7          1           0       -1.888809   -2.365198    1.445597
      8          1           0       -1.277596   -0.958997   -0.512578
      9          1           0       -2.939505    0.665366   -1.450441
     10          1           0       -5.799268   -0.527220    1.519534
     11          1           0       -4.146687   -2.155473    2.467085
     12          7           0       -5.415580    1.095737   -0.560570
     13          8           0       -6.516817    1.159903   -0.018539
     14          8           0       -5.062948    1.766200   -1.528438
     15          6           0        6.096867    1.485732    0.865566
     16          6           0        6.412441    0.495745   -0.070843
     17          6           0        5.411402   -0.320505   -0.605821
     18          6           0        4.099452   -0.118380   -0.180116
     19          6           0        3.753366    0.859425    0.751235
     20          6           0        4.770674    1.664097    1.272897
     21          1           0        6.880818    2.115319    1.275978
     22          1           0        7.441514    0.354966   -0.389020
     23          1           0        5.627762   -1.094459   -1.332182
     24          1           0        2.718404    0.975965    1.049045
     25          1           0        4.522666    2.432145    1.999975
     26          7           0        3.031084   -0.976379   -0.739425
     27          8           0        1.882965   -0.778217   -0.348029
     28          8           0        3.362046   -1.830795   -1.558616
 ---------------------------------------------------------------------

 SCF Done:  E(RHF) =  -868.340284721     A.U. after   16 cycles
 E2 =    -0.2598081893D+01 EUMP2 =    -0.87093836661426D+03

 The electronic state is 1-A.
 Alpha  occ. eigenvalues --  -20.61702 -20.61658 -20.60166 -20.60158 -15.86717
 Alpha  occ. eigenvalues --  -15.85208 -11.31813 -11.30404 -11.28355 -11.28337
 Alpha  occ. eigenvalues --  -11.28034 -11.27300 -11.27290 -11.26974 -11.26858
 Alpha  occ. eigenvalues --  -11.26567 -11.25974 -11.25676  -1.60743  -1.59244
 Alpha  occ. eigenvalues --   -1.40306  -1.38802  -1.19958  -1.18532  -1.09401
 Alpha  occ. eigenvalues --   -1.07948  -1.05320  -1.03888  -0.96282  -0.94822
 Alpha  occ. eigenvalues --   -0.86731  -0.85281  -0.83127  -0.81648  -0.78202
 Alpha  occ. eigenvalues --   -0.76727  -0.72957  -0.72044  -0.71430  -0.71061
 Alpha  occ. eigenvalues --   -0.70565  -0.69624  -0.65616  -0.65318  -0.64166
 Alpha  occ. eigenvalues --   -0.63830  -0.62671  -0.61215  -0.55826  -0.54367
 Alpha  occ. eigenvalues --   -0.53664  -0.53407  -0.52257  -0.51934  -0.49715
 Alpha  occ. eigenvalues --   -0.49667  -0.48197  -0.48167  -0.45770  -0.44245
 Alpha  occ. eigenvalues --   -0.37920  -0.36911  -0.36503  -0.35498
 Alpha virt. eigenvalues --    0.04315   0.05764   0.10747   0.12157   0.15866
 Alpha virt. eigenvalues --    0.17321   0.20905   0.22420   0.26850   0.27662
 Alpha virt. eigenvalues --    0.28451   0.29188   0.30511   0.31803   0.32194

 Mulliken charges:
               1
     1  C   -0.173328
     2  C   -0.227131
     3  C   -0.174103
     4  C    0.158182
     5  C   -0.173370
     6  C   -0.219008
     7  H    0.227876
     8  H    0.248755
     9  H    0.274525
    10  H    0.272332
    11  H    0.219986
    12  N    0.488074
    13  O   -0.463147
    14  O   -0.461916
    15  C   -0.169811
    16  C   -0.218529
    17  C   -0.170270
    18  C    0.157522
    19  C   -0.170763
    20  C   -0.218444
    21  H    0.227919
    22  H    0.225469
    23  H    0.276490
    24  H    0.274617
    25  H    0.225566
    26  N    0.492340
    27  O   -0.473353
    28  O   -0.456479
 Sum of Mulliken charges =  -0.00000

 Dipole moment (field-independent basis, Debye):
    X=              7.7867    Y=             -0.3843    Z=              3.8870  Tot=              8.7115
 Quadrupole moment (field-independent basis, Debye-Ang):
   XX=           -100.9552   YY=           -106.0677   ZZ=           -102.6254
   XY=             27.1652   XZ=             -5.8512   YZ=              0.1913

 Normal termination of Gaussian 16 at Thu May  6 02:01:48 2021.
