 Gaussian 16, Revision A.03,
 Gaussian 16:  EM64L-G16RevA.03 25-Dec-2016

 -------------
 #p 6-31g* mp2
 -------------

 ------------------------------------------------------
 Input file generated by CHIRIPA (05-May-2021 14:51:12)
 ------------------------------------------------------
 Symbolic Z-matrix:
 Charge =  0 Multiplicity = 1

                         Standard orientation:
 ---------------------------------------------------------------------
 Center     Atomic      Atomic             Coordinates (Angstroms)
 Number     Number       Type             X           Y           Z
 ---------------------------------------------------------------------
      1          6           0        3.992305    0.761187   -0.277465
      2          6           0        2.820587    1.687487    0.049687
      3          6           0        3.100721    3.146002   -0.313707
      4          1           0        4.886622    1.108635    0.257719
      5          1           0        4.221092    0.835462   -1.349629
      6          1           0        2.593184    1.610446    1.120653
      7          1           0        1.928909    1.337682   -0.486188
      8          1           0        3.306295    3.243548   -1.384606
      9          1           0        3.974344    3.517862    0.231364
     10          1           0        2.250042    3.790610   -0.071456
     11          6           0        3.727402   -0.700211    0.080123
     12          6           0        4.899120   -1.626512   -0.247030
     13          6           0        4.618986   -3.085026    0.116365
     14          1           0        3.498615   -0.774486    1.152286
     15          1           0        2.833085   -1.047659   -0.455062
     16          1           0        5.790798   -1.276706    0.288845
     17          1           0        5.126523   -1.549471   -1.317996
     18          1           0        3.745363   -3.456887   -0.428707
     19          1           0        4.413412   -3.182573    1.187264
     20          1           0        5.469665   -3.729635   -0.125886
     21          6           0       -3.148440    0.085079   -0.154247
     22          6           0       -2.168032    0.477538    0.951537
     23          6           0       -0.748937    0.705324    0.429926
     24          1           0       -2.787312   -0.826925   -0.648999
     25          1           0       -3.160436    0.872540   -0.920507
     26          1           0       -2.158922   -0.309781    1.716169
     27          1           0       -2.531636    1.388607    1.443841
     28          1           0       -0.736992    1.505204   -0.317503
     29          1           0       -0.362160   -0.202834   -0.043628
     30          1           0       -0.064607    0.984913    1.237007
     31          6           0       -4.571267   -0.146054    0.351590
     32          6           0       -5.551676   -0.538514   -0.754195
     33          6           0       -6.970770   -0.766299   -0.232583
     34          1           0       -4.559271   -0.933516    1.117850
     35          1           0       -4.932395    0.765950    0.846341
     36          1           0       -5.188071   -1.449583   -1.246498
     37          1           0       -5.560786    0.248805   -1.518826
     38          1           0       -7.357548    0.141859    0.240970
     39          1           0       -6.982715   -1.566179    0.514846
     40          1           0       -7.655102   -1.045889   -1.039665
 ---------------------------------------------------------------------

 SCF Done:  E(RHF) =  -470.732704100     A.U. after   11 cycles
 E2 =    -0.1583018502D+01 EUMP2 =    -0.47231572260216D+03

 The electronic state is 1-A.
 Alpha  occ. eigenvalues --  -11.21598 -11.21570 -11.21564 -11.21436 -11.21396
 Alpha  occ. eigenvalues --  -11.21345 -11.21336 -11.21276 -11.21069 -11.21054
 Alpha  occ. eigenvalues --  -11.21020 -11.20995  -1.08424  -1.08360  -1.03542
 Alpha  occ. eigenvalues --   -1.03442  -0.95984  -0.95910  -0.87036  -0.86903
 Alpha  occ. eigenvalues --   -0.79735  -0.79405  -0.78272  -0.78117  -0.65050
 Alpha  occ. eigenvalues --   -0.64999  -0.60925  -0.60860  -0.59471  -0.59172
 Alpha  occ. eigenvalues --   -0.57592  -0.57518  -0.55274  -0.55194  -0.52770
 Alpha  occ. eigenvalues --   -0.52566  -0.52406  -0.52317  -0.49926  -0.49853
 Alpha  occ. eigenvalues --   -0.47945  -0.47819  -0.46633  -0.46528  -0.45882
 Alpha  occ. eigenvalues --   -0.45703  -0.45690  -0.45526  -0.43776  -0.43635
 Alpha virt. eigenvalues --    0.22062   0.23017   0.23779   0.24680   0.25479
 Alpha virt. eigenvalues --    0.26425   0.26623   0.27645   0.27885   0.29375
 Alpha virt. eigenvalues --    0.30163   0.30818   0.31604   0.32039   0.32116

 Mulliken charges:
               1
     1  C   -0.297858
     2  C   -0.305654
     3  C   -0.475751
     4  H    0.148944
     5  H    0.148955
     6  H    0.150492
     7  H    0.163641
     8  H    0.154620
     9  H    0.154582
    10  H    0.159826
    11  C   -0.298510
    12  C   -0.299555
    13  C   -0.475610
    14  H    0.149216
    15  H    0.149747
    16  H    0.151921
    17  H    0.151830
    18  H    0.154898
    19  H    0.155084
    20  H    0.160149
    21  C   -0.298391
    22  C   -0.301152
    23  C   -0.477130
    24  H    0.149368
    25  H    0.149297
    26  H    0.151781
    27  H    0.151687
    28  H    0.154141
    29  H    0.154622
    30  H    0.164853
    31  C   -0.298208
    32  C   -0.299595
    33  C   -0.475693
    34  H    0.149527
    35  H    0.149616
    36  H    0.151869
    37  H    0.151862
    38  H    0.155171
    39  H    0.155187
    40  H    0.160220
 Sum of Mulliken charges =  -0.00000

 Dipole moment (field-independent basis, Debye):
    X=             -0.0143    Y=              0.0018    Z=              0.0012  Tot=              0.0145
 Quadrupole moment (field-independent basis, Debye-Ang):
   XX=            -86.0393   YY=            -85.1091   ZZ=            -83.9811
   XY=             -0.4715   XZ=              0.6477   YZ=              0.2651

 Normal termination of Gaussian 16 at Thu May  6 02:18:09 2021.
