 Gaussian 16, Revision A.03,
 Gaussian 16:  EM64L-G16RevA.03 25-Dec-2016

 -------------
 #p 6-31g* mp2
 -------------

 ------------------------------------------------------
 Input file generated by CHIRIPA (05-May-2021 14:51:12)
 ------------------------------------------------------
 Symbolic Z-matrix:
 Charge =  0 Multiplicity = 1

                         Standard orientation:
 ---------------------------------------------------------------------
 Center     Atomic      Atomic             Coordinates (Angstroms)
 Number     Number       Type             X           Y           Z
 ---------------------------------------------------------------------
      1          6           0        2.670814    0.019149    0.327418
      2          6           0        4.086921    0.595299    0.301414
      3          6           0        4.242163    1.823117    1.199276
      4          1           0        1.959885    0.796130    0.014650
      5          1           0        2.409259   -0.245989    1.361191
      6          1           0        4.346246    0.857988   -0.732202
      7          1           0        4.794582   -0.183201    0.614097
      8          1           0        4.009836    1.571759    2.239201
      9          1           0        3.558952    2.618864    0.885253
     10          1           0        5.262072    2.218734    1.165591
     11          6           0        2.499857   -1.208716   -0.565246
     12          6           0        1.083749   -1.784866   -0.539242
     13          6           0        0.928507   -3.012685   -1.437104
     14          1           0        2.761412   -0.943578   -1.599019
     15          1           0        3.210786   -1.985698   -0.252478
     16          1           0        0.376089   -1.006366   -0.851924
     17          1           0        0.824425   -2.047555    0.494374
     18          1           0        1.611718   -3.808431   -1.123081
     19          1           0        1.160835   -2.761326   -2.477029
     20          1           0       -0.091401   -3.408301   -1.403419
     21          6           0       -2.753811   -0.141772    0.006954
     22          6           0       -2.969811   -0.918658    1.306098
     23          6           0       -3.306069   -2.390704    1.065674
     24          1           0       -3.658304   -0.216372   -0.612137
     25          1           0       -1.943720   -0.615234   -0.564868
     26          1           0       -3.778324   -0.443051    1.875943
     27          1           0       -2.064770   -0.842038    1.922251
     28          1           0       -2.497639   -2.886109    0.518302
     29          1           0       -4.220928   -2.484855    0.471730
     30          1           0       -3.456448   -2.927205    2.007699
     31          6           0       -2.416860    1.331339    0.230874
     32          6           0       -2.200859    2.108225   -1.068270
     33          6           0       -1.864602    3.580271   -0.827846
     34          1           0       -3.226951    1.804801    0.802696
     35          1           0       -1.512367    1.405939    0.849965
     36          1           0       -3.105901    2.031606   -1.684424
     37          1           0       -1.392347    1.632618   -1.638116
     38          1           0       -0.949743    3.674422   -0.233902
     39          1           0       -2.673031    4.075676   -0.280474
     40          1           0       -1.714223    4.116773   -1.769872
 ---------------------------------------------------------------------

 SCF Done:  E(RHF) =  -470.733324892     A.U. after   11 cycles
 E2 =    -0.1583733185D+01 EUMP2 =    -0.47231705807674D+03

 The electronic state is 1-A.
 Alpha  occ. eigenvalues --  -11.21691 -11.21657 -11.21625 -11.21563 -11.21484
 Alpha  occ. eigenvalues --  -11.21425 -11.21369 -11.21291 -11.21159 -11.21115
 Alpha  occ. eigenvalues --  -11.21092 -11.21054  -1.08517  -1.08402  -1.03610
 Alpha  occ. eigenvalues --   -1.03514  -0.96050  -0.95967  -0.87068  -0.86981
 Alpha  occ. eigenvalues --   -0.79686  -0.79577  -0.78365  -0.78184  -0.65231
 Alpha  occ. eigenvalues --   -0.64968  -0.61005  -0.60932  -0.59426  -0.59319
 Alpha  occ. eigenvalues --   -0.57660  -0.57579  -0.55367  -0.55230  -0.52745
 Alpha  occ. eigenvalues --   -0.52667  -0.52487  -0.52383  -0.50019  -0.49895
 Alpha  occ. eigenvalues --   -0.48016  -0.47883  -0.46812  -0.46593  -0.46075
 Alpha  occ. eigenvalues --   -0.45821  -0.45707  -0.45331  -0.43856  -0.43767
 Alpha virt. eigenvalues --    0.19623   0.22023   0.23514   0.24664   0.25799
 Alpha virt. eigenvalues --    0.26252   0.26579   0.27403   0.28745   0.29796
 Alpha virt. eigenvalues --    0.30155   0.31126   0.31661   0.31905   0.32298

 Mulliken charges:
               1
     1  C   -0.298762
     2  C   -0.299696
     3  C   -0.475782
     4  H    0.149278
     5  H    0.149523
     6  H    0.152176
     7  H    0.152218
     8  H    0.155255
     9  H    0.155159
    10  H    0.160561
    11  C   -0.297706
    12  C   -0.306201
    13  C   -0.477651
    14  H    0.149796
    15  H    0.150094
    16  H    0.156743
    17  H    0.152544
    18  H    0.155967
    19  H    0.155668
    20  H    0.161430
    21  C   -0.304790
    22  C   -0.299155
    23  C   -0.477759
    24  H    0.149197
    25  H    0.156967
    26  H    0.151670
    27  H    0.152371
    28  H    0.156630
    29  H    0.155102
    30  H    0.160095
    31  C   -0.298878
    32  C   -0.300202
    33  C   -0.475675
    34  H    0.149565
    35  H    0.150529
    36  H    0.152239
    37  H    0.150861
    38  H    0.154936
    39  H    0.155527
    40  H    0.160156
 Sum of Mulliken charges =  -0.00000

 Dipole moment (field-independent basis, Debye):
    X=              0.0337    Y=             -0.0125    Z=             -0.0026  Tot=              0.0360
 Quadrupole moment (field-independent basis, Debye-Ang):
   XX=            -83.8308   YY=            -86.3353   ZZ=            -84.5304
   XY=             -0.9538   XZ=              0.0727   YZ=             -1.0068

 Normal termination of Gaussian 16 at Wed May  5 16:49:56 2021.
