 Gaussian 16, Revision A.03,
 Gaussian 16:  EM64L-G16RevA.03 25-Dec-2016

 -------------
 #p 6-31g* mp2
 -------------

 ------------------------------------------------------
 Input file generated by CHIRIPA (05-May-2021 14:57:24)
 ------------------------------------------------------
 Symbolic Z-matrix:
 Charge =  0 Multiplicity = 1

                         Standard orientation:
 ---------------------------------------------------------------------
 Center     Atomic      Atomic             Coordinates (Angstroms)
 Number     Number       Type             X           Y           Z
 ---------------------------------------------------------------------
      1          6           0       -1.777518   -2.669421    0.633708
      2          6           0       -2.389092   -1.875287    1.609336
      3          6           0       -2.846166   -0.591756    1.296000
      4          6           0       -2.674641   -0.131970   -0.008786
      5          6           0       -2.069306   -0.899184   -1.002890
      6          6           0       -1.619855   -2.179699   -0.666997
      7          1           0       -1.425413   -3.665328    0.885876
      8          1           0       -2.512871   -2.253010    2.620300
      9          1           0       -3.323149    0.044215    2.031831
     10          1           0       -1.959991   -0.495231   -2.002034
     11          1           0       -1.145267   -2.794214   -1.426723
     12          7           0       -3.154490    1.225250   -0.352441
     13          8           0       -2.991493    1.607172   -1.509249
     14          8           0       -3.684506    1.881419    0.541518
     15          6           0        1.760517    2.704161    0.343501
     16          6           0        1.010787    1.815050   -0.433613
     17          6           0        1.463745    0.511424   -0.657081
     18          6           0        2.676284    0.128611   -0.085687
     19          6           0        3.445999    0.991222    0.693244
     20          6           0        2.973591    2.290139    0.903463
     21          1           0        1.401093    3.715020    0.511951
     22          1           0        0.068334    2.133838   -0.869733
     23          1           0        0.903394   -0.197396   -1.254574
     24          1           0        4.381660    0.644504    1.114843
     25          1           0        3.557944    2.978486    1.507413
     26          7           0        3.166106   -1.248986   -0.315250
     27          8           0        4.237584   -1.561819    0.199250
     28          8           0        2.469276   -1.989831   -1.005333
 ---------------------------------------------------------------------

 SCF Done:  E(RHF) =  -868.340262060     A.U. after   16 cycles
 E2 =    -0.2601252589D+01 EUMP2 =    -0.87094151464923D+03

 The electronic state is 1-A.
 Alpha  occ. eigenvalues --  -20.61527 -20.61500 -20.61021 -20.60988 -15.86523
 Alpha  occ. eigenvalues --  -15.86048 -11.31612 -11.31150 -11.28121 -11.28099
 Alpha  occ. eigenvalues --  -11.27705 -11.27678 -11.27657 -11.27326 -11.27035
 Alpha  occ. eigenvalues --  -11.26969 -11.26654 -11.26517  -1.60584  -1.60080
 Alpha  occ. eigenvalues --   -1.40144  -1.39644  -1.19729  -1.19290  -1.09145
 Alpha  occ. eigenvalues --   -1.08721  -1.05088  -1.04645  -0.96041  -0.95607
 Alpha  occ. eigenvalues --   -0.86466  -0.86054  -0.82880  -0.82452  -0.78001
 Alpha  occ. eigenvalues --   -0.77532  -0.72738  -0.72282  -0.71910  -0.71395
 Alpha  occ. eigenvalues --   -0.70785  -0.70380  -0.65363  -0.65033  -0.64923
 Alpha  occ. eigenvalues --   -0.64620  -0.62450  -0.61983  -0.55504  -0.55137
 Alpha  occ. eigenvalues --   -0.53499  -0.53124  -0.52953  -0.52667  -0.49528
 Alpha  occ. eigenvalues --   -0.49471  -0.49044  -0.49000  -0.45590  -0.45109
 Alpha  occ. eigenvalues --   -0.37659  -0.37247  -0.36729  -0.36144
 Alpha virt. eigenvalues --    0.04445   0.04975   0.10925   0.11407   0.15973
 Alpha virt. eigenvalues --    0.16539   0.20729   0.21996   0.26112   0.27574
 Alpha virt. eigenvalues --    0.28267   0.29247   0.30455   0.31512   0.32534

 Mulliken charges:
               1
     1  C   -0.168813
     2  C   -0.217905
     3  C   -0.171079
     4  C    0.159410
     5  C   -0.185779
     6  C   -0.214483
     7  H    0.232651
     8  H    0.225656
     9  H    0.275272
    10  H    0.273304
    11  H    0.235399
    12  N    0.486250
    13  O   -0.465369
    14  O   -0.457079
    15  C   -0.170373
    16  C   -0.228535
    17  C   -0.168981
    18  C    0.156590
    19  C   -0.171738
    20  C   -0.219079
    21  H    0.230014
    22  H    0.236626
    23  H    0.269822
    24  H    0.274153
    25  H    0.223299
    26  N    0.488861
    27  O   -0.459905
    28  O   -0.468189
 Sum of Mulliken charges =  -0.00000

 Dipole moment (field-independent basis, Debye):
    X=             -0.1801    Y=             -0.0670    Z=              2.1778  Tot=              2.1863
 Quadrupole moment (field-independent basis, Debye-Ang):
   XX=           -120.5865   YY=           -102.2012   ZZ=            -99.7099
   XY=             26.7583   XZ=             -0.2677   YZ=              0.8296

 Normal termination of Gaussian 16 at Wed May  5 16:25:08 2021.
