 Gaussian 16, Revision A.03,
 Gaussian 16:  EM64L-G16RevA.03 25-Dec-2016

 -------------
 #p 6-31g* mp2
 -------------

 ------------------------------------------------------
 Input file generated by CHIRIPA (05-May-2021 14:55:23)
 ------------------------------------------------------
 Symbolic Z-matrix:
 Charge =  0 Multiplicity = 1

                         Standard orientation:
 ---------------------------------------------------------------------
 Center     Atomic      Atomic             Coordinates (Angstroms)
 Number     Number       Type             X           Y           Z
 ---------------------------------------------------------------------
      1          6           0        3.337927    2.578258    0.141604
      2          6           0        2.352673    1.736789    0.668600
      3          6           0        2.460286    0.348983    0.538360
      4          6           0        3.571405   -0.165676   -0.127848
      5          6           0        4.569623    0.646511   -0.663760
      6          6           0        4.441313    2.031397   -0.521724
      7          1           0        3.246291    3.655205    0.247360
      8          1           0        1.494679    2.158695    1.184242
      9          1           0        1.712170   -0.325563    0.936766
     10          1           0        5.413426    0.196510   -1.172596
     11          1           0        5.208008    2.682471   -0.932000
     12          7           0        3.696286   -1.633339   -0.271971
     13          8           0        4.684881   -2.061913   -0.863275
     14          8           0        2.803208   -2.327328    0.209098
     15          6           0       -4.998393    0.060526   -0.460835
     16          6           0       -6.486317    0.045948   -0.108905
     17          6           0       -7.380469    0.364008   -1.307707
     18          1           0       -4.733631    1.046721   -0.866132
     19          1           0       -4.811190   -0.667357   -1.262418
     20          1           0       -6.670421    0.772651    0.692732
     21          1           0       -6.747526   -0.940266    0.295780
     22          1           0       -7.226011   -0.366778   -2.108141
     23          1           0       -7.148468    1.355871   -1.708934
     24          1           0       -8.439962    0.348201   -1.033694
     25          6           0       -4.091713   -0.255630    0.727317
     26          6           0       -2.603789   -0.241051    0.375387
     27          6           0       -1.709637   -0.559112    1.574188
     28          1           0       -4.278916    0.472253    1.528900
     29          1           0       -4.356476   -1.241825    1.132614
     30          1           0       -2.342580    0.745162   -0.029299
     31          1           0       -2.419685   -0.967755   -0.426251
     32          1           0       -1.941638   -1.550975    1.975415
     33          1           0       -1.864095    0.171674    2.374623
     34          1           0       -0.650143   -0.543304    1.300175
 ---------------------------------------------------------------------

 SCF Done:  E(RHF) =  -669.535468788     A.U. after   15 cycles
 E2 =    -0.2090923044D+01 EUMP2 =    -0.67162639183218D+03

 The electronic state is 1-A.
 Alpha  occ. eigenvalues --  -20.60751 -20.60746 -15.85803 -11.31169 -11.27741
 Alpha  occ. eigenvalues --  -11.27729 -11.27486 -11.26761 -11.26746 -11.21912
 Alpha  occ. eigenvalues --  -11.21738 -11.21620 -11.21552 -11.21536 -11.21181
 Alpha  occ. eigenvalues --   -1.59826  -1.39379  -1.19344  -1.08739  -1.08650
 Alpha  occ. eigenvalues --   -1.04749  -1.03775  -0.96237  -0.95574  -0.87256
 Alpha  occ. eigenvalues --   -0.86146  -0.82405  -0.79833  -0.78447  -0.77454
 Alpha  occ. eigenvalues --   -0.72023  -0.71148  -0.70466  -0.65274  -0.64998
 Alpha  occ. eigenvalues --   -0.64760  -0.62146  -0.61162  -0.59604  -0.57840
 Alpha  occ. eigenvalues --   -0.55509  -0.55256  -0.53107  -0.53054  -0.52768
 Alpha  occ. eigenvalues --   -0.52584  -0.50160  -0.48781  -0.48777  -0.48151
 Alpha  occ. eigenvalues --   -0.46852  -0.45995  -0.45907  -0.44785  -0.44033
 Alpha  occ. eigenvalues --   -0.37327  -0.36349
 Alpha virt. eigenvalues --    0.05074   0.11293   0.16565   0.20099   0.22777
 Alpha virt. eigenvalues --    0.23804   0.25925   0.26446   0.27330   0.27822
 Alpha virt. eigenvalues --    0.28789   0.30384   0.31223   0.31515   0.31793

 Mulliken charges:
               1
     1  C   -0.170772
     2  C   -0.221543
     3  C   -0.181104
     4  C    0.160260
     5  C   -0.170308
     6  C   -0.218813
     7  H    0.225506
     8  H    0.224059
     9  H    0.287106
    10  H    0.275583
    11  H    0.223417
    12  N    0.487049
    13  O   -0.460463
    14  O   -0.460174
    15  C   -0.298462
    16  C   -0.299854
    17  C   -0.475836
    18  H    0.148586
    19  H    0.151394
    20  H    0.151404
    21  H    0.153015
    22  H    0.156091
    23  H    0.154675
    24  H    0.160720
    25  C   -0.299071
    26  C   -0.299172
    27  C   -0.480139
    28  H    0.148407
    29  H    0.152014
    30  H    0.148208
    31  H    0.157557
    32  H    0.163216
    33  H    0.152751
    34  H    0.154697
 Sum of Mulliken charges =  -0.00000

 Dipole moment (field-independent basis, Debye):
    X=             -0.5504    Y=              5.1135    Z=              0.4898  Tot=              5.1663
 Quadrupole moment (field-independent basis, Debye-Ang):
   XX=            -94.6048   YY=            -95.9674   ZZ=            -94.9315
   XY=             19.8231   XZ=             -1.1940   YZ=             -0.7530

 Normal termination of Gaussian 16 at Thu May  6 09:26:53 2021.
