 Gaussian 16, Revision A.03,
 Gaussian 16:  EM64L-G16RevA.03 25-Dec-2016

 -------------
 #p 6-31g* mp2
 -------------

 ------------------------------------------------------
 Input file generated by CHIRIPA (05-May-2021 14:57:22)
 ------------------------------------------------------
 Symbolic Z-matrix:
 Charge =  0 Multiplicity = 1

                         Standard orientation:
 ---------------------------------------------------------------------
 Center     Atomic      Atomic             Coordinates (Angstroms)
 Number     Number       Type             X           Y           Z
 ---------------------------------------------------------------------
      1          6           0       -1.077207   -0.741814   -1.180570
      2          6           0       -2.130680   -1.661286   -1.144706
      3          6           0       -3.348618   -1.322670   -0.547618
      4          6           0       -3.479074   -0.050141    0.006404
      5          6           0       -2.448093    0.887925   -0.013541
      6          6           0       -1.238990    0.527619   -0.615869
      7          1           0       -0.134515   -1.013283   -1.646437
      8          1           0       -2.007879   -2.647862   -1.582464
      9          1           0       -4.180611   -2.015106   -0.505924
     10          1           0       -2.600458    1.863829    0.431222
     11          1           0       -0.422571    1.243726   -0.642262
     12          7           0       -4.763774    0.319817    0.641288
     13          8           0       -4.853420    1.447303    1.122305
     14          8           0       -5.656751   -0.524700    0.645871
     15          6           0        3.695303   -2.248615    0.882099
     16          6           0        3.952095   -1.170224    1.735124
     17          6           0        3.718688    0.141466    1.311403
     18          6           0        3.225967    0.339245    0.022451
     19          6           0        2.960195   -0.714352   -0.850814
     20          6           0        3.201044   -2.017644   -0.405876
     21          1           0        3.879510   -3.264306    1.219497
     22          1           0        4.335969   -1.346607    2.735912
     23          1           0        3.908733    0.994700    1.951162
     24          1           0        2.577803   -0.507004   -1.842882
     25          1           0        3.000698   -2.853210   -1.070508
     26          7           0        2.974931    1.723427   -0.437354
     27          8           0        2.540612    1.871059   -1.577621
     28          8           0        3.217240    2.634507    0.351224
 ---------------------------------------------------------------------

 SCF Done:  E(RHF) =  -868.338366170     A.U. after   16 cycles
 E2 =    -0.2600498928D+01 EUMP2 =    -0.87093886509825D+03

 The electronic state is 1-A.
 Alpha  occ. eigenvalues --  -20.61947 -20.61913 -20.60592 -20.60580 -15.86952
 Alpha  occ. eigenvalues --  -15.85639 -11.32230 -11.30984 -11.28851 -11.28706
 Alpha  occ. eigenvalues --  -11.28431 -11.27800 -11.27683 -11.27580 -11.27476
 Alpha  occ. eigenvalues --  -11.27317 -11.26638 -11.26431  -1.61000  -1.59665
 Alpha  occ. eigenvalues --   -1.40554  -1.39218  -1.20377  -1.19149  -1.09775
 Alpha  occ. eigenvalues --   -1.08560  -1.05769  -1.04535  -0.96632  -0.95400
 Alpha  occ. eigenvalues --   -0.87163  -0.85939  -0.83466  -0.82222  -0.78546
 Alpha  occ. eigenvalues --   -0.77262  -0.73158  -0.72333  -0.71857  -0.71477
 Alpha  occ. eigenvalues --   -0.70987  -0.70292  -0.66024  -0.65753  -0.64801
 Alpha  occ. eigenvalues --   -0.64522  -0.63120  -0.61868  -0.56231  -0.55135
 Alpha  occ. eigenvalues --   -0.54052  -0.53833  -0.52879  -0.52616  -0.49945
 Alpha  occ. eigenvalues --   -0.49907  -0.48617  -0.48613  -0.45954  -0.44628
 Alpha  occ. eigenvalues --   -0.38320  -0.37428  -0.37073  -0.36133
 Alpha virt. eigenvalues --    0.03929   0.05257   0.10213   0.11518   0.15443
 Alpha virt. eigenvalues --    0.16755   0.19588   0.21835   0.25387   0.26909
 Alpha virt. eigenvalues --    0.27515   0.29147   0.30428   0.30754   0.32423

 Mulliken charges:
               1
     1  C   -0.169299
     2  C   -0.219365
     3  C   -0.171790
     4  C    0.158576
     5  C   -0.171580
     6  C   -0.223685
     7  H    0.218059
     8  H    0.219329
     9  H    0.274136
    10  H    0.277893
    11  H    0.235243
    12  N    0.487950
    13  O   -0.459460
    14  O   -0.461890
    15  C   -0.169247
    16  C   -0.217040
    17  C   -0.169563
    18  C    0.158498
    19  C   -0.178408
    20  C   -0.217928
    21  H    0.229440
    22  H    0.227977
    23  H    0.278789
    24  H    0.271366
    25  H    0.223669
    26  N    0.485832
    27  O   -0.464054
    28  O   -0.453450
 Sum of Mulliken charges =  -0.00000

 Dipole moment (field-independent basis, Debye):
    X=              5.7462    Y=             -6.0887    Z=             -0.3715  Tot=              8.3803
 Quadrupole moment (field-independent basis, Debye-Ang):
   XX=           -130.0451   YY=           -103.6564   ZZ=           -101.4990
   XY=             -9.1211   XZ=             15.8490   YZ=              3.2848

 Normal termination of Gaussian 16 at Thu May  6 11:13:46 2021.
