 Gaussian 16, Revision A.03,
 Gaussian 16:  EM64L-G16RevA.03 25-Dec-2016

 -------------
 #p 6-31g* mp2
 -------------

 ------------------------------------------------------
 Input file generated by CHIRIPA (05-May-2021 14:53:15)
 ------------------------------------------------------
 Symbolic Z-matrix:
 Charge =  0 Multiplicity = 1

                         Standard orientation:
 ---------------------------------------------------------------------
 Center     Atomic      Atomic             Coordinates (Angstroms)
 Number     Number       Type             X           Y           Z
 ---------------------------------------------------------------------
      1          6           0        2.292970    1.120343    0.557119
      2          6           0        1.899937    2.485624   -0.008138
      3          6           0        0.798035    3.166745    0.804069
      4          1           0        1.405205    0.473905    0.587745
      5          1           0        2.625741    1.243814    1.597029
      6          1           0        1.569317    2.359807   -1.047117
      7          1           0        2.788780    3.128824   -0.037601
      8          1           0        1.121504    3.321291    1.838518
      9          1           0       -0.104888    2.547904    0.823266
     10          1           0        0.532545    4.141223    0.382445
     11          6           0        3.393463    0.426967   -0.244051
     12          6           0        3.786496   -0.938315    0.321206
     13          6           0        4.888398   -1.619435   -0.491001
     14          1           0        3.060692    0.303495   -1.283961
     15          1           0        4.281228    1.073404   -0.274677
     16          1           0        2.897653   -1.581514    0.350669
     17          1           0        4.117116   -0.812497    1.360185
     18          1           0        5.791321   -1.000595   -0.510198
     19          1           0        4.564929   -1.773981   -1.525450
     20          1           0        5.153888   -2.593913   -0.069377
     21          6           0       -0.650510   -2.560212    0.148870
     22          6           0       -1.920639   -2.596171    0.733676
     23          6           0       -2.799238   -1.518228    0.589970
     24          6           0       -2.373117   -0.415339   -0.148507
     25          6           0       -1.114019   -0.349616   -0.743185
     26          6           0       -0.251956   -1.439026   -0.586398
     27          1           0        0.025584   -3.402037    0.265585
     28          1           0       -2.232846   -3.465587    1.305242
     29          1           0       -3.788145   -1.519688    1.032099
     30          1           0       -0.831089    0.530877   -1.307189
     31          1           0        0.733855   -1.408334   -1.041678
     32          7           0       -3.294498    0.731900   -0.307566
     33          8           0       -2.895198    1.691883   -0.963029
     34          8           0       -4.398530    0.649401    0.226237
 ---------------------------------------------------------------------

 SCF Done:  E(RHF) =  -669.534370761     A.U. after   15 cycles
 E2 =    -0.2094977032D+01 EUMP2 =    -0.67162934779265D+03

 The electronic state is 1-A.
 Alpha  occ. eigenvalues --  -20.60872 -20.60867 -15.85914 -11.31301 -11.27856
 Alpha  occ. eigenvalues --  -11.27848 -11.27591 -11.26873 -11.26848 -11.22421
 Alpha  occ. eigenvalues --  -11.22058 -11.21835 -11.21808 -11.21673 -11.20953
 Alpha  occ. eigenvalues --   -1.59938  -1.39491  -1.19477  -1.08992  -1.08845
 Alpha  occ. eigenvalues --   -1.04885  -1.03981  -0.96393  -0.95692  -0.87403
 Alpha  occ. eigenvalues --   -0.86274  -0.82532  -0.80078  -0.78747  -0.77569
 Alpha  occ. eigenvalues --   -0.72130  -0.71258  -0.70571  -0.65831  -0.65121
 Alpha  occ. eigenvalues --   -0.64795  -0.62162  -0.61386  -0.59792  -0.57992
 Alpha  occ. eigenvalues --   -0.55714  -0.55359  -0.53264  -0.53065  -0.52933
 Alpha  occ. eigenvalues --   -0.52769  -0.50356  -0.48893  -0.48884  -0.48362
 Alpha  occ. eigenvalues --   -0.47170  -0.46252  -0.46215  -0.44866  -0.44220
 Alpha  occ. eigenvalues --   -0.37439  -0.36363
 Alpha virt. eigenvalues --    0.04927   0.10977   0.16320   0.18808   0.22793
 Alpha virt. eigenvalues --    0.23317   0.25650   0.26375   0.27215   0.28584
 Alpha virt. eigenvalues --    0.29456   0.30626   0.31197   0.31567   0.31992

 Mulliken charges:
               1
     1  C   -0.309031
     2  C   -0.301120
     3  C   -0.476498
     4  H    0.155762
     5  H    0.151862
     6  H    0.147172
     7  H    0.153474
     8  H    0.154132
     9  H    0.159554
    10  H    0.165755
    11  C   -0.300301
    12  C   -0.301003
    13  C   -0.475812
    14  H    0.142345
    15  H    0.154810
    16  H    0.141685
    17  H    0.156752
    18  H    0.159427
    19  H    0.153003
    20  H    0.160683
    21  C   -0.172858
    22  C   -0.218170
    23  C   -0.170865
    24  C    0.158524
    25  C   -0.172944
    26  C   -0.221720
    27  H    0.226620
    28  H    0.224094
    29  H    0.276062
    30  H    0.278899
    31  H    0.231035
    32  N    0.488044
    33  O   -0.459955
    34  O   -0.459416
 Sum of Mulliken charges =  -0.00000

 Dipole moment (field-independent basis, Debye):
    X=              3.1888    Y=             -3.9779    Z=              0.6351  Tot=              5.1376
 Quadrupole moment (field-independent basis, Debye-Ang):
   XX=           -107.8815   YY=            -90.5676   ZZ=            -93.9780
   XY=             11.1151   XZ=             -3.0329   YZ=             -1.1692

 Normal termination of Gaussian 16 at Wed May  5 20:17:28 2021.
