 Gaussian 16, Revision A.03,
 Gaussian 16:  EM64L-G16RevA.03 25-Dec-2016

 -------------
 #p 6-31g* mp2
 -------------

 ------------------------------------------------------
 Input file generated by CHIRIPA (05-May-2021 14:55:18)
 ------------------------------------------------------
 Symbolic Z-matrix:
 Charge =  0 Multiplicity = 1

                         Standard orientation:
 ---------------------------------------------------------------------
 Center     Atomic      Atomic             Coordinates (Angstroms)
 Number     Number       Type             X           Y           Z
 ---------------------------------------------------------------------
      1          6           0        1.516026    0.189685    1.683394
      2          6           0        1.504399    0.744891    0.399598
      3          6           0        2.589646    0.562533   -0.462685
      4          6           0        3.674947   -0.183991   -0.006491
      5          6           0        3.716289   -0.749822    1.266857
      6          6           0        2.619987   -0.554587    2.112171
      7          1           0        0.668686    0.336346    2.346645
      8          1           0        0.648398    1.323363    0.063924
      9          1           0        2.606902    0.981179   -1.461612
     10          1           0        4.583824   -1.321612    1.573219
     11          1           0        2.631769   -0.986939    3.108654
     12          7           0        4.829701   -0.383861   -0.910369
     13          8           0        5.773838   -1.045653   -0.484606
     14          8           0        4.768795    0.125058   -2.027477
     15          6           0       -5.037463   -0.234269    0.077420
     16          6           0       -5.244299   -1.522559   -0.719770
     17          6           0       -6.402466   -2.367322   -0.187963
     18          1           0       -4.854924   -0.487677    1.130705
     19          1           0       -5.964012    0.355945    0.053975
     20          1           0       -4.317193   -2.109521   -0.695985
     21          1           0       -5.426177   -1.266063   -1.771314
     22          1           0       -7.340207   -1.803674   -0.227249
     23          1           0       -6.224922   -2.651924    0.854190
     24          1           0       -6.532579   -3.283493   -0.772395
     25          6           0       -3.883189    0.620957   -0.442165
     26          6           0       -3.676354    1.909248    0.355024
     27          6           0       -2.518186    2.754010   -0.176784
     28          1           0       -2.956640    0.030743   -0.418720
     29          1           0       -4.065728    0.874365   -1.495450
     30          1           0       -3.494475    1.652752    1.406568
     31          1           0       -4.603460    2.496209    0.331239
     32          1           0       -2.695730    3.038613   -1.218936
     33          1           0       -1.580444    2.190363   -0.137496
     34          1           0       -2.388073    3.670181    0.407649
 ---------------------------------------------------------------------

 SCF Done:  E(RHF) =  -669.535468387     A.U. after   15 cycles
 E2 =    -0.2090860682D+01 EUMP2 =    -0.67162632906857D+03

 The electronic state is 1-A.
 Alpha  occ. eigenvalues --  -20.60746 -20.60741 -15.85800 -11.31168 -11.27740
 Alpha  occ. eigenvalues --  -11.27731 -11.27485 -11.26759 -11.26734 -11.22475
 Alpha  occ. eigenvalues --  -11.22162 -11.22124 -11.22086 -11.21968 -11.21478
 Alpha  occ. eigenvalues --   -1.59822  -1.39375  -1.19342  -1.09121  -1.08738
 Alpha  occ. eigenvalues --   -1.04746  -1.04233  -0.96693  -0.95571  -0.87713
 Alpha  occ. eigenvalues --   -0.86147  -0.82404  -0.80301  -0.78902  -0.77451
 Alpha  occ. eigenvalues --   -0.72018  -0.71145  -0.70453  -0.65769  -0.64994
 Alpha  occ. eigenvalues --   -0.64769  -0.62143  -0.61598  -0.60063  -0.58283
 Alpha  occ. eigenvalues --   -0.56011  -0.55246  -0.53384  -0.53177  -0.53075
 Alpha  occ. eigenvalues --   -0.52785  -0.50632  -0.48787  -0.48773  -0.48598
 Alpha  occ. eigenvalues --   -0.47331  -0.46449  -0.46359  -0.44780  -0.44470
 Alpha  occ. eigenvalues --   -0.37327  -0.36348
 Alpha virt. eigenvalues --    0.05086   0.11295   0.16576   0.19380   0.22526
 Alpha virt. eigenvalues --    0.23736   0.25105   0.26266   0.27090   0.28223
 Alpha virt. eigenvalues --    0.28545   0.30025   0.31003   0.31414   0.31942

 Mulliken charges:
               1
     1  C   -0.173795
     2  C   -0.227145
     3  C   -0.173172
     4  C    0.159056
     5  C   -0.171243
     6  C   -0.218576
     7  H    0.225344
     8  H    0.236451
     9  H    0.276555
    10  H    0.275531
    11  H    0.223286
    12  N    0.487972
    13  O   -0.460593
    14  O   -0.460298
    15  C   -0.298519
    16  C   -0.300222
    17  C   -0.476031
    18  H    0.148742
    19  H    0.151255
    20  H    0.152251
    21  H    0.153419
    22  H    0.155998
    23  H    0.154982
    24  H    0.162074
    25  C   -0.298695
    26  C   -0.299608
    27  C   -0.480811
    28  H    0.146808
    29  H    0.152361
    30  H    0.149707
    31  H    0.156292
    32  H    0.160889
    33  H    0.145921
    34  H    0.163814
 Sum of Mulliken charges =  -0.00000

 Dipole moment (field-independent basis, Debye):
    X=             -4.2755    Y=              0.7178    Z=              3.1492  Tot=              5.3584
 Quadrupole moment (field-independent basis, Debye-Ang):
   XX=           -123.5791   YY=            -94.2497   ZZ=            -92.2813
   XY=              0.8703   XZ=             14.4548   YZ=             -2.9931

 Normal termination of Gaussian 16 at Wed May  5 22:05:51 2021.
