 Gaussian 16, Revision A.03,
 Gaussian 16:  EM64L-G16RevA.03 25-Dec-2016

 -------------
 #p 6-31g* mp2
 -------------

 ------------------------------------------------------
 Input file generated by CHIRIPA (05-May-2021 14:57:24)
 ------------------------------------------------------
 Symbolic Z-matrix:
 Charge =  0 Multiplicity = 1

                         Standard orientation:
 ---------------------------------------------------------------------
 Center     Atomic      Atomic             Coordinates (Angstroms)
 Number     Number       Type             X           Y           Z
 ---------------------------------------------------------------------
      1          6           0       -4.738583   -1.746620   -0.263570
      2          6           0       -5.316403   -0.618451    0.327936
      3          6           0       -4.579439    0.559890    0.479408
      4          6           0       -3.261279    0.575011    0.026068
      5          6           0       -2.657479   -0.532507   -0.567328
      6          6           0       -3.413301   -1.700129   -0.708530
      7          1           0       -5.318399   -2.657821   -0.377249
      8          1           0       -6.345426   -0.651671    0.674423
      9          1           0       -5.001970    1.447844    0.933746
     10          1           0       -1.629504   -0.468986   -0.902963
     11          1           0       -2.961959   -2.574754   -1.168277
     12          7           0       -2.471106    1.816795    0.180989
     13          8           0       -1.311658    1.804446   -0.226645
     14          8           0       -3.026178    2.778939    0.707116
     15          6           0        1.491855   -2.020796    0.181856
     16          6           0        1.536104   -1.119750   -0.887106
     17          6           0        2.583890   -0.200872   -0.998257
     18          6           0        3.575160   -0.210791   -0.018168
     19          6           0        3.559037   -1.095950    1.058643
     20          6           0        2.501683   -2.006047    1.149613
     21          1           0        0.674195   -2.731193    0.260362
     22          1           0        0.753232   -1.128929   -1.640148
     23          1           0        2.642819    0.507785   -1.815418
     24          1           0        4.353909   -1.062811    1.793829
     25          1           0        2.469904   -2.704648    1.980872
     26          7           0        4.689469    0.757335   -0.125157
     27          8           0        5.550565    0.728343    0.751376
     28          8           0        4.680669    1.526815   -1.083520
 ---------------------------------------------------------------------

 SCF Done:  E(RHF) =  -868.336523859     A.U. after   16 cycles
 E2 =    -0.2600415644D+01 EUMP2 =    -0.87093693950307D+03

 The electronic state is 1-A.
 Alpha  occ. eigenvalues --  -20.61252 -20.61243 -20.60469 -20.60455 -15.86310
 Alpha  occ. eigenvalues --  -15.85523 -11.31820 -11.30974 -11.28486 -11.28353
 Alpha  occ. eigenvalues --  -11.28146 -11.27593 -11.27574 -11.27509 -11.27474
 Alpha  occ. eigenvalues --  -11.27383 -11.26731 -11.26646  -1.60321  -1.59535
 Alpha  occ. eigenvalues --   -1.39873  -1.39087  -1.20002  -1.19188  -1.09360
 Alpha  occ. eigenvalues --   -1.08598  -1.05442  -1.04613  -0.96177  -0.95404
 Alpha  occ. eigenvalues --   -0.86827  -0.86039  -0.83016  -0.82235  -0.78056
 Alpha  occ. eigenvalues --   -0.77240  -0.72524  -0.71749  -0.71648  -0.71113
 Alpha  occ. eigenvalues --   -0.70852  -0.70359  -0.65656  -0.65475  -0.64869
 Alpha  occ. eigenvalues --   -0.64681  -0.62808  -0.61944  -0.55908  -0.55209
 Alpha  occ. eigenvalues --   -0.53741  -0.53567  -0.52897  -0.52723  -0.49291
 Alpha  occ. eigenvalues --   -0.49272  -0.48516  -0.48487  -0.45246  -0.44473
 Alpha  occ. eigenvalues --   -0.37966  -0.37228  -0.37027  -0.36172
 Alpha virt. eigenvalues --    0.04502   0.05318   0.10593   0.11319   0.15963
 Alpha virt. eigenvalues --    0.16733   0.19018   0.22054   0.25208   0.26915
 Alpha virt. eigenvalues --    0.28090   0.29644   0.29840   0.31061   0.32184

 Mulliken charges:
               1
     1  C   -0.170341
     2  C   -0.218416
     3  C   -0.169367
     4  C    0.158794
     5  C   -0.175112
     6  C   -0.220965
     7  H    0.227078
     8  H    0.225884
     9  H    0.278092
    10  H    0.273429
    11  H    0.219103
    12  N    0.487303
    13  O   -0.460392
    14  O   -0.457224
    15  C   -0.170105
    16  C   -0.214510
    17  C   -0.163311
    18  C    0.158759
    19  C   -0.169386
    20  C   -0.218091
    21  H    0.218160
    22  H    0.214243
    23  H    0.279332
    24  H    0.275851
    25  H    0.222228
    26  N    0.488317
    27  O   -0.461204
    28  O   -0.458151
 Sum of Mulliken charges =  -0.00000

 Dipole moment (field-independent basis, Debye):
    X=             -6.7352    Y=             -7.5559    Z=             -0.0951  Tot=             10.1224
 Quadrupole moment (field-independent basis, Debye-Ang):
   XX=           -110.4075   YY=           -108.1066   ZZ=           -101.3885
   XY=             -1.3792   XZ=              2.8382   YZ=             -1.2315

 Normal termination of Gaussian 16 at Fri May  7 00:23:13 2021.
