 Gaussian 16, Revision A.03,
 Gaussian 16:  EM64L-G16RevA.03 25-Dec-2016

 -------------
 #p 6-31g* mp2
 -------------

 ------------------------------------------------------
 Input file generated by CHIRIPA (05-May-2021 14:57:25)
 ------------------------------------------------------
 Symbolic Z-matrix:
 Charge =  0 Multiplicity = 1

                         Standard orientation:
 ---------------------------------------------------------------------
 Center     Atomic      Atomic             Coordinates (Angstroms)
 Number     Number       Type             X           Y           Z
 ---------------------------------------------------------------------
      1          6           0       -2.219537    2.059391    0.174306
      2          6           0       -2.966748    1.798824   -0.979081
      3          6           0       -3.830016    0.700445   -1.032738
      4          6           0       -3.921958   -0.120288    0.090310
      5          6           0       -3.190683    0.112977    1.253974
      6          6           0       -2.333688    1.217121    1.285194
      7          1           0       -1.551367    2.914877    0.207274
      8          1           0       -2.880113    2.451236   -1.843313
      9          1           0       -4.420121    0.475477   -1.912842
     10          1           0       -3.298282   -0.555353    2.099654
     11          1           0       -1.754614    1.417044    2.182272
     12          7           0       -4.832540   -1.286144    0.045382
     13          8           0       -4.895612   -1.994036    1.048152
     14          8           0       -5.465941   -1.469974   -0.991752
     15          6           0        1.589993    1.177505   -0.308347
     16          6           0        2.738985    1.844287    0.129533
     17          6           0        3.953325    1.162074    0.250002
     18          6           0        3.982820   -0.192644   -0.077351
     19          6           0        2.855248   -0.884818   -0.516403
     20          6           0        1.651682   -0.182522   -0.629352
     21          1           0        0.650849    1.715264   -0.399009
     22          1           0        2.694033    2.900472    0.379526
     23          1           0        4.858012    1.653707    0.586540
     24          1           0        2.931214   -1.937978   -0.758272
     25          1           0        0.760949   -0.702928   -0.969673
     26          7           0        5.262684   -0.925501    0.046203
     27          8           0        5.262366   -2.118755   -0.248389
     28          8           0        6.241926   -0.292787    0.435297
 ---------------------------------------------------------------------

 SCF Done:  E(RHF) =  -868.336835390     A.U. after   16 cycles
 E2 =    -0.2600724667D+01 EUMP2 =    -0.87093756005753D+03

 The electronic state is 1-A.
 Alpha  occ. eigenvalues --  -20.61542 -20.61536 -20.61070 -20.61062 -15.86599
 Alpha  occ. eigenvalues --  -15.86125 -11.32194 -11.31582 -11.28737 -11.28721
 Alpha  occ. eigenvalues --  -11.28624 -11.28175 -11.28125 -11.27940 -11.27871
 Alpha  occ. eigenvalues --  -11.27847 -11.27256 -11.27159  -1.60612  -1.60142
 Alpha  occ. eigenvalues --   -1.40158  -1.39693  -1.20388  -1.19768  -1.09775
 Alpha  occ. eigenvalues --   -1.09157  -1.05790  -1.05178  -0.96567  -0.95972
 Alpha  occ. eigenvalues --   -0.87187  -0.86577  -0.83367  -0.82798  -0.78346
 Alpha  occ. eigenvalues --   -0.77820  -0.72810  -0.72340  -0.71941  -0.71662
 Alpha  occ. eigenvalues --   -0.71467  -0.70815  -0.66030  -0.65775  -0.65421
 Alpha  occ. eigenvalues --   -0.65185  -0.63101  -0.62515  -0.56502  -0.55666
 Alpha  occ. eigenvalues --   -0.54085  -0.53867  -0.53510  -0.53268  -0.49588
 Alpha  occ. eigenvalues --   -0.49553  -0.49108  -0.49090  -0.45511  -0.45077
 Alpha  occ. eigenvalues --   -0.38449  -0.37786  -0.37363  -0.36779
 Alpha virt. eigenvalues --    0.04083   0.04703   0.10228   0.10876   0.15346
 Alpha virt. eigenvalues --    0.16166   0.19423   0.21689   0.25787   0.26430
 Alpha virt. eigenvalues --    0.26942   0.29102   0.29988   0.31664   0.31823

 Mulliken charges:
               1
     1  C   -0.181233
     2  C   -0.219877
     3  C   -0.171397
     4  C    0.159502
     5  C   -0.171423
     6  C   -0.217431
     7  H    0.221586
     8  H    0.226309
     9  H    0.278910
    10  H    0.279563
    11  H    0.227666
    12  N    0.487678
    13  O   -0.457163
    14  O   -0.457713
    15  C   -0.173987
    16  C   -0.220575
    17  C   -0.170392
    18  C    0.158762
    19  C   -0.170563
    20  C   -0.221150
    21  H    0.221556
    22  H    0.220394
    23  H    0.276303
    24  H    0.277863
    25  H    0.227470
    26  N    0.487903
    27  O   -0.458635
    28  O   -0.459924
 Sum of Mulliken charges =  -0.00000

 Dipole moment (field-independent basis, Debye):
    X=             -1.5214    Y=              6.4787    Z=             -0.2518  Tot=              6.6597
 Quadrupole moment (field-independent basis, Debye-Ang):
   XX=           -164.5337   YY=           -104.0395   ZZ=           -100.5120
   XY=             -3.5836   XZ=              0.4336   YZ=              0.4734

 Normal termination of Gaussian 16 at Wed May  5 16:27:02 2021.
