 Gaussian 16, Revision A.03,
 Gaussian 16:  EM64L-G16RevA.03 25-Dec-2016

 -------------
 #p 6-31g* mp2
 -------------

 ------------------------------------------------------
 Input file generated by CHIRIPA (05-May-2021 14:51:08)
 ------------------------------------------------------
 Symbolic Z-matrix:
 Charge =  0 Multiplicity = 1

                         Standard orientation:
 ---------------------------------------------------------------------
 Center     Atomic      Atomic             Coordinates (Angstroms)
 Number     Number       Type             X           Y           Z
 ---------------------------------------------------------------------
      1          6           0       -2.967643    0.208118    0.322385
      2          6           0       -1.924934   -0.635017    1.057141
      3          6           0       -0.594506    0.096323    1.238517
      4          1           0       -2.569811    0.497559   -0.659907
      5          1           0       -3.133713    1.140576    0.879465
      6          1           0       -1.761897   -1.566227    0.499573
      7          1           0       -2.325370   -0.922645    2.037721
      8          1           0       -0.736210    1.016750    1.814133
      9          1           0       -0.169536    0.369512    0.267245
     10          1           0        0.136281   -0.524598    1.766029
     11          6           0       -4.303015   -0.509375    0.133405
     12          6           0       -5.345724    0.333759   -0.601351
     13          6           0       -6.676153   -0.397580   -0.782727
     14          1           0       -4.136945   -1.441833   -0.423675
     15          1           0       -4.700847   -0.798817    1.115697
     16          1           0       -4.945288    0.621388   -1.581931
     17          1           0       -5.508761    1.264969   -0.043782
     18          1           0       -7.101122   -0.670770    0.188545
     19          1           0       -6.534448   -1.318008   -1.358343
     20          1           0       -7.406940    0.223340   -1.310239
     21          6           0        3.140291    0.713195   -0.375841
     22          6           0        3.648512    2.093527    0.041747
     23          6           0        2.647032    3.208593   -0.260676
     24          1           0        2.913528    0.722725   -1.450752
     25          1           0        2.193139    0.506905    0.141600
     26          1           0        4.595128    2.296570   -0.475270
     27          1           0        3.874271    2.080654    1.115751
     28          1           0        1.704129    3.033173    0.267304
     29          1           0        2.429081    3.250315   -1.332757
     30          1           0        3.030617    4.186733    0.045860
     31          6           0        4.130368   -0.411938   -0.079949
     32          6           0        3.622146   -1.792269   -0.497537
     33          6           0        4.623626   -2.907335   -0.195114
     34          1           0        5.077519   -0.205648   -0.597390
     35          1           0        4.357130   -0.421468    0.994962
     36          1           0        3.396387   -1.779396   -1.571541
     37          1           0        2.675530   -1.995313    0.019480
     38          1           0        4.841577   -2.949058    0.876967
     39          1           0        5.566530   -2.731914   -0.723094
     40          1           0        4.240041   -3.885476   -0.501651
 ---------------------------------------------------------------------

 SCF Done:  E(RHF) =  -470.733045859     A.U. after   11 cycles
 E2 =    -0.1582984168D+01 EUMP2 =    -0.47231603002685D+03

 The electronic state is 1-A.
 Alpha  occ. eigenvalues --  -11.21655 -11.21617 -11.21563 -11.21518 -11.21434
 Alpha  occ. eigenvalues --  -11.21374 -11.21319 -11.21214 -11.21152 -11.21083
 Alpha  occ. eigenvalues --  -11.21045 -11.21001  -1.08466  -1.08355  -1.03575
 Alpha  occ. eigenvalues --   -1.03468  -0.96036  -0.95911  -0.87063  -0.86925
 Alpha  occ. eigenvalues --   -0.79670  -0.79515  -0.78296  -0.78143  -0.65120
 Alpha  occ. eigenvalues --   -0.64972  -0.60985  -0.60858  -0.59398  -0.59287
 Alpha  occ. eigenvalues --   -0.57633  -0.57533  -0.55393  -0.55143  -0.52758
 Alpha  occ. eigenvalues --   -0.52613  -0.52474  -0.52320  -0.50054  -0.49796
 Alpha  occ. eigenvalues --   -0.48029  -0.47800  -0.46745  -0.46539  -0.45904
 Alpha  occ. eigenvalues --   -0.45754  -0.45688  -0.45392  -0.43800  -0.43711
 Alpha virt. eigenvalues --    0.21622   0.22986   0.23892   0.24277   0.25889
 Alpha virt. eigenvalues --    0.26619   0.27132   0.27371   0.28018   0.29607
 Alpha virt. eigenvalues --    0.30322   0.31100   0.31809   0.31923   0.32286

 Mulliken charges:
               1
     1  C   -0.298784
     2  C   -0.299717
     3  C   -0.480827
     4  H    0.150260
     5  H    0.149602
     6  H    0.152394
     7  H    0.152030
     8  H    0.155390
     9  H    0.160112
    10  H    0.159989
    11  C   -0.298366
    12  C   -0.299690
    13  C   -0.475732
    14  H    0.149639
    15  H    0.149683
    16  H    0.152068
    17  H    0.151990
    18  H    0.155184
    19  H    0.155219
    20  H    0.160340
    21  C   -0.309200
    22  C   -0.298611
    23  C   -0.477162
    24  H    0.147897
    25  H    0.163182
    26  H    0.151342
    27  H    0.151586
    28  H    0.156766
    29  H    0.154548
    30  H    0.159898
    31  C   -0.297434
    32  C   -0.300234
    33  C   -0.475608
    34  H    0.149112
    35  H    0.149183
    36  H    0.151570
    37  H    0.152159
    38  H    0.155059
    39  H    0.155186
    40  H    0.159975
 Sum of Mulliken charges =  -0.00000

 Dipole moment (field-independent basis, Debye):
    X=             -0.0605    Y=             -0.0035    Z=              0.0134  Tot=              0.0621
 Quadrupole moment (field-independent basis, Debye-Ang):
   XX=            -86.1328   YY=            -85.7236   ZZ=            -83.1958
   XY=              0.0577   XZ=             -0.9370   YZ=              0.3081

 Normal termination of Gaussian 16 at Thu May  6 06:52:39 2021.
