 Gaussian 16, Revision A.03,
 Gaussian 16:  EM64L-G16RevA.03 25-Dec-2016

 -------------
 #p 6-31g* mp2
 -------------

 ------------------------------------------------------
 Input file generated by CHIRIPA (05-May-2021 14:55:19)
 ------------------------------------------------------
 Symbolic Z-matrix:
 Charge =  0 Multiplicity = 1

                         Standard orientation:
 ---------------------------------------------------------------------
 Center     Atomic      Atomic             Coordinates (Angstroms)
 Number     Number       Type             X           Y           Z
 ---------------------------------------------------------------------
      1          6           0       -5.185606    0.080458   -0.900534
      2          6           0       -4.767652   -1.177626   -0.454374
      3          6           0       -3.509864   -1.340580    0.133812
      4          6           0       -2.691945   -0.218879    0.260647
      5          6           0       -3.079852    1.047568   -0.174015
      6          6           0       -4.341859    1.187089   -0.759180
      7          1           0       -6.164325    0.197943   -1.356278
      8          1           0       -5.420815   -2.038820   -0.562857
      9          1           0       -3.161140   -2.303088    0.487914
     10          1           0       -2.406598    1.887399   -0.052230
     11          1           0       -4.663811    2.165335   -1.104762
     12          7           0       -1.358147   -0.378987    0.881734
     13          8           0       -0.656260    0.624978    0.981957
     14          8           0       -1.039860   -1.505414    1.256559
     15          6           0        3.843759   -0.451401    0.085327
     16          6           0        4.444080   -1.431061   -0.923568
     17          6           0        4.671684   -2.822768   -0.332686
     18          1           0        4.509874   -0.377277    0.955810
     19          1           0        2.890524   -0.854364    0.454596
     20          1           0        5.395223   -1.025717   -1.291858
     21          1           0        3.776553   -1.502716   -1.791835
     22          1           0        3.727378   -3.251479    0.018160
     23          1           0        5.355245   -2.771769    0.520979
     24          1           0        5.101360   -3.507013   -1.070959
     25          6           0        3.610375    0.944179   -0.490534
     26          6           0        3.010054    1.923839    0.518359
     27          6           0        2.782449    3.315546   -0.072521
     28          1           0        4.563609    1.347142   -0.859803
     29          1           0        2.944260    0.870054   -1.361017
     30          1           0        3.677580    1.995493    1.386628
     31          1           0        2.058910    1.518494    0.886650
     32          1           0        2.098888    3.264546   -0.926186
     33          1           0        3.726756    3.744256   -0.423368
     34          1           0        2.352772    3.999791    0.665752
 ---------------------------------------------------------------------

 SCF Done:  E(RHF) =  -669.536498049     A.U. after   15 cycles
 E2 =    -0.2091076350D+01 EUMP2 =    -0.67162757439865D+03

 The electronic state is 1-A.
 Alpha  occ. eigenvalues --  -20.61062 -20.61051 -15.86086 -11.31361 -11.27918
 Alpha  occ. eigenvalues --  -11.27914 -11.27648 -11.26915 -11.26905 -11.20647
 Alpha  occ. eigenvalues --  -11.20217 -11.20197 -11.20126 -11.20097 -11.20027
 Alpha  occ. eigenvalues --   -1.60116  -1.39672  -1.19525  -1.08938  -1.07246
 Alpha  occ. eigenvalues --   -1.04914  -1.02415  -0.95787  -0.94910  -0.86316
 Alpha  occ. eigenvalues --   -0.85932  -0.82623  -0.78474  -0.77680  -0.77033
 Alpha  occ. eigenvalues --   -0.72310  -0.71427  -0.70633  -0.65182  -0.64916
 Alpha  occ. eigenvalues --   -0.63863  -0.62261  -0.59801  -0.58280  -0.56509
 Alpha  occ. eigenvalues --   -0.55420  -0.54203  -0.53249  -0.53005  -0.51639
 Alpha  occ. eigenvalues --   -0.51336  -0.49123  -0.49059  -0.48824  -0.46797
 Alpha  occ. eigenvalues --   -0.45479  -0.45089  -0.44623  -0.44381  -0.42663
 Alpha  occ. eigenvalues --   -0.37502  -0.36513
 Alpha virt. eigenvalues --    0.04839   0.11143   0.16340   0.21269   0.24034
 Alpha virt. eigenvalues --    0.25334   0.27205   0.27750   0.28190   0.28815
 Alpha virt. eigenvalues --    0.29065   0.30864   0.32233   0.32562   0.32871

 Mulliken charges:
               1
     1  C   -0.170433
     2  C   -0.218623
     3  C   -0.170387
     4  C    0.157379
     5  C   -0.170839
     6  C   -0.218569
     7  H    0.226274
     8  H    0.224053
     9  H    0.275954
    10  H    0.276124
    11  H    0.224174
    12  N    0.492184
    13  O   -0.463670
    14  O   -0.459139
    15  C   -0.302049
    16  C   -0.298295
    17  C   -0.475771
    18  H    0.146663
    19  H    0.164206
    20  H    0.148044
    21  H    0.149294
    22  H    0.158751
    23  H    0.153724
    24  H    0.155825
    25  C   -0.295540
    26  C   -0.312972
    27  C   -0.473421
    28  H    0.143126
    29  H    0.146198
    30  H    0.146393
    31  H    0.183838
    32  H    0.150749
    33  H    0.149597
    34  H    0.157156
 Sum of Mulliken charges =  -0.00000

 Dipole moment (field-independent basis, Debye):
    X=             -5.0951    Y=              0.4553    Z=             -2.0531  Tot=              5.5120
 Quadrupole moment (field-independent basis, Debye-Ang):
   XX=            -70.3474   YY=            -91.9804   ZZ=            -96.8045
   XY=              0.6847   XZ=              5.4324   YZ=              0.2706

 Normal termination of Gaussian 16 at Thu May  6 14:03:25 2021.
