 Gaussian 16, Revision A.03,
 Gaussian 16:  EM64L-G16RevA.03 25-Dec-2016

 -------------
 #p 6-31g* mp2
 -------------

 ------------------------------------------------------
 Input file generated by CHIRIPA (05-May-2021 14:57:23)
 ------------------------------------------------------
 Symbolic Z-matrix:
 Charge =  0 Multiplicity = 1

                         Standard orientation:
 ---------------------------------------------------------------------
 Center     Atomic      Atomic             Coordinates (Angstroms)
 Number     Number       Type             X           Y           Z
 ---------------------------------------------------------------------
      1          6           0       -0.822452   -2.188737    0.488270
      2          6           0       -1.515989   -1.654625    1.579256
      3          6           0       -2.550324   -0.734996    1.381817
      4          6           0       -2.866203   -0.370007    0.074036
      5          6           0       -2.193814   -0.884477   -1.033441
      6          6           0       -1.162977   -1.802639   -0.812304
      7          1           0       -0.020314   -2.902558    0.650849
      8          1           0       -1.253696   -1.952653    2.590407
      9          1           0       -3.103648   -0.305904    2.208334
     10          1           0       -2.478080   -0.568198   -2.029723
     11          1           0       -0.626087   -2.215803   -1.661474
     12          7           0       -3.959355    0.602787   -0.147528
     13          8           0       -4.218397    0.908141   -1.309549
     14          8           0       -4.536428    1.041488    0.845027
     15          6           0        4.335488   -1.378824   -0.129276
     16          6           0        3.131716   -1.486841   -0.833397
     17          6           0        2.210387   -0.435323   -0.830052
     18          6           0        2.526576    0.714906   -0.108742
     19          6           0        3.717475    0.852699    0.602639
     20          6           0        4.624017   -0.211457    0.585236
     21          1           0        5.045455   -2.200577   -0.137335
     22          1           0        2.904985   -2.392245   -1.389168
     23          1           0        1.271014   -0.492323   -1.366471
     24          1           0        3.915502    1.767772    1.147473
     25          1           0        5.558100   -0.124779    1.132976
     26          7           0        1.559033    1.834790   -0.097759
     27          8           0        1.861226    2.837572    0.545471
     28          8           0        0.516801    1.688568   -0.732587
 ---------------------------------------------------------------------

 SCF Done:  E(RHF) =  -868.335616138     A.U. after   16 cycles
 E2 =    -0.2603036640D+01 EUMP2 =    -0.87093865277765D+03

 The electronic state is 1-A.
 Alpha  occ. eigenvalues --  -20.61057 -20.61045 -20.60255 -20.60244 -15.86113
 Alpha  occ. eigenvalues --  -15.85319 -11.31635 -11.30839 -11.28244 -11.28239
 Alpha  occ. eigenvalues --  -11.28056 -11.27540 -11.27499 -11.27407 -11.27365
 Alpha  occ. eigenvalues --  -11.27258 -11.26673 -11.26548  -1.60123  -1.59315
 Alpha  occ. eigenvalues --   -1.39672  -1.38869  -1.19857  -1.19091  -1.09214
 Alpha  occ. eigenvalues --   -1.08486  -1.05305  -1.04559  -0.96019  -0.95271
 Alpha  occ. eigenvalues --   -0.86689  -0.85971  -0.82860  -0.82126  -0.77887
 Alpha  occ. eigenvalues --   -0.77106  -0.72335  -0.71556  -0.71453  -0.70971
 Alpha  occ. eigenvalues --   -0.70613  -0.70263  -0.65515  -0.65341  -0.64786
 Alpha  occ. eigenvalues --   -0.64645  -0.62671  -0.61882  -0.55794  -0.55131
 Alpha  occ. eigenvalues --   -0.53655  -0.53483  -0.52722  -0.52642  -0.49098
 Alpha  occ. eigenvalues --   -0.49069  -0.48321  -0.48281  -0.45036  -0.44243
 Alpha  occ. eigenvalues --   -0.37893  -0.37401  -0.36568  -0.36079
 Alpha virt. eigenvalues --    0.04640   0.05481   0.10613   0.11529   0.16065
 Alpha virt. eigenvalues --    0.16764   0.19830   0.22015   0.25657   0.27358
 Alpha virt. eigenvalues --    0.28252   0.29223   0.30592   0.30985   0.32588

 Mulliken charges:
               1
     1  C   -0.167619
     2  C   -0.219882
     3  C   -0.166663
     4  C    0.163981
     5  C   -0.155354
     6  C   -0.230019
     7  H    0.220499
     8  H    0.222047
     9  H    0.276687
    10  H    0.277285
    11  H    0.212933
    12  N    0.489297
    13  O   -0.458868
    14  O   -0.460795
    15  C   -0.170523
    16  C   -0.225882
    17  C   -0.168988
    18  C    0.156134
    19  C   -0.169835
    20  C   -0.219463
    21  H    0.226062
    22  H    0.217833
    23  H    0.277951
    24  H    0.277584
    25  H    0.224930
    26  N    0.488050
    27  O   -0.458611
    28  O   -0.458770
 Sum of Mulliken charges =  -0.00000

 Dipole moment (field-independent basis, Debye):
    X=              7.0814    Y=             -7.0440    Z=              0.8254  Tot=             10.0223
 Quadrupole moment (field-independent basis, Debye-Ang):
   XX=           -108.2373   YY=           -108.2766   ZZ=            -98.7179
   XY=              2.6368   XZ=             -0.9199   YZ=              1.8414

 Normal termination of Gaussian 16 at Fri May  7 04:53:54 2021.
