 Gaussian 16, Revision A.03,
 Gaussian 16:  EM64L-G16RevA.03 25-Dec-2016

 -------------
 #p 6-31g* mp2
 -------------

 ------------------------------------------------------
 Input file generated by CHIRIPA (05-May-2021 14:53:16)
 ------------------------------------------------------
 Symbolic Z-matrix:
 Charge =  0 Multiplicity = 1

                         Standard orientation:
 ---------------------------------------------------------------------
 Center     Atomic      Atomic             Coordinates (Angstroms)
 Number     Number       Type             X           Y           Z
 ---------------------------------------------------------------------
      1          6           0       -4.829562   -0.298305   -0.231006
      2          6           0       -5.623184    0.974554    0.065605
      3          6           0       -6.939269    1.044734   -0.709502
      4          1           0       -4.625159   -0.352495   -1.309073
      5          1           0       -5.447722   -1.173009    0.014282
      6          1           0       -5.003206    1.846607   -0.178867
      7          1           0       -5.825556    1.025816    1.143117
      8          1           0       -7.580034    0.193243   -0.458538
      9          1           0       -6.753012    1.018696   -1.788034
     10          1           0       -7.490444    1.962624   -0.482468
     11          6           0       -3.511368   -0.382989    0.536408
     12          6           0       -2.717746   -1.655848    0.239797
     13          6           0       -1.401661   -1.726028    1.014904
     14          1           0       -2.893208    0.491714    0.291119
     15          1           0       -3.715771   -0.328800    1.614474
     16          1           0       -2.515374   -1.707111   -0.837716
     17          1           0       -3.337725   -2.527901    0.484269
     18          1           0       -1.587919   -1.699991    2.093436
     19          1           0       -0.760896   -0.874537    0.763940
     20          1           0       -0.850487   -2.643918    0.787869
     21          6           0        2.806902    2.727551    0.202704
     22          6           0        4.113223    2.236897    0.299165
     23          6           0        4.374971    0.874965    0.122590
     24          6           0        3.301803    0.028169   -0.150428
     25          6           0        1.989323    0.486677   -0.252686
     26          6           0        1.750983    1.852418   -0.072428
     27          1           0        2.612661    3.787012    0.341302
     28          1           0        4.935218    2.914213    0.512734
     29          1           0        5.376610    0.468343    0.191838
     30          1           0        1.190510   -0.212988   -0.466658
     31          1           0        0.735463    2.230660   -0.147909
     32          7           0        3.566514   -1.415663   -0.339308
     33          8           0        2.603667   -2.141022   -0.578929
     34          8           0        4.731829   -1.794641   -0.244158
 ---------------------------------------------------------------------

 SCF Done:  E(RHF) =  -669.535426266     A.U. after   15 cycles
 E2 =    -0.2091185519D+01 EUMP2 =    -0.67162661178492D+03

 The electronic state is 1-A.
 Alpha  occ. eigenvalues --  -20.60751 -20.60745 -15.85803 -11.31170 -11.27749
 Alpha  occ. eigenvalues --  -11.27720 -11.27497 -11.26770 -11.26760 -11.21850
 Alpha  occ. eigenvalues --  -11.21737 -11.21660 -11.21584 -11.21272 -11.21160
 Alpha  occ. eigenvalues --   -1.59824  -1.39377  -1.19349  -1.08744  -1.08653
 Alpha  occ. eigenvalues --   -1.04757  -1.03715  -0.96162  -0.95576  -0.87177
 Alpha  occ. eigenvalues --   -0.86151  -0.82411  -0.79776  -0.78473  -0.77454
 Alpha  occ. eigenvalues --   -0.72023  -0.71145  -0.70468  -0.65301  -0.65004
 Alpha  occ. eigenvalues --   -0.64765  -0.62155  -0.61092  -0.59504  -0.57759
 Alpha  occ. eigenvalues --   -0.55529  -0.55213  -0.53087  -0.52909  -0.52781
 Alpha  occ. eigenvalues --   -0.52539  -0.50109  -0.48781  -0.48775  -0.48084
 Alpha  occ. eigenvalues --   -0.46822  -0.46010  -0.45947  -0.44782  -0.43955
 Alpha  occ. eigenvalues --   -0.37331  -0.36352
 Alpha virt. eigenvalues --    0.05056   0.11271   0.16541   0.20241   0.22803
 Alpha virt. eigenvalues --    0.23901   0.25819   0.26902   0.27142   0.28009
 Alpha virt. eigenvalues --    0.29276   0.30705   0.31473   0.31725   0.31901

 Mulliken charges:
               1
     1  C   -0.298442
     2  C   -0.299299
     3  C   -0.475801
     4  H    0.149966
     5  H    0.151470
     6  H    0.149220
     7  H    0.152306
     8  H    0.156340
     9  H    0.155436
    10  H    0.160235
    11  C   -0.296365
    12  C   -0.301533
    13  C   -0.477050
    14  H    0.141363
    15  H    0.150589
    16  H    0.152962
    17  H    0.154899
    18  H    0.156053
    19  H    0.141962
    20  H    0.175225
    21  C   -0.170650
    22  C   -0.218639
    23  C   -0.170658
    24  C    0.158401
    25  C   -0.175333
    26  C   -0.220196
    27  H    0.225583
    28  H    0.223435
    29  H    0.275585
    30  H    0.282966
    31  H    0.223034
    32  N    0.487760
    33  O   -0.460291
    34  O   -0.460532
 Sum of Mulliken charges =  -0.00000

 Dipole moment (field-independent basis, Debye):
    X=             -0.9727    Y=              4.9543    Z=              0.6850  Tot=              5.0952
 Quadrupole moment (field-independent basis, Debye-Ang):
   XX=            -96.6570   YY=            -94.4006   ZZ=            -95.3719
   XY=             18.5568   XZ=              2.3754   YZ=             -0.9520

 Normal termination of Gaussian 16 at Wed May  5 23:35:08 2021.
