 Gaussian 16, Revision A.03,
 Gaussian 16:  EM64L-G16RevA.03 25-Dec-2016

 -------------
 #p 6-31g* mp2
 -------------

 ------------------------------------------------------
 Input file generated by CHIRIPA (05-May-2021 14:53:14)
 ------------------------------------------------------
 Symbolic Z-matrix:
 Charge =  0 Multiplicity = 1

                         Standard orientation:
 ---------------------------------------------------------------------
 Center     Atomic      Atomic             Coordinates (Angstroms)
 Number     Number       Type             X           Y           Z
 ---------------------------------------------------------------------
      1          6           0       -3.522618    0.150114    0.092511
      2          6           0       -3.927420   -1.080550   -0.719638
      3          6           0       -4.931352   -1.969561    0.014918
      4          1           0       -3.094228   -0.175246    1.050409
      5          1           0       -4.421962    0.733301    0.334316
      6          1           0       -3.027423   -1.660512   -0.961021
      7          1           0       -4.354720   -0.752227   -1.675794
      8          1           0       -5.845622   -1.411848    0.242222
      9          1           0       -4.510784   -2.325294    0.961056
     10          1           0       -5.206966   -2.843389   -0.583683
     11          6           0       -2.519423    1.048673   -0.628543
     12          6           0       -2.114621    2.279338    0.183606
     13          6           0       -1.110689    3.168349   -0.550950
     14          1           0       -1.620080    0.465487   -0.870348
     15          1           0       -2.947813    1.374033   -1.586440
     16          1           0       -1.687321    1.951015    1.139762
     17          1           0       -3.014618    2.859300    0.424989
     18          1           0       -1.531257    3.524082   -1.497088
     19          1           0       -0.196419    2.610636   -0.778254
     20          1           0       -0.835076    4.042176    0.047651
     21          6           0        4.603077   -0.034196   -0.861537
     22          6           0        4.283787    0.564520    0.361621
     23          6           0        3.044029    0.331128    0.964180
     24          6           0        2.143336   -0.510241    0.312921
     25          6           0        2.432067   -1.121418   -0.906255
     26          6           0        3.677829   -0.873774   -1.490461
     27          1           0        5.568483    0.152643   -1.322490
     28          1           0        5.000389    1.216998    0.852332
     29          1           0        2.770916    0.781700    1.910654
     30          1           0        1.697105   -1.767086   -1.371401
     31          1           0        3.923077   -1.340101   -2.440429
     32          7           0        0.827682   -0.764867    0.941108
     33          8           0        0.051578   -1.510129    0.347069
     34          8           0        0.597490   -0.214358    2.015626
 ---------------------------------------------------------------------

 SCF Done:  E(RHF) =  -669.536976538     A.U. after   15 cycles
 E2 =    -0.2092633471D+01 EUMP2 =    -0.67162961000929D+03

 The electronic state is 1-A.
 Alpha  occ. eigenvalues --  -20.61157 -20.61151 -15.86150 -11.31398 -11.27946
 Alpha  occ. eigenvalues --  -11.27942 -11.27667 -11.26930 -11.26920 -11.20524
 Alpha  occ. eigenvalues --  -11.20427 -11.20291 -11.20129 -11.19963 -11.19953
 Alpha  occ. eigenvalues --   -1.60193  -1.39752  -1.19553  -1.08972  -1.07191
 Alpha  occ. eigenvalues --   -1.04934  -1.02440  -0.95827  -0.94915  -0.86339
 Alpha  occ. eigenvalues --   -0.85944  -0.82663  -0.78495  -0.77729  -0.76992
 Alpha  occ. eigenvalues --   -0.72374  -0.71512  -0.70659  -0.65209  -0.64937
 Alpha  occ. eigenvalues --   -0.63766  -0.62281  -0.59821  -0.58307  -0.56531
 Alpha  occ. eigenvalues --   -0.55443  -0.54216  -0.53263  -0.53024  -0.51666
 Alpha  occ. eigenvalues --   -0.51366  -0.49150  -0.49127  -0.48847  -0.46833
 Alpha  occ. eigenvalues --   -0.45689  -0.45168  -0.44527  -0.44181  -0.42647
 Alpha  occ. eigenvalues --   -0.37523  -0.36528
 Alpha virt. eigenvalues --    0.04746   0.11123   0.16207   0.21233   0.23934
 Alpha virt. eigenvalues --    0.25210   0.27170   0.27543   0.28328   0.28707
 Alpha virt. eigenvalues --    0.29081   0.30977   0.32085   0.32415   0.32602

 Mulliken charges:
               1
     1  C   -0.297410
     2  C   -0.301475
     3  C   -0.475632
     4  H    0.164416
     5  H    0.142018
     6  H    0.162687
     7  H    0.144052
     8  H    0.150710
     9  H    0.159136
    10  H    0.155296
    11  C   -0.300472
    12  C   -0.305573
    13  C   -0.473253
    14  H    0.156052
    15  H    0.141508
    16  H    0.165457
    17  H    0.147880
    18  H    0.152244
    19  H    0.147757
    20  H    0.156763
    21  C   -0.170155
    22  C   -0.218507
    23  C   -0.170329
    24  C    0.157863
    25  C   -0.170751
    26  C   -0.218496
    27  H    0.226510
    28  H    0.224334
    29  H    0.276223
    30  H    0.275996
    31  H    0.224329
    32  N    0.488831
    33  O   -0.459491
    34  O   -0.458517
 Sum of Mulliken charges =  -0.00000

 Dipole moment (field-independent basis, Debye):
    X=              4.9614    Y=              0.7013    Z=             -2.0286  Tot=              5.4058
 Quadrupole moment (field-independent basis, Debye-Ang):
   XX=            -75.9776   YY=            -95.3605   ZZ=            -93.5502
   XY=             -0.2761   XZ=             -2.2507   YZ=              4.3610

 Normal termination of Gaussian 16 at Thu May  6 02:37:03 2021.
