 Gaussian 16, Revision A.03,
 Gaussian 16:  EM64L-G16RevA.03 25-Dec-2016

 -------------
 #p 6-31g* mp2
 -------------

 ------------------------------------------------------
 Input file generated by CHIRIPA (05-May-2021 14:51:11)
 ------------------------------------------------------
 Symbolic Z-matrix:
 Charge =  0 Multiplicity = 1

                         Standard orientation:
 ---------------------------------------------------------------------
 Center     Atomic      Atomic             Coordinates (Angstroms)
 Number     Number       Type             X           Y           Z
 ---------------------------------------------------------------------
      1          6           0       -2.872367   -0.427685   -0.428694
      2          6           0       -3.987654    0.297277    0.325329
      3          6           0       -4.761544    1.274466   -0.560103
      4          1           0       -2.180536    0.314611   -0.849778
      5          1           0       -3.306873   -0.968657   -1.280721
      6          1           0       -3.551356    0.835595    1.176489
      7          1           0       -4.676805   -0.446838    0.744828
      8          1           0       -5.223436    0.748620   -1.401971
      9          1           0       -4.091593    2.038340   -0.967858
     10          1           0       -5.553976    1.781692   -0.000966
     11          6           0       -2.089651   -1.408027    0.443093
     12          6           0       -0.974364   -2.132989   -0.310929
     13          6           0       -0.200474   -3.110178    0.574502
     14          1           0       -1.655145   -0.867056    1.295120
     15          1           0       -2.781482   -2.150323    0.864177
     16          1           0       -0.285213   -1.388874   -0.730429
     17          1           0       -1.410662   -2.671308   -1.162090
     18          1           0       -0.870425   -3.874052    0.982257
     19          1           0        0.261418   -2.584332    1.416371
     20          1           0        0.591958   -3.617405    0.015366
     21          6           0        2.973657    0.469093   -0.380484
     22          6           0        3.109407   -0.924673    0.233498
     23          6           0        4.098506   -1.810728   -0.524383
     24          1           0        2.653947    0.372214   -1.427071
     25          1           0        3.960556    0.951897   -0.398547
     26          1           0        2.122305   -1.404168    0.251665
     27          1           0        3.428646   -0.824458    1.278802
     28          1           0        5.094984   -1.357311   -0.531188
     29          1           0        3.781220   -1.940314   -1.564161
     30          1           0        4.180100   -2.802370   -0.068480
     31          6           0        1.988361    1.366619    0.366085
     32          6           0        1.852611    2.760385   -0.247897
     33          6           0        0.863512    3.646440    0.509984
     34          1           0        1.001463    0.883816    0.384147
     35          1           0        2.308071    1.463498    1.412673
     36          1           0        1.533372    2.660171   -1.293200
     37          1           0        2.839713    3.239880   -0.266064
     38          1           0        1.180798    3.776026    1.549761
     39          1           0       -0.132966    3.193023    0.516790
     40          1           0        0.781918    4.638083    0.054080
 ---------------------------------------------------------------------

 SCF Done:  E(RHF) =  -470.732873554     A.U. after   11 cycles
 E2 =    -0.1584266235D+01 EUMP2 =    -0.47231713978931D+03

 The electronic state is 1-A.
 Alpha  occ. eigenvalues --  -11.21682 -11.21645 -11.21642 -11.21505 -11.21468
 Alpha  occ. eigenvalues --  -11.21437 -11.21409 -11.21360 -11.21124 -11.21112
 Alpha  occ. eigenvalues --  -11.21099 -11.21045  -1.08516  -1.08426  -1.03621
 Alpha  occ. eigenvalues --   -1.03506  -0.96051  -0.95981  -0.87066  -0.86995
 Alpha  occ. eigenvalues --   -0.79669  -0.79583  -0.78314  -0.78259  -0.65386
 Alpha  occ. eigenvalues --   -0.64863  -0.61226  -0.60739  -0.59445  -0.59301
 Alpha  occ. eigenvalues --   -0.57666  -0.57579  -0.55398  -0.55224  -0.52732
 Alpha  occ. eigenvalues --   -0.52672  -0.52458  -0.52411  -0.50071  -0.49857
 Alpha  occ. eigenvalues --   -0.47992  -0.47873  -0.46707  -0.46582  -0.46017
 Alpha  occ. eigenvalues --   -0.45797  -0.45755  -0.45509  -0.43843  -0.43791
 Alpha virt. eigenvalues --    0.19170   0.22403   0.23770   0.24790   0.26021
 Alpha virt. eigenvalues --    0.26637   0.27054   0.27717   0.28023   0.30153
 Alpha virt. eigenvalues --    0.31233   0.31461   0.31738   0.31926   0.32249

 Mulliken charges:
               1
     1  C   -0.298843
     2  C   -0.299802
     3  C   -0.475745
     4  H    0.149097
     5  H    0.149848
     6  H    0.152166
     7  H    0.152180
     8  H    0.155227
     9  H    0.155213
    10  H    0.160549
    11  C   -0.298757
    12  C   -0.304983
    13  C   -0.480376
    14  H    0.150430
    15  H    0.150222
    16  H    0.154624
    17  H    0.152704
    18  H    0.157147
    19  H    0.157098
    20  H    0.161205
    21  C   -0.297360
    22  C   -0.311802
    23  C   -0.475389
    24  H    0.149125
    25  H    0.149560
    26  H    0.167361
    27  H    0.151001
    28  H    0.155014
    29  H    0.154682
    30  H    0.160194
    31  C   -0.301981
    32  C   -0.299502
    33  C   -0.475722
    34  H    0.151089
    35  H    0.149868
    36  H    0.151894
    37  H    0.152402
    38  H    0.155388
    39  H    0.154381
    40  H    0.160592
 Sum of Mulliken charges =  -0.00000

 Dipole moment (field-independent basis, Debye):
    X=             -0.0273    Y=             -0.0266    Z=              0.0143  Tot=              0.0407
 Quadrupole moment (field-independent basis, Debye-Ang):
   XX=            -84.6937   YY=            -85.1653   ZZ=            -84.8220
   XY=              1.7873   XZ=              0.6054   YZ=              0.4183

 Normal termination of Gaussian 16 at Thu May  6 03:50:43 2021.
