 Gaussian 16, Revision A.03,
 Gaussian 16:  EM64L-G16RevA.03 25-Dec-2016

 -------------
 #p 6-31g* mp2
 -------------

 ------------------------------------------------------
 Input file generated by CHIRIPA (05-May-2021 14:53:14)
 ------------------------------------------------------
 Symbolic Z-matrix:
 Charge =  0 Multiplicity = 1

                         Standard orientation:
 ---------------------------------------------------------------------
 Center     Atomic      Atomic             Coordinates (Angstroms)
 Number     Number       Type             X           Y           Z
 ---------------------------------------------------------------------
      1          6           0        5.885771   -0.255144   -0.280184
      2          6           0        6.742179    1.003067   -0.133710
      3          6           0        8.161747    0.817735   -0.670621
      4          1           0        6.373297   -1.086302    0.247489
      5          1           0        5.843435   -0.540037   -1.340580
      6          1           0        6.781748    1.286295    0.925928
      7          1           0        6.252461    1.831373   -0.661631
      8          1           0        8.140582    0.557849   -1.733924
      9          1           0        8.672876    0.009674   -0.137344
     10          1           0        8.756537    1.729291   -0.555946
     11          6           0        4.463924   -0.085537    0.252088
     12          6           0        3.607516   -1.343748    0.105614
     13          6           0        2.187948   -1.158416    0.642525
     14          1           0        4.506260    0.199356    1.312484
     15          1           0        3.976398    0.745621   -0.275585
     16          1           0        4.097234   -2.172054    0.633535
     17          1           0        3.567946   -1.626976   -0.954024
     18          1           0        1.676818   -0.350355    0.109248
     19          1           0        2.209113   -0.898530    1.705828
     20          1           0        1.593158   -2.069972    0.527850
     21          6           0       -1.595979    0.124452    0.626336
     22          6           0       -2.223353   -1.062634    0.234228
     23          6           0       -3.578619   -1.069641   -0.108929
     24          6           0       -4.279404    0.133912   -0.048516
     25          6           0       -3.682603    1.332891    0.338226
     26          6           0       -2.326317    1.316325    0.676995
     27          1           0       -0.542780    0.120739    0.891205
     28          1           0       -1.658648   -1.989742    0.193967
     29          1           0       -4.089254   -1.974299   -0.415950
     30          1           0       -4.271715    2.241427    0.368672
     31          1           0       -1.841704    2.239734    0.981147
     32          7           0       -5.714702    0.138973   -0.409478
     33          8           0       -6.309988    1.212519   -0.348076
     34          8           0       -6.217226   -0.930704   -0.746967
 ---------------------------------------------------------------------

 SCF Done:  E(RHF) =  -669.535570423     A.U. after   15 cycles
 E2 =    -0.2090941368D+01 EUMP2 =    -0.67162651179035D+03

 The electronic state is 1-A.
 Alpha  occ. eigenvalues --  -20.60693 -20.60687 -15.85746 -11.31088 -11.27661
 Alpha  occ. eigenvalues --  -11.27657 -11.27316 -11.26657 -11.26644 -11.22607
 Alpha  occ. eigenvalues --  -11.22476 -11.22209 -11.22147 -11.22014 -11.21518
 Alpha  occ. eigenvalues --   -1.59769  -1.39323  -1.19256  -1.09207  -1.08646
 Alpha  occ. eigenvalues --   -1.04660  -1.04354  -0.96841  -0.95486  -0.87872
 Alpha  occ. eigenvalues --   -0.86052  -0.82328  -0.80441  -0.78974  -0.77382
 Alpha  occ. eigenvalues --   -0.71964  -0.71093  -0.70357  -0.65829  -0.64903
 Alpha  occ. eigenvalues --   -0.64666  -0.62014  -0.61745  -0.60227  -0.58431
 Alpha  occ. eigenvalues --   -0.56173  -0.55170  -0.53521  -0.53211  -0.52986
 Alpha  occ. eigenvalues --   -0.52745  -0.50762  -0.48770  -0.48721  -0.48682
 Alpha  occ. eigenvalues --   -0.47434  -0.46527  -0.46415  -0.44734  -0.44590
 Alpha  occ. eigenvalues --   -0.37221  -0.36272
 Alpha virt. eigenvalues --    0.05146   0.11383   0.16606   0.20272   0.22221
 Alpha virt. eigenvalues --    0.23724   0.25725   0.25932   0.26197   0.27327
 Alpha virt. eigenvalues --    0.29178   0.29502   0.30646   0.31521   0.31991

 Mulliken charges:
               1
     1  C   -0.299003
     2  C   -0.300179
     3  C   -0.476133
     4  H    0.151063
     5  H    0.150998
     6  H    0.152336
     7  H    0.152293
     8  H    0.156053
     9  H    0.155956
    10  H    0.161719
    11  C   -0.299330
    12  C   -0.299494
    13  C   -0.483322
    14  H    0.150106
    15  H    0.149506
    16  H    0.155807
    17  H    0.155393
    18  H    0.150855
    19  H    0.157287
    20  H    0.159357
    21  C   -0.177755
    22  C   -0.221785
    23  C   -0.171013
    24  C    0.158146
    25  C   -0.170749
    26  C   -0.220400
    27  H    0.238952
    28  H    0.223333
    29  H    0.275162
    30  H    0.275097
    31  H    0.223217
    32  N    0.488059
    33  O   -0.460763
    34  O   -0.460769
 Sum of Mulliken charges =  -0.00000

 Dipole moment (field-independent basis, Debye):
    X=              5.3692    Y=             -0.0443    Z=              1.2617  Tot=              5.5156
 Quadrupole moment (field-independent basis, Debye-Ang):
   XX=           -138.8490   YY=            -89.8091   ZZ=            -94.8341
   XY=              0.3014   XZ=             -5.1670   YZ=              0.9452

 Normal termination of Gaussian 16 at Wed May  5 18:37:15 2021.
