 Gaussian 16, Revision A.03,
 Gaussian 16:  EM64L-G16RevA.03 25-Dec-2016

 -------------
 #p 6-31g* mp2
 -------------

 ------------------------------------------------------
 Input file generated by CHIRIPA (05-May-2021 14:57:21)
 ------------------------------------------------------
 Symbolic Z-matrix:
 Charge =  0 Multiplicity = 1

                         Standard orientation:
 ---------------------------------------------------------------------
 Center     Atomic      Atomic             Coordinates (Angstroms)
 Number     Number       Type             X           Y           Z
 ---------------------------------------------------------------------
      1          6           0        5.562811    1.375838   -0.562926
      2          6           0        4.268481    1.822824   -0.277559
      3          6           0        3.269483    0.916772    0.090709
      4          6           0        3.601192   -0.435223    0.163981
      5          6           0        4.881453   -0.911468   -0.114247
      6          6           0        5.864634    0.012522   -0.480504
      7          1           0        6.332713    2.086649   -0.848224
      8          1           0        4.031214    2.881009   -0.340751
      9          1           0        2.259240    1.235546    0.317004
     10          1           0        5.087766   -1.972470   -0.042633
     11          1           0        6.868967   -0.337471   -0.701560
     12          7           0        2.551970   -1.403916    0.552786
     13          8           0        2.869707   -2.589833    0.610060
     14          8           0        1.431719   -0.958917    0.792895
     15          6           0       -2.173379    2.202241    0.202600
     16          6           0       -3.509700    2.334332    0.594161
     17          6           0       -4.405485    1.273399    0.431261
     18          6           0       -3.928869    0.089308   -0.129147
     19          6           0       -2.603375   -0.073061   -0.529136
     20          6           0       -1.725272    1.001084   -0.356813
     21          1           0       -1.484380    3.031532    0.332804
     22          1           0       -3.860494    3.265996    1.028890
     23          1           0       -5.445239    1.348514    0.725688
     24          1           0       -2.283074   -1.014120   -0.959523
     25          1           0       -0.688015    0.895656   -0.661817
     26          7           0       -4.867838   -1.040848   -0.306589
     27          8           0       -4.423126   -2.073623   -0.802819
     28          8           0       -6.030733   -0.872490    0.053921
 ---------------------------------------------------------------------

 SCF Done:  E(RHF) =  -868.338031268     A.U. after   16 cycles
 E2 =    -0.2599269027D+01 EUMP2 =    -0.87093730029485D+03

 The electronic state is 1-A.
 Alpha  occ. eigenvalues --  -20.61538 -20.61477 -20.60174 -20.60155 -15.86551
 Alpha  occ. eigenvalues --  -15.85217 -11.31888 -11.30551 -11.28524 -11.28391
 Alpha  occ. eigenvalues --  -11.28140 -11.27477 -11.27395 -11.27158 -11.27035
 Alpha  occ. eigenvalues --  -11.26942 -11.26220 -11.26086  -1.60572  -1.59242
 Alpha  occ. eigenvalues --   -1.40132  -1.38795  -1.20045  -1.18728  -1.09436
 Alpha  occ. eigenvalues --   -1.08156  -1.05448  -1.04109  -0.96282  -0.94990
 Alpha  occ. eigenvalues --   -0.86845  -0.85535  -0.83121  -0.81805  -0.78187
 Alpha  occ. eigenvalues --   -0.76836  -0.72767  -0.71890  -0.71441  -0.71149
 Alpha  occ. eigenvalues --   -0.70561  -0.69895  -0.65700  -0.65449  -0.64390
 Alpha  occ. eigenvalues --   -0.64129  -0.62809  -0.61448  -0.55925  -0.54707
 Alpha  occ. eigenvalues --   -0.53767  -0.53542  -0.52456  -0.52212  -0.49531
 Alpha  occ. eigenvalues --   -0.49507  -0.48202  -0.48189  -0.45540  -0.44207
 Alpha  occ. eigenvalues --   -0.38002  -0.37048  -0.36752  -0.35685
 Alpha virt. eigenvalues --    0.04333   0.05678   0.10592   0.11931   0.15844
 Alpha virt. eigenvalues --    0.17160   0.19870   0.21912   0.25474   0.27080
 Alpha virt. eigenvalues --    0.28660   0.28812   0.30359   0.31122   0.32364

 Mulliken charges:
               1
     1  C   -0.170250
     2  C   -0.217823
     3  C   -0.172662
     4  C    0.159128
     5  C   -0.170083
     6  C   -0.217975
     7  H    0.227790
     8  H    0.222952
     9  H    0.268742
    10  H    0.278010
    11  H    0.226205
    12  N    0.489213
    13  O   -0.454075
    14  O   -0.467593
    15  C   -0.171813
    16  C   -0.218432
    17  C   -0.171991
    18  C    0.157964
    19  C   -0.168149
    20  C   -0.214404
    21  H    0.217557
    22  H    0.220100
    23  H    0.273631
    24  H    0.280398
    25  H    0.227217
    26  N    0.488053
    27  O   -0.458672
    28  O   -0.463038
 Sum of Mulliken charges =  -0.00000

 Dipole moment (field-independent basis, Debye):
    X=              7.3846    Y=              7.1564    Z=             -0.7791  Tot=             10.3128
 Quadrupole moment (field-independent basis, Debye-Ang):
   XX=            -99.2255   YY=           -103.6262   ZZ=           -106.2624
   XY=             -9.5718   XZ=             -9.3370   YZ=              2.2505

 Normal termination of Gaussian 16 at Thu May  6 19:26:50 2021.
