 Gaussian 16, Revision A.03,
 Gaussian 16:  EM64L-G16RevA.03 25-Dec-2016

 -------------
 #p 6-31g* mp2
 -------------

 ------------------------------------------------------
 Input file generated by CHIRIPA (05-May-2021 14:51:10)
 ------------------------------------------------------
 Symbolic Z-matrix:
 Charge =  0 Multiplicity = 1

                         Standard orientation:
 ---------------------------------------------------------------------
 Center     Atomic      Atomic             Coordinates (Angstroms)
 Number     Number       Type             X           Y           Z
 ---------------------------------------------------------------------
      1          6           0       -3.946619    0.334796   -0.502345
      2          6           0       -3.242271    1.524754    0.150250
      3          6           0       -1.922966    1.879874   -0.536131
      4          1           0       -3.276137   -0.535291   -0.483722
      5          1           0       -4.132831    0.563310   -1.560883
      6          1           0       -3.058684    1.294612    1.207580
      7          1           0       -3.914581    2.392057    0.130243
      8          1           0       -2.092113    2.135486   -1.587156
      9          1           0       -1.231354    1.031805   -0.503698
     10          1           0       -1.436305    2.733174   -0.053535
     11          6           0       -5.266971   -0.032305    0.172662
     12          6           0       -5.971319   -1.222263   -0.479933
     13          6           0       -7.290624   -1.577383    0.206448
     14          1           0       -5.080760   -0.260818    1.231200
     15          1           0       -5.937454    0.837782    0.154039
     16          1           0       -5.299010   -2.089566   -0.459926
     17          1           0       -6.154906   -0.992121   -1.537262
     18          1           0       -7.982237   -0.729314    0.174015
     19          1           0       -7.121477   -1.832995    1.257473
     20          1           0       -7.777285   -2.430683   -0.276148
     21          6           0        4.002054   -0.261870    0.618143
     22          6           0        2.784725    0.573178    0.219658
     23          6           0        1.582930    0.340897    1.135917
     24          1           0        3.729137   -1.325956    0.604661
     25          1           0        4.278385   -0.023165    1.654510
     26          1           0        2.511619    0.333982   -0.816109
     27          1           0        3.060625    1.635388    0.233906
     28          1           0        1.831977    0.597896    2.170580
     29          1           0        1.279851   -0.710906    1.114599
     30          1           0        0.723925    0.947692    0.832981
     31          6           0        5.211536   -0.040621   -0.288461
     32          6           0        6.428865   -0.875669    0.110025
     33          6           0        7.630660   -0.643388   -0.806234
     34          1           0        4.935205   -0.279326   -1.324827
     35          1           0        5.484453    1.023465   -0.274977
     36          1           0        6.152965   -1.937880    0.095777
     37          1           0        6.701972   -0.636473    1.145792
     38          1           0        7.933739    0.408415   -0.784916
     39          1           0        7.381613   -0.900386   -1.840897
     40          1           0        8.489665   -1.250183   -0.503297
 ---------------------------------------------------------------------

 SCF Done:  E(RHF) =  -470.733139954     A.U. after   11 cycles
 E2 =    -0.1582273621D+01 EUMP2 =    -0.47231541357502D+03

 The electronic state is 1-A.
 Alpha  occ. eigenvalues --  -11.21605 -11.21600 -11.21586 -11.21563 -11.21404
 Alpha  occ. eigenvalues --  -11.21379 -11.21344 -11.21320 -11.21075 -11.21069
 Alpha  occ. eigenvalues --  -11.21058 -11.20985  -1.08432  -1.08402  -1.03545
 Alpha  occ. eigenvalues --   -1.03490  -0.96022  -0.95918  -0.87061  -0.86916
 Alpha  occ. eigenvalues --   -0.79626  -0.79537  -0.78242  -0.78216  -0.65067
 Alpha  occ. eigenvalues --   -0.65032  -0.60985  -0.60887  -0.59406  -0.59276
 Alpha  occ. eigenvalues --   -0.57622  -0.57553  -0.55315  -0.55207  -0.52818
 Alpha  occ. eigenvalues --   -0.52573  -0.52428  -0.52291  -0.49936  -0.49850
 Alpha  occ. eigenvalues --   -0.47943  -0.47843  -0.46627  -0.46586  -0.45784
 Alpha  occ. eigenvalues --   -0.45757  -0.45706  -0.45684  -0.43825  -0.43687
 Alpha virt. eigenvalues --    0.22059   0.23021   0.23561   0.24936   0.26563
 Alpha virt. eigenvalues --    0.26703   0.27168   0.27511   0.27588   0.28882
 Alpha virt. eigenvalues --    0.31175   0.31429   0.31597   0.31825   0.31974

 Mulliken charges:
               1
     1  C   -0.298614
     2  C   -0.299817
     3  C   -0.480769
     4  H    0.150050
     5  H    0.149455
     6  H    0.152588
     7  H    0.152035
     8  H    0.155479
     9  H    0.160121
    10  H    0.160129
    11  C   -0.298359
    12  C   -0.299662
    13  C   -0.475713
    14  H    0.149698
    15  H    0.149636
    16  H    0.151948
    17  H    0.151888
    18  H    0.155174
    19  H    0.155231
    20  H    0.160233
    21  C   -0.298216
    22  C   -0.299116
    23  C   -0.483765
    24  H    0.149409
    25  H    0.149439
    26  H    0.151904
    27  H    0.151918
    28  H    0.154661
    29  H    0.153740
    30  H    0.169446
    31  C   -0.298238
    32  C   -0.299619
    33  C   -0.475687
    34  H    0.149505
    35  H    0.149630
    36  H    0.151863
    37  H    0.151876
    38  H    0.155168
    39  H    0.155168
    40  H    0.160180
 Sum of Mulliken charges =  -0.00000

 Dipole moment (field-independent basis, Debye):
    X=             -0.0279    Y=              0.0132    Z=             -0.0080  Tot=              0.0319
 Quadrupole moment (field-independent basis, Debye-Ang):
   XX=            -86.3869   YY=            -83.9468   ZZ=            -84.5233
   XY=             -0.4743   XZ=              1.4078   YZ=              0.2595

 Normal termination of Gaussian 16 at Thu May  6 03:46:45 2021.
