 Gaussian 16, Revision A.03,
 Gaussian 16:  EM64L-G16RevA.03 25-Dec-2016

 -------------
 #p 6-31g* mp2
 -------------

 ------------------------------------------------------
 Input file generated by CHIRIPA (05-May-2021 14:55:21)
 ------------------------------------------------------
 Symbolic Z-matrix:
 Charge =  0 Multiplicity = 1

                         Standard orientation:
 ---------------------------------------------------------------------
 Center     Atomic      Atomic             Coordinates (Angstroms)
 Number     Number       Type             X           Y           Z
 ---------------------------------------------------------------------
      1          6           0       -0.340503   -1.335901    1.713389
      2          6           0       -1.179107   -0.308134    2.157189
      3          6           0       -2.198373    0.181503    1.335057
      4          6           0       -2.351421   -0.382209    0.069318
      5          6           0       -1.532077   -1.407085   -0.401420
      6          6           0       -0.519349   -1.881135    0.437750
      7          1           0        0.448748   -1.710209    2.358658
      8          1           0       -1.042538    0.117196    3.147385
      9          1           0       -2.861868    0.976384    1.653423
     10          1           0       -1.692717   -1.811114   -1.393576
     11          1           0        0.130426   -2.679395    0.090447
     12          7           0       -3.427012    0.127897   -0.810055
     13          8           0       -3.541161   -0.385587   -1.920884
     14          8           0       -4.135543    1.031543   -0.371827
     15          6           0        2.191765    1.079583   -0.243659
     16          6           0        2.608224    2.535631   -0.032774
     17          6           0        1.414551    3.489286    0.026242
     18          1           0        1.612064    1.001685   -1.173618
     19          1           0        1.518916    0.776367    0.570423
     20          1           0        3.281187    2.835586   -0.846262
     21          1           0        3.187164    2.610039    0.896692
     22          1           0        0.744817    3.217745    0.848629
     23          1           0        0.839375    3.444573   -0.904228
     24          1           0        1.735071    4.524776    0.177528
     25          6           0        3.374061    0.114096   -0.304819
     26          6           0        2.957602   -1.341952   -0.515705
     27          6           0        4.151274   -2.295607   -0.574720
     28          1           0        4.046909    0.417313   -1.118902
     29          1           0        3.953762    0.191995    0.625139
     30          1           0        2.378662   -1.416361   -1.445170
     31          1           0        2.284638   -1.641907    0.297784
     32          1           0        4.726451   -2.250894    0.355749
     33          1           0        4.821008   -2.024066   -1.397108
     34          1           0        3.830755   -3.331097   -0.726008
 ---------------------------------------------------------------------

 SCF Done:  E(RHF) =  -669.533700469     A.U. after   15 cycles
 E2 =    -0.2094844950D+01 EUMP2 =    -0.67162854541932D+03

 The electronic state is 1-A.
 Alpha  occ. eigenvalues --  -20.60791 -20.60786 -15.85843 -11.31232 -11.27799
 Alpha  occ. eigenvalues --  -11.27766 -11.27534 -11.26847 -11.26765 -11.22328
 Alpha  occ. eigenvalues --  -11.21887 -11.21838 -11.21768 -11.21597 -11.21230
 Alpha  occ. eigenvalues --   -1.59865  -1.39418  -1.19407  -1.08934  -1.08753
 Alpha  occ. eigenvalues --   -1.04812  -1.03990  -0.96409  -0.95638  -0.87432
 Alpha  occ. eigenvalues --   -0.86220  -0.82462  -0.80109  -0.78670  -0.77487
 Alpha  occ. eigenvalues --   -0.72064  -0.71187  -0.70534  -0.65572  -0.65052
 Alpha  occ. eigenvalues --   -0.64811  -0.62185  -0.61376  -0.59798  -0.58026
 Alpha  occ. eigenvalues --   -0.55696  -0.55326  -0.53338  -0.53028  -0.52922
 Alpha  occ. eigenvalues --   -0.52772  -0.50357  -0.48838  -0.48817  -0.48371
 Alpha  occ. eigenvalues --   -0.47150  -0.46161  -0.46096  -0.44819  -0.44214
 Alpha  occ. eigenvalues --   -0.37277  -0.36358
 Alpha virt. eigenvalues --    0.04987   0.11156   0.16403   0.20425   0.22806
 Alpha virt. eigenvalues --    0.23782   0.25961   0.26379   0.27131   0.28084
 Alpha virt. eigenvalues --    0.28593   0.30182   0.31095   0.31694   0.31992

 Mulliken charges:
               1
     1  C   -0.173029
     2  C   -0.219047
     3  C   -0.170815
     4  C    0.159468
     5  C   -0.173355
     6  C   -0.211598
     7  H    0.225437
     8  H    0.223664
     9  H    0.275904
    10  H    0.275541
    11  H    0.227003
    12  N    0.487983
    13  O   -0.460399
    14  O   -0.460138
    15  C   -0.303392
    16  C   -0.299915
    17  C   -0.475173
    18  H    0.151488
    19  H    0.153781
    20  H    0.152757
    21  H    0.149449
    22  H    0.152406
    23  H    0.158904
    24  H    0.160958
    25  C   -0.298082
    26  C   -0.301082
    27  C   -0.475696
    28  H    0.151915
    29  H    0.147753
    30  H    0.152052
    31  H    0.143412
    32  H    0.155304
    33  H    0.159310
    34  H    0.157232
 Sum of Mulliken charges =  -0.00000

 Dipole moment (field-independent basis, Debye):
    X=              3.7424    Y=             -1.7614    Z=              3.0449  Tot=              5.1361
 Quadrupole moment (field-independent basis, Debye-Ang):
   XX=           -113.6602   YY=            -92.4295   ZZ=            -91.0700
   XY=              2.4646   XZ=             -8.3531   YZ=              1.0742

 Normal termination of Gaussian 16 at Wed May  5 22:14:01 2021.
