 Gaussian 16, Revision A.03,
 Gaussian 16:  EM64L-G16RevA.03 25-Dec-2016

 -------------
 #p 6-31g* mp2
 -------------

 ------------------------------------------------------
 Input file generated by CHIRIPA (05-May-2021 14:53:11)
 ------------------------------------------------------
 Symbolic Z-matrix:
 Charge =  0 Multiplicity = 1

                         Standard orientation:
 ---------------------------------------------------------------------
 Center     Atomic      Atomic             Coordinates (Angstroms)
 Number     Number       Type             X           Y           Z
 ---------------------------------------------------------------------
      1          6           0        4.717591   -0.212100   -0.286616
      2          6           0        6.041780    0.542769   -0.165448
      3          6           0        7.063938    0.116327   -1.219552
      4          1           0        4.908289   -1.290507   -0.199340
      5          1           0        4.300826   -0.048586   -1.290093
      6          1           0        6.455238    0.379004    0.837971
      7          1           0        5.847883    1.619516   -0.252832
      8          1           0        6.675686    0.295657   -2.227373
      9          1           0        7.286492   -0.951904   -1.130373
     10          1           0        8.003083    0.668453   -1.114561
     11          6           0        3.685517    0.203189    0.760325
     12          6           0        2.361328   -0.551679    0.639157
     13          6           0        1.339170   -0.125238    1.693261
     14          1           0        4.102282    0.039675    1.763802
     15          1           0        3.494819    1.281597    0.673049
     16          1           0        2.555225   -1.628426    0.726541
     17          1           0        1.947870   -0.387914   -0.364262
     18          1           0        1.116616    0.942994    1.604082
     19          1           0        1.727422   -0.304567    2.701082
     20          1           0        0.400025   -0.677364    1.588270
     21          6           0       -3.640472    2.500678   -0.143099
     22          6           0       -2.344804    1.978035   -0.075204
     23          6           0       -2.134582    0.596062   -0.097656
     24          6           0       -3.247853   -0.237940   -0.189097
     25          6           0       -4.550977    0.252335   -0.258296
     26          6           0       -4.737489    1.637682   -0.234269
     27          1           0       -3.794568    3.575538   -0.125047
     28          1           0       -1.490971    2.645861   -0.004346
     29          1           0       -1.142301    0.164583   -0.046464
     30          1           0       -5.382352   -0.438553   -0.328339
     31          1           0       -5.744852    2.040757   -0.287139
     32          7           0       -3.037851   -1.702758   -0.213701
     33          8           0       -4.035334   -2.416266   -0.294761
     34          8           0       -1.879745   -2.109638   -0.151459
 ---------------------------------------------------------------------

 SCF Done:  E(RHF) =  -669.535690747     A.U. after   15 cycles
 E2 =    -0.2091555707D+01 EUMP2 =    -0.67162724645404D+03

 The electronic state is 1-A.
 Alpha  occ. eigenvalues --  -20.60817 -20.60811 -15.85855 -11.31164 -11.27746
 Alpha  occ. eigenvalues --  -11.27687 -11.27488 -11.26754 -11.26737 -11.21635
 Alpha  occ. eigenvalues --  -11.21634 -11.21459 -11.21377 -11.21221 -11.21078
 Alpha  occ. eigenvalues --   -1.59882  -1.39438  -1.19343  -1.08751  -1.08478
 Alpha  occ. eigenvalues --   -1.04741  -1.03590  -0.96062  -0.95587  -0.87081
 Alpha  occ. eigenvalues --   -0.86139  -0.82424  -0.79643  -0.78277  -0.77478
 Alpha  occ. eigenvalues --   -0.72077  -0.71198  -0.70466  -0.65129  -0.64997
 Alpha  occ. eigenvalues --   -0.64755  -0.62157  -0.60974  -0.59377  -0.57638
 Alpha  occ. eigenvalues --   -0.55415  -0.55198  -0.53090  -0.52979  -0.52602
 Alpha  occ. eigenvalues --   -0.52402  -0.50006  -0.48833  -0.48828  -0.47950
 Alpha  occ. eigenvalues --   -0.46684  -0.45822  -0.45753  -0.44853  -0.43821
 Alpha  occ. eigenvalues --   -0.37330  -0.36334
 Alpha virt. eigenvalues --    0.05027   0.11278   0.16533   0.20298   0.22922
 Alpha virt. eigenvalues --    0.23916   0.26341   0.26949   0.27090   0.27987
 Alpha virt. eigenvalues --    0.29398   0.30168   0.31495   0.31830   0.31929

 Mulliken charges:
               1
     1  C   -0.298384
     2  C   -0.299549
     3  C   -0.475747
     4  H    0.152048
     5  H    0.149359
     6  H    0.152187
     7  H    0.150394
     8  H    0.155119
     9  H    0.156260
    10  H    0.160003
    11  C   -0.297988
    12  C   -0.300058
    13  C   -0.489166
    14  H    0.150451
    15  H    0.145564
    16  H    0.160041
    17  H    0.150376
    18  H    0.143770
    19  H    0.160007
    20  H    0.174158
    21  C   -0.170390
    22  C   -0.222026
    23  C   -0.175647
    24  C    0.156453
    25  C   -0.170223
    26  C   -0.219004
    27  H    0.225497
    28  H    0.223486
    29  H    0.288175
    30  H    0.275428
    31  H    0.223329
    32  N    0.488371
    33  O   -0.459624
    34  O   -0.462674
 Sum of Mulliken charges =  -0.00000

 Dipole moment (field-independent basis, Debye):
    X=             -0.7122    Y=              5.0308    Z=              0.1049  Tot=              5.0820
 Quadrupole moment (field-independent basis, Debye-Ang):
   XX=            -85.4762   YY=            -97.2144   ZZ=            -95.7321
   XY=            -16.4149   XZ=              1.0914   YZ=             -1.7081

 Normal termination of Gaussian 16 at Wed May  5 16:57:15 2021.
