 Gaussian 16, Revision A.03,
 Gaussian 16:  EM64L-G16RevA.03 25-Dec-2016

 -------------
 #p 6-31g* mp2
 -------------

 ------------------------------------------------------
 Input file generated by CHIRIPA (05-May-2021 14:53:18)
 ------------------------------------------------------
 Symbolic Z-matrix:
 Charge =  0 Multiplicity = 1

                         Standard orientation:
 ---------------------------------------------------------------------
 Center     Atomic      Atomic             Coordinates (Angstroms)
 Number     Number       Type             X           Y           Z
 ---------------------------------------------------------------------
      1          6           0        4.680730   -0.334350   -0.115875
      2          6           0        5.034129    1.063706    0.392587
      3          6           0        6.493480    1.436807    0.130129
      4          1           0        5.340743   -1.069842    0.364104
      5          1           0        4.885498   -0.387382   -1.194139
      6          1           0        4.827452    1.114510    1.469304
      7          1           0        4.373070    1.795935   -0.088515
      8          1           0        6.709949    1.414055   -0.942822
      9          1           0        7.166912    0.728759    0.623848
     10          1           0        6.724416    2.440065    0.501617
     11          6           0        3.225200   -0.721769    0.139206
     12          6           0        2.871802   -2.119825   -0.369256
     13          6           0        1.412451   -2.492927   -0.106798
     14          1           0        3.020433   -0.668737    1.217470
     15          1           0        2.565187    0.013723   -0.340774
     16          1           0        3.532860   -2.852054    0.111845
     17          1           0        3.078479   -2.170630   -1.445973
     18          1           0        0.739019   -1.784879   -0.600517
     19          1           0        1.195982   -2.470174    0.966153
     20          1           0        1.181515   -3.496184   -0.478286
     21          6           0       -1.569456    2.413639   -0.243222
     22          6           0       -2.951751    2.593706   -0.127630
     23          6           0       -3.802816    1.492215    0.002587
     24          6           0       -3.235086    0.219088    0.013519
     25          6           0       -1.861931    0.007150   -0.099698
     26          6           0       -1.029911    1.123211   -0.228912
     27          1           0       -0.915726    3.274963   -0.343988
     28          1           0       -3.373559    3.594708   -0.138436
     29          1           0       -4.876522    1.602910    0.093795
     30          1           0       -1.470849   -1.002938   -0.085685
     31          1           0        0.043222    0.980360   -0.318501
     32          7           0       -4.125990   -0.954723    0.150843
     33          8           0       -3.600999   -2.066017    0.157738
     34          8           0       -5.332401   -0.741235    0.248984
 ---------------------------------------------------------------------

 SCF Done:  E(RHF) =  -669.535342592     A.U. after   15 cycles
 E2 =    -0.2091883744D+01 EUMP2 =    -0.67162722633600D+03

 The electronic state is 1-A.
 Alpha  occ. eigenvalues --  -20.60688 -20.60681 -15.85738 -11.31088 -11.27673
 Alpha  occ. eigenvalues --  -11.27614 -11.27418 -11.26691 -11.26654 -11.22290
 Alpha  occ. eigenvalues --  -11.22239 -11.22222 -11.22028 -11.21818 -11.21585
 Alpha  occ. eigenvalues --   -1.59762  -1.39315  -1.19267  -1.09140  -1.08667
 Alpha  occ. eigenvalues --   -1.04674  -1.04189  -0.96652  -0.95502  -0.87668
 Alpha  occ. eigenvalues --   -0.86067  -0.82341  -0.80264  -0.78976  -0.77375
 Alpha  occ. eigenvalues --   -0.71958  -0.71085  -0.70388  -0.65779  -0.64922
 Alpha  occ. eigenvalues --   -0.64679  -0.62123  -0.61509  -0.59994  -0.58254
 Alpha  occ. eigenvalues --   -0.55955  -0.55180  -0.53315  -0.53163  -0.53002
 Alpha  occ. eigenvalues --   -0.52656  -0.50587  -0.48729  -0.48713  -0.48554
 Alpha  occ. eigenvalues --   -0.47289  -0.46510  -0.46410  -0.44724  -0.44450
 Alpha  occ. eigenvalues --   -0.37256  -0.36272
 Alpha virt. eigenvalues --    0.05144   0.11378   0.16626   0.19192   0.22511
 Alpha virt. eigenvalues --    0.23665   0.24833   0.25650   0.26505   0.28520
 Alpha virt. eigenvalues --    0.29288   0.29801   0.31196   0.31437   0.31530

 Mulliken charges:
               1
     1  C   -0.298430
     2  C   -0.299624
     3  C   -0.476071
     4  H    0.153112
     5  H    0.151139
     6  H    0.152967
     7  H    0.147971
     8  H    0.156089
     9  H    0.157118
    10  H    0.161157
    11  C   -0.301924
    12  C   -0.300651
    13  C   -0.480612
    14  H    0.151997
    15  H    0.141894
    16  H    0.156636
    17  H    0.154372
    18  H    0.145831
    19  H    0.159418
    20  H    0.170115
    21  C   -0.171982
    22  C   -0.218827
    23  C   -0.170748
    24  C    0.159973
    25  C   -0.180242
    26  C   -0.225738
    27  H    0.225500
    28  H    0.223043
    29  H    0.275228
    30  H    0.284112
    31  H    0.230274
    32  N    0.488063
    33  O   -0.460206
    34  O   -0.460951
 Sum of Mulliken charges =  -0.00000

 Dipole moment (field-independent basis, Debye):
    X=              3.3689    Y=              3.9786    Z=             -0.4481  Tot=              5.2326
 Quadrupole moment (field-independent basis, Debye-Ang):
   XX=           -112.3595   YY=            -90.9802   ZZ=            -94.8464
   XY=            -16.4088   XZ=              1.8455   YZ=             -0.2272

 Normal termination of Gaussian 16 at Thu May  6 18:59:48 2021.
