 Gaussian 16, Revision A.03,
 Gaussian 16:  EM64L-G16RevA.03 25-Dec-2016

 -------------
 #p 6-31g* mp2
 -------------

 ------------------------------------------------------
 Input file generated by CHIRIPA (05-May-2021 14:55:22)
 ------------------------------------------------------
 Symbolic Z-matrix:
 Charge =  0 Multiplicity = 1

                         Standard orientation:
 ---------------------------------------------------------------------
 Center     Atomic      Atomic             Coordinates (Angstroms)
 Number     Number       Type             X           Y           Z
 ---------------------------------------------------------------------
      1          6           0       -1.769098    1.788036    0.380580
      2          6           0       -2.780753    1.596438    1.327346
      3          6           0       -3.730894    0.585220    1.156416
      4          6           0       -3.639108   -0.219628    0.021918
      5          6           0       -2.643067   -0.053657   -0.939147
      6          6           0       -1.703599    0.963830   -0.747655
      7          1           0       -1.035151    2.576009    0.521349
      8          1           0       -2.834073    2.235017    2.204511
      9          1           0       -4.524580    0.414900    1.873683
     10          1           0       -2.615767   -0.706138   -1.803404
     11          1           0       -0.919035    1.110322   -1.484570
     12          7           0       -4.639330   -1.293477   -0.169921
     13          8           0       -4.536639   -1.989113   -1.177980
     14          8           0       -5.507056   -1.419191    0.691406
     15          6           0        5.188546   -0.120877   -0.015306
     16          6           0        5.440279   -1.557155    0.444823
     17          6           0        6.928434   -1.893110    0.546435
     18          1           0        5.668374    0.034135   -0.991360
     19          1           0        5.674745    0.571819    0.685536
     20          1           0        4.952581   -2.246893   -0.255912
     21          1           0        4.959633   -1.708822    1.419806
     22          1           0        7.425519   -1.228519    1.260456
     23          1           0        7.418427   -1.769647   -0.424783
     24          1           0        7.085486   -2.924583    0.876979
     25          6           0        3.705558    0.230045   -0.121746
     26          6           0        3.453824    1.666324   -0.581873
     27          6           0        1.965670    2.002279   -0.683486
     28          1           0        3.219358   -0.462649   -0.822587
     29          1           0        3.225729    0.075035    0.854308
     30          1           0        3.934470    1.817991   -1.556857
     31          1           0        3.941522    2.356062    0.118860
     32          1           0        1.475676    1.878817    0.287732
     33          1           0        1.468584    1.337689   -1.397507
     34          1           0        1.808617    3.033752   -1.014030
 ---------------------------------------------------------------------

 SCF Done:  E(RHF) =  -669.535036470     A.U. after   15 cycles
 E2 =    -0.2091642463D+01 EUMP2 =    -0.67162667893253D+03

 The electronic state is 1-A.
 Alpha  occ. eigenvalues --  -20.60696 -20.60691 -15.85748 -11.31092 -11.27660
 Alpha  occ. eigenvalues --  -11.27641 -11.27351 -11.26670 -11.26604 -11.22519
 Alpha  occ. eigenvalues --  -11.22384 -11.22077 -11.22013 -11.21899 -11.21402
 Alpha  occ. eigenvalues --   -1.59772  -1.39326  -1.19257  -1.09095  -1.08651
 Alpha  occ. eigenvalues --   -1.04660  -1.04245  -0.96736  -0.95490  -0.87777
 Alpha  occ. eigenvalues --   -0.86046  -0.82328  -0.80339  -0.78852  -0.77380
 Alpha  occ. eigenvalues --   -0.71967  -0.71095  -0.70362  -0.65725  -0.64905
 Alpha  occ. eigenvalues --   -0.64679  -0.62051  -0.61626  -0.60119  -0.58292
 Alpha  occ. eigenvalues --   -0.56105  -0.55096  -0.53455  -0.53265  -0.52942
 Alpha  occ. eigenvalues --   -0.52659  -0.50650  -0.48744  -0.48724  -0.48595
 Alpha  occ. eigenvalues --   -0.47325  -0.46405  -0.46295  -0.44737  -0.44476
 Alpha  occ. eigenvalues --   -0.37219  -0.36258
 Alpha virt. eigenvalues --    0.05133   0.11357   0.16581   0.20376   0.22352
 Alpha virt. eigenvalues --    0.23844   0.25281   0.25930   0.26993   0.27389
 Alpha virt. eigenvalues --    0.29228   0.29490   0.30835   0.31662   0.32112

 Mulliken charges:
               1
     1  C   -0.174185
     2  C   -0.218983
     3  C   -0.171271
     4  C    0.158670
     5  C   -0.172270
     6  C   -0.219738
     7  H    0.228664
     8  H    0.222809
     9  H    0.275106
    10  H    0.275086
    11  H    0.228591
    12  N    0.488049
    13  O   -0.460738
    14  O   -0.460765
    15  C   -0.298963
    16  C   -0.300226
    17  C   -0.476108
    18  H    0.150637
    19  H    0.150206
    20  H    0.153071
    21  H    0.152785
    22  H    0.155463
    23  H    0.155706
    24  H    0.161989
    25  C   -0.299098
    26  C   -0.299782
    27  C   -0.483075
    28  H    0.150324
    29  H    0.150950
    30  H    0.155157
    31  H    0.154542
    32  H    0.154586
    33  H    0.152123
    34  H    0.160688
 Sum of Mulliken charges =  -0.00000

 Dipole moment (field-independent basis, Debye):
    X=              3.7762    Y=              3.7649    Z=              0.6887  Tot=              5.3767
 Quadrupole moment (field-independent basis, Debye-Ang):
   XX=           -120.5013   YY=            -96.8462   ZZ=            -90.3584
   XY=            -14.9588   XZ=             -4.7184   YZ=              1.6341

 Normal termination of Gaussian 16 at Thu May  6 06:15:17 2021.
