 Gaussian 16, Revision A.03,
 Gaussian 16:  EM64L-G16RevA.03 25-Dec-2016

 -------------
 #p 6-31g* mp2
 -------------

 ------------------------------------------------------
 Input file generated by CHIRIPA (05-May-2021 14:51:12)
 ------------------------------------------------------
 Symbolic Z-matrix:
 Charge =  0 Multiplicity = 1

                         Standard orientation:
 ---------------------------------------------------------------------
 Center     Atomic      Atomic             Coordinates (Angstroms)
 Number     Number       Type             X           Y           Z
 ---------------------------------------------------------------------
      1          6           0       -2.966669    0.905501    0.165141
      2          6           0       -4.078761    1.933114   -0.047577
      3          6           0       -3.683527    3.336059    0.414299
      4          1           0       -2.698150    0.880396    1.230135
      5          1           0       -2.067651    1.231096   -0.376290
      6          1           0       -4.975844    1.604977    0.492964
      7          1           0       -4.344797    1.955637   -1.112158
      8          1           0       -2.803154    3.688093   -0.133073
      9          1           0       -3.437787    3.335441    1.481169
     10          1           0       -4.493064    4.054742    0.253039
     11          6           0       -3.346743   -0.501816   -0.291729
     12          6           0       -2.234651   -1.529429   -0.079011
     13          6           0       -2.629885   -2.932374   -0.540887
     14          1           0       -4.245761   -0.827411    0.249702
     15          1           0       -3.615263   -0.476712   -1.356723
     16          1           0       -1.968615   -1.551952    0.985570
     17          1           0       -1.337568   -1.201292   -0.619552
     18          1           0       -2.875626   -2.931756   -1.607757
     19          1           0       -3.510258   -3.284409    0.006485
     20          1           0       -1.820348   -3.651057   -0.379627
     21          6           0        3.012539   -0.882664    0.378144
     22          6           0        1.650281   -1.455815   -0.013943
     23          6           0        1.376386   -2.818180    0.623819
     24          1           0        3.799402   -1.591135    0.085125
     25          1           0        3.063881   -0.793410    1.472124
     26          1           0        1.601002   -1.542667   -1.106941
     27          1           0        0.866582   -0.745811    0.279871
     28          1           0        1.398423   -2.743742    1.715869
     29          1           0        2.137016   -3.545126    0.321178
     30          1           0        0.397328   -3.209398    0.330126
     31          6           0        3.300873    0.478979   -0.251556
     32          6           0        4.663132    1.052131    0.140531
     33          6           0        4.937026    2.414495   -0.497230
     34          1           0        3.249530    0.389725   -1.345536
     35          1           0        2.514010    1.187450    0.041463
     36          1           0        5.446830    0.342126   -0.153283
     37          1           0        4.712409    1.138982    1.233529
     38          1           0        4.176395    3.141441   -0.194589
     39          1           0        4.914988    2.340057   -1.589281
     40          1           0        5.916084    2.805713   -0.203539
 ---------------------------------------------------------------------

 SCF Done:  E(RHF) =  -470.732264514     A.U. after   11 cycles
 E2 =    -0.1584037313D+01 EUMP2 =    -0.47231630182635D+03

 The electronic state is 1-A.
 Alpha  occ. eigenvalues --  -11.21617 -11.21590 -11.21547 -11.21533 -11.21416
 Alpha  occ. eigenvalues --  -11.21382 -11.21352 -11.21318 -11.21087 -11.21085
 Alpha  occ. eigenvalues --  -11.21065 -11.20999  -1.08461  -1.08385  -1.03608
 Alpha  occ. eigenvalues --   -1.03441  -0.96053  -0.95900  -0.87042  -0.86942
 Alpha  occ. eigenvalues --   -0.79719  -0.79483  -0.78353  -0.78119  -0.65081
 Alpha  occ. eigenvalues --   -0.65025  -0.60960  -0.60898  -0.59842  -0.59032
 Alpha  occ. eigenvalues --   -0.57892  -0.57168  -0.55277  -0.55236  -0.52911
 Alpha  occ. eigenvalues --   -0.52566  -0.52457  -0.52154  -0.49950  -0.49881
 Alpha  occ. eigenvalues --   -0.48166  -0.47718  -0.46725  -0.46537  -0.45984
 Alpha  occ. eigenvalues --   -0.45767  -0.45687  -0.45371  -0.43871  -0.43658
 Alpha virt. eigenvalues --    0.21511   0.23151   0.23257   0.25070   0.25676
 Alpha virt. eigenvalues --    0.26486   0.26782   0.27052   0.28473   0.29164
 Alpha virt. eigenvalues --    0.30246   0.30976   0.31448   0.31637   0.32472

 Mulliken charges:
               1
     1  C   -0.298844
     2  C   -0.299548
     3  C   -0.475753
     4  H    0.149261
     5  H    0.149505
     6  H    0.152062
     7  H    0.152082
     8  H    0.155185
     9  H    0.155050
    10  H    0.160365
    11  C   -0.297809
    12  C   -0.305776
    13  C   -0.480338
    14  H    0.149327
    15  H    0.149517
    16  H    0.152154
    17  H    0.160561
    18  H    0.155403
    19  H    0.155556
    20  H    0.162879
    21  C   -0.297950
    22  C   -0.302264
    23  C   -0.482794
    24  H    0.149348
    25  H    0.149404
    26  H    0.150404
    27  H    0.156190
    28  H    0.154653
    29  H    0.154659
    30  H    0.168028
    31  C   -0.298308
    32  C   -0.299572
    33  C   -0.475705
    34  H    0.149158
    35  H    0.149545
    36  H    0.151943
    37  H    0.151960
    38  H    0.155164
    39  H    0.155056
    40  H    0.160243
 Sum of Mulliken charges =  -0.00000

 Dipole moment (field-independent basis, Debye):
    X=             -0.0258    Y=              0.0043    Z=             -0.0044  Tot=              0.0265
 Quadrupole moment (field-independent basis, Debye-Ang):
   XX=            -84.7563   YY=            -86.7068   ZZ=            -83.4800
   XY=             -0.5816   XZ=             -0.5943   YZ=              0.2708

 Normal termination of Gaussian 16 at Thu May  6 02:20:59 2021.
