 Gaussian 16, Revision A.03,
 Gaussian 16:  EM64L-G16RevA.03 25-Dec-2016

 -------------
 #p 6-31g* mp2
 -------------

 ------------------------------------------------------
 Input file generated by CHIRIPA (05-May-2021 14:51:07)
 ------------------------------------------------------
 Symbolic Z-matrix:
 Charge =  0 Multiplicity = 1

                         Standard orientation:
 ---------------------------------------------------------------------
 Center     Atomic      Atomic             Coordinates (Angstroms)
 Number     Number       Type             X           Y           Z
 ---------------------------------------------------------------------
      1          6           0        3.366437    0.111363   -0.622490
      2          6           0        3.269007   -1.408520   -0.486672
      3          6           0        4.442626   -2.137044   -1.142160
      4          1           0        3.415011    0.375558   -1.687754
      5          1           0        4.308814    0.453064   -0.172422
      6          1           0        2.326450   -1.747100   -0.935632
      7          1           0        3.220466   -1.669116    0.578387
      8          1           0        5.389842   -1.827695   -0.688633
      9          1           0        4.490745   -1.906123   -2.211254
     10          1           0        4.352791   -3.222364   -1.033210
     11          6           0        2.200354    0.853692    0.027837
     12          6           0        2.297783    2.373576   -0.107981
     13          6           0        1.124164    3.102100    0.547508
     14          1           0        1.257977    0.511992   -0.422231
     15          1           0        2.151780    0.589497    1.093101
     16          1           0        2.346324    2.634171   -1.173039
     17          1           0        3.240341    2.712155    0.340979
     18          1           0        1.076045    2.871178    1.616601
     19          1           0        0.176949    2.792751    0.093980
     20          1           0        1.213999    4.187420    0.438558
     21          6           0       -3.523935   -0.549981    0.122735
     22          6           0       -3.916758    0.196797   -1.152411
     23          6           0       -5.401336    0.052370   -1.488512
     24          1           0       -3.773753   -1.613726    0.008797
     25          1           0       -4.128578   -0.174853    0.960042
     26          1           0       -3.310582   -0.178660   -1.986796
     27          1           0       -3.665800    1.258856   -1.035498
     28          1           0       -6.020389    0.444733   -0.675232
     29          1           0       -5.663152   -1.000950   -1.631935
     30          1           0       -5.660319    0.593972   -2.403638
     31          6           0       -2.042854   -0.415074    0.471918
     32          6           0       -1.650032   -1.161853    1.747063
     33          6           0       -0.165455   -1.017425    2.083165
     34          1           0       -1.438212   -0.790202   -0.365389
     35          1           0       -1.793037    0.648671    0.585856
     36          1           0       -1.900990   -2.223911    1.630150
     37          1           0       -2.256209   -0.786395    2.581448
     38          1           0        0.096362    0.035895    2.226588
     39          1           0        0.453598   -1.409789    1.269885
     40          1           0        0.093529   -1.559027    2.998291
 ---------------------------------------------------------------------

 SCF Done:  E(RHF) =  -470.731653646     A.U. after   11 cycles
 E2 =    -0.1584989579D+01 EUMP2 =    -0.47231664322565D+03

 The electronic state is 1-A.
 Alpha  occ. eigenvalues --  -11.21613 -11.21607 -11.21547 -11.21540 -11.21400
 Alpha  occ. eigenvalues --  -11.21340 -11.21333 -11.21193 -11.21087 -11.21077
 Alpha  occ. eigenvalues --  -11.21072 -11.20881  -1.08450  -1.08353  -1.03530
 Alpha  occ. eigenvalues --   -1.03480  -0.96011  -0.95895  -0.87029  -0.86924
 Alpha  occ. eigenvalues --   -0.79692  -0.79538  -0.78431  -0.77940  -0.65070
 Alpha  occ. eigenvalues --   -0.64998  -0.60945  -0.60876  -0.59388  -0.59259
 Alpha  occ. eigenvalues --   -0.57753  -0.57404  -0.55248  -0.55230  -0.52738
 Alpha  occ. eigenvalues --   -0.52633  -0.52546  -0.52191  -0.49907  -0.49895
 Alpha  occ. eigenvalues --   -0.48158  -0.47814  -0.46665  -0.46537  -0.46150
 Alpha  occ. eigenvalues --   -0.45731  -0.45543  -0.45048  -0.43756  -0.43741
 Alpha virt. eigenvalues --    0.20967   0.22787   0.23269   0.24000   0.25132
 Alpha virt. eigenvalues --    0.25925   0.26217   0.28021   0.28385   0.30170
 Alpha virt. eigenvalues --    0.30403   0.30676   0.31778   0.31964   0.32177

 Mulliken charges:
               1
     1  C   -0.297573
     2  C   -0.301829
     3  C   -0.475508
     4  H    0.148939
     5  H    0.149099
     6  H    0.150803
     7  H    0.153872
     8  H    0.155384
     9  H    0.155155
    10  H    0.160124
    11  C   -0.303810
    12  C   -0.299235
    13  C   -0.478786
    14  H    0.153129
    15  H    0.155831
    16  H    0.151389
    17  H    0.151431
    18  H    0.154643
    19  H    0.157109
    20  H    0.160379
    21  C   -0.298130
    22  C   -0.299643
    23  C   -0.475671
    24  H    0.149698
    25  H    0.149778
    26  H    0.151504
    27  H    0.151731
    28  H    0.155322
    29  H    0.155212
    30  H    0.160220
    31  C   -0.301763
    32  C   -0.299751
    33  C   -0.481380
    34  H    0.148890
    35  H    0.152539
    36  H    0.151341
    37  H    0.151387
    38  H    0.157921
    39  H    0.162300
    40  H    0.157950
 Sum of Mulliken charges =  -0.00000

 Dipole moment (field-independent basis, Debye):
    X=              0.0188    Y=             -0.0004    Z=              0.0100  Tot=              0.0213
 Quadrupole moment (field-independent basis, Debye-Ang):
   XX=            -86.2322   YY=            -84.6326   ZZ=            -84.1155
   XY=              0.3053   XZ=              0.3713   YZ=              0.2589

 Normal termination of Gaussian 16 at Wed May  5 15:00:57 2021.
