 Gaussian 16, Revision A.03,
 Gaussian 16:  EM64L-G16RevA.03 25-Dec-2016

 -------------
 #p 6-31g* mp2
 -------------

 ------------------------------------------------------
 Input file generated by CHIRIPA (05-May-2021 14:53:18)
 ------------------------------------------------------
 Symbolic Z-matrix:
 Charge =  0 Multiplicity = 1

                         Standard orientation:
 ---------------------------------------------------------------------
 Center     Atomic      Atomic             Coordinates (Angstroms)
 Number     Number       Type             X           Y           Z
 ---------------------------------------------------------------------
      1          6           0       -3.236346   -0.318886    0.065211
      2          6           0       -2.537852   -1.661278   -0.154051
      3          6           0       -3.404054   -2.852423    0.256633
      4          1           0       -3.512686   -0.225243    1.124367
      5          1           0       -4.175362   -0.304569   -0.505261
      6          1           0       -1.599755   -1.672525    0.415566
      7          1           0       -2.262972   -1.751653   -1.212771
      8          1           0       -4.334442   -2.869211   -0.320165
      9          1           0       -3.667457   -2.789634    1.317424
     10          1           0       -2.885331   -3.801905    0.091498
     11          6           0       -2.383034    0.881467   -0.340671
     12          6           0       -3.081528    2.223858   -0.121409
     13          6           0       -2.215326    3.415004   -0.532093
     14          1           0       -1.444018    0.867150    0.229802
     15          1           0       -2.106694    0.787824   -1.399827
     16          1           0       -3.356408    2.314233    0.937312
     17          1           0       -4.019625    2.235106   -0.691025
     18          1           0       -1.951923    3.352215   -1.592884
     19          1           0       -1.284937    3.431792    0.044705
     20          1           0       -2.734049    4.364486   -0.366958
     21          6           0        2.694228    2.228970    0.454723
     22          6           0        1.885553    1.543233    1.367044
     23          6           0        1.602337    0.186366    1.184704
     24          6           0        2.146814   -0.456492    0.074043
     25          6           0        2.955996    0.199222   -0.852538
     26          6           0        3.225930    1.555963   -0.650209
     27          1           0        2.909078    3.282969    0.604133
     28          1           0        1.471264    2.063340    2.226054
     29          1           0        0.979359   -0.368777    1.875452
     30          1           0        3.354627   -0.346219   -1.699300
     31          1           0        3.854279    2.085972   -1.360359
     32          7           0        1.854015   -1.892879   -0.129573
     33          8           0        2.345818   -2.436467   -1.116123
     34          8           0        1.138261   -2.447935    0.701237
 ---------------------------------------------------------------------

 SCF Done:  E(RHF) =  -669.536365608     A.U. after   15 cycles
 E2 =    -0.2092907885D+01 EUMP2 =    -0.67162927349285D+03

 The electronic state is 1-A.
 Alpha  occ. eigenvalues --  -20.60947 -20.60941 -15.85965 -11.31304 -11.27890
 Alpha  occ. eigenvalues --  -11.27861 -11.27606 -11.26900 -11.26865 -11.21656
 Alpha  occ. eigenvalues --  -11.21288 -11.21257 -11.21026 -11.20824 -11.20343
 Alpha  occ. eigenvalues --   -1.59995  -1.39555  -1.19476  -1.08872  -1.08182
 Alpha  occ. eigenvalues --   -1.04879  -1.03225  -0.95715  -0.95710  -0.86736
 Alpha  occ. eigenvalues --   -0.86275  -0.82552  -0.79331  -0.77955  -0.77582
 Alpha  occ. eigenvalues --   -0.72194  -0.71300  -0.70582  -0.65136  -0.64894
 Alpha  occ. eigenvalues --   -0.64815  -0.62227  -0.60630  -0.59109  -0.57277
 Alpha  occ. eigenvalues --   -0.55375  -0.55031  -0.53202  -0.52968  -0.52392
 Alpha  occ. eigenvalues --   -0.52131  -0.49694  -0.48965  -0.48949  -0.47636
 Alpha  occ. eigenvalues --   -0.46400  -0.45640  -0.45445  -0.44653  -0.43483
 Alpha  occ. eigenvalues --   -0.37437  -0.36444
 Alpha virt. eigenvalues --    0.04878   0.11093   0.16330   0.20937   0.23045
 Alpha virt. eigenvalues --    0.24472   0.26045   0.27274   0.27586   0.28216
 Alpha virt. eigenvalues --    0.28846   0.30334   0.31535   0.31816   0.32527

 Mulliken charges:
               1
     1  C   -0.298164
     2  C   -0.307450
     3  C   -0.475319
     4  H    0.146215
     5  H    0.148222
     6  H    0.166140
     7  H    0.151401
     8  H    0.150881
     9  H    0.151861
    10  H    0.167611
    11  C   -0.299913
    12  C   -0.299051
    13  C   -0.474635
    14  H    0.145903
    15  H    0.150151
    16  H    0.149751
    17  H    0.153255
    18  H    0.155839
    19  H    0.149326
    20  H    0.159160
    21  C   -0.170143
    22  C   -0.219088
    23  C   -0.170357
    24  C    0.159589
    25  C   -0.170535
    26  C   -0.218079
    27  H    0.226495
    28  H    0.224213
    29  H    0.275853
    30  H    0.275945
    31  H    0.224076
    32  N    0.488723
    33  O   -0.458607
    34  O   -0.459267
 Sum of Mulliken charges =  -0.00000

 Dipole moment (field-independent basis, Debye):
    X=              1.2486    Y=              4.9195    Z=              0.6821  Tot=              5.1211
 Quadrupole moment (field-independent basis, Debye-Ang):
   XX=            -89.7888   YY=           -100.8993   ZZ=            -90.5806
   XY=             10.2895   XZ=             -0.5331   YZ=              0.3180

 Normal termination of Gaussian 16 at Wed May  5 17:17:49 2021.
