 Gaussian 16, Revision A.03,
 Gaussian 16:  EM64L-G16RevA.03 25-Dec-2016

 -------------
 #p 6-31g* mp2
 -------------

 ------------------------------------------------------
 Input file generated by CHIRIPA (05-May-2021 14:57:22)
 ------------------------------------------------------
 Symbolic Z-matrix:
 Charge =  0 Multiplicity = 1

                         Standard orientation:
 ---------------------------------------------------------------------
 Center     Atomic      Atomic             Coordinates (Angstroms)
 Number     Number       Type             X           Y           Z
 ---------------------------------------------------------------------
      1          6           0        0.751631    2.518799    0.270197
      2          6           0        1.881212    2.240848    1.046928
      3          6           0        2.698361    1.147167    0.745802
      4          6           0        2.354778    0.348808   -0.344090
      5          6           0        1.235983    0.599762   -1.136939
      6          6           0        0.433183    1.698814   -0.817340
      7          1           0        0.122423    3.370483    0.511294
      8          1           0        2.130956    2.875938    1.892111
      9          1           0        3.578700    0.909067    1.330379
     10          1           0        1.012663   -0.051466   -1.973270
     11          1           0       -0.443451    1.912272   -1.422314
     12          7           0        3.212262   -0.811866   -0.672657
     13          8           0        2.887921   -1.499907   -1.638079
     14          8           0        4.192463   -1.011584    0.041456
     15          6           0       -0.673594   -1.872641    1.779599
     16          6           0       -1.099899   -2.405056    0.558403
     17          6           0       -1.953103   -1.675654   -0.275002
     18          6           0       -2.362322   -0.411277    0.145923
     19          6           0       -1.954947    0.146450    1.356822
     20          6           0       -1.101724   -0.600829    2.174216
     21          1           0       -0.010797   -2.446201    2.420789
     22          1           0       -0.769011   -3.392506    0.249372
     23          1           0       -2.298454   -2.063771   -1.225536
     24          1           0       -2.301688    1.133478    1.637827
     25          1           0       -0.772256   -0.184827    3.122075
     26          7           0       -3.265581    0.370372   -0.727890
     27          8           0       -3.611840    1.482020   -0.334215
     28          8           0       -3.610195   -0.143422   -1.789914
 ---------------------------------------------------------------------

 SCF Done:  E(RHF) =  -868.338216187     A.U. after   16 cycles
 E2 =    -0.2604201199D+01 EUMP2 =    -0.87094241738528D+03

 The electronic state is 1-A.
 Alpha  occ. eigenvalues --  -20.61446 -20.61426 -20.61108 -20.61100 -15.86463
 Alpha  occ. eigenvalues --  -15.86152 -11.31530 -11.31398 -11.28142 -11.28064
 Alpha  occ. eigenvalues --  -11.27979 -11.27893 -11.27754 -11.27617 -11.27069
 Alpha  occ. eigenvalues --  -11.26984 -11.26973 -11.26838  -1.60528  -1.60187
 Alpha  occ. eigenvalues --   -1.40083  -1.39742  -1.19738  -1.19521  -1.09153
 Alpha  occ. eigenvalues --   -1.08964  -1.05069  -1.04935  -0.96030  -0.95821
 Alpha  occ. eigenvalues --   -0.86495  -0.86324  -0.82869  -0.82658  -0.77959
 Alpha  occ. eigenvalues --   -0.77731  -0.72682  -0.72373  -0.71885  -0.71512
 Alpha  occ. eigenvalues --   -0.70820  -0.70632  -0.65360  -0.65204  -0.65052
 Alpha  occ. eigenvalues --   -0.64921  -0.62431  -0.62280  -0.55556  -0.55418
 Alpha  occ. eigenvalues --   -0.54210  -0.53152  -0.53018  -0.52482  -0.49465
 Alpha  occ. eigenvalues --   -0.49415  -0.49136  -0.49120  -0.45540  -0.45176
 Alpha  occ. eigenvalues --   -0.38211  -0.37519  -0.36411  -0.36162
 Alpha virt. eigenvalues --    0.04474   0.04802   0.10516   0.11581   0.15936
 Alpha virt. eigenvalues --    0.16452   0.20828   0.21556   0.26833   0.26932
 Alpha virt. eigenvalues --    0.27879   0.28562   0.30625   0.30979   0.32056

 Mulliken charges:
               1
     1  C   -0.173915
     2  C   -0.220941
     3  C   -0.173729
     4  C    0.158792
     5  C   -0.167642
     6  C   -0.221654
     7  H    0.229517
     8  H    0.221868
     9  H    0.273614
    10  H    0.275739
    11  H    0.233539
    12  N    0.487262
    13  O   -0.461158
    14  O   -0.462243
    15  C   -0.171211
    16  C   -0.217153
    17  C   -0.175074
    18  C    0.156453
    19  C   -0.167837
    20  C   -0.214235
    21  H    0.230120
    22  H    0.230368
    23  H    0.276542
    24  H    0.269494
    25  H    0.222157
    26  N    0.484954
    27  O   -0.465209
    28  O   -0.458416
 Sum of Mulliken charges =  -0.00000

 Dipole moment (field-independent basis, Debye):
    X=              0.1412    Y=              1.1961    Z=              4.2325  Tot=              4.4005
 Quadrupole moment (field-independent basis, Debye-Ang):
   XX=           -134.4423   YY=            -97.1339   ZZ=           -100.1314
   XY=             14.7427   XZ=             -0.4259   YZ=              0.9061

 Normal termination of Gaussian 16 at Thu May  6 19:34:18 2021.
