 Gaussian 16, Revision A.03,
 Gaussian 16:  EM64L-G16RevA.03 25-Dec-2016

 -------------
 #p 6-31g* mp2
 -------------

 ------------------------------------------------------
 Input file generated by CHIRIPA (05-May-2021 14:51:09)
 ------------------------------------------------------
 Symbolic Z-matrix:
 Charge =  0 Multiplicity = 1

                         Standard orientation:
 ---------------------------------------------------------------------
 Center     Atomic      Atomic             Coordinates (Angstroms)
 Number     Number       Type             X           Y           Z
 ---------------------------------------------------------------------
      1          6           0       -4.273207   -0.109827    0.261444
      2          6           0       -5.082040   -0.806949   -0.832994
      3          6           0       -6.558696   -0.410573   -0.820067
      4          1           0       -4.710132   -0.349606    1.240499
      5          1           0       -4.362840    0.978254    0.137186
      6          1           0       -4.989782   -1.893395   -0.707537
      7          1           0       -4.643023   -0.565637   -1.809543
      8          1           0       -6.669218    0.668534   -0.968098
      9          1           0       -7.017947   -0.666767    0.140170
     10          1           0       -7.118188   -0.920504   -1.610509
     11          6           0       -2.795139   -0.495889    0.261387
     12          6           0       -1.986306    0.201232    1.355826
     13          6           0       -0.509649   -0.195143    1.342898
     14          1           0       -2.705505   -1.583970    0.385646
     15          1           0       -2.358214   -0.256110   -0.717667
     16          1           0       -2.425323   -0.040079    2.332375
     17          1           0       -2.078564    1.287678    1.230368
     18          1           0       -0.050399    0.061051    0.382662
     19          1           0       -0.399128   -1.274250    1.490930
     20          1           0        0.049842    0.314788    2.133341
     21          6           0        3.997474   -0.167784    0.122356
     22          6           0        4.612595   -1.260167   -0.753034
     23          6           0        5.537041   -2.193764    0.029009
     24          1           0        4.802668    0.416790    0.588060
     25          1           0        3.437269   -0.637221    0.942840
     26          1           0        5.170323   -0.788820   -1.572417
     27          1           0        3.805843   -1.842089   -1.216860
     28          1           0        4.989424   -2.690618    0.836384
     29          1           0        6.361657   -1.631365    0.478806
     30          1           0        5.965834   -2.967007   -0.616043
     31          6           0        3.070872    0.773500   -0.645187
     32          6           0        2.455750    1.865884    0.230203
     33          6           0        1.531305    2.799480   -0.551841
     34          1           0        3.631077    1.242937   -1.465672
     35          1           0        2.265678    0.188926   -1.110892
     36          1           0        3.262504    2.447804    0.694028
     37          1           0        1.898022    1.394537    1.049586
     38          1           0        0.706689    2.237081   -1.001638
     39          1           0        2.078922    3.296333   -1.359216
     40          1           0        1.102512    3.572723    0.093210
 ---------------------------------------------------------------------

 SCF Done:  E(RHF) =  -470.732155505     A.U. after   11 cycles
 E2 =    -0.1583888249D+01 EUMP2 =    -0.47231604375375D+03

 The electronic state is 1-A.
 Alpha  occ. eigenvalues --  -11.21655 -11.21626 -11.21552 -11.21449 -11.21425
 Alpha  occ. eigenvalues --  -11.21386 -11.21337 -11.21279 -11.21137 -11.21089
 Alpha  occ. eigenvalues --  -11.21045 -11.21032  -1.08481  -1.08357  -1.03612
 Alpha  occ. eigenvalues --   -1.03440  -0.96051  -0.95916  -0.87080  -0.86930
 Alpha  occ. eigenvalues --   -0.79693  -0.79491  -0.78287  -0.78174  -0.65227
 Alpha  occ. eigenvalues --   -0.64925  -0.61266  -0.60634  -0.59459  -0.59241
 Alpha  occ. eigenvalues --   -0.57663  -0.57514  -0.55435  -0.55074  -0.52780
 Alpha  occ. eigenvalues --   -0.52609  -0.52456  -0.52348  -0.50028  -0.49811
 Alpha  occ. eigenvalues --   -0.47970  -0.47841  -0.46719  -0.46491  -0.45864
 Alpha  occ. eigenvalues --   -0.45764  -0.45651  -0.45623  -0.43779  -0.43703
 Alpha virt. eigenvalues --    0.20696   0.22976   0.23743   0.25162   0.25923
 Alpha virt. eigenvalues --    0.26187   0.26865   0.27759   0.28108   0.29334
 Alpha virt. eigenvalues --    0.30162   0.30961   0.31774   0.32008   0.32610

 Mulliken charges:
               1
     1  C   -0.298385
     2  C   -0.299702
     3  C   -0.475743
     4  H    0.149772
     5  H    0.149826
     6  H    0.151920
     7  H    0.152022
     8  H    0.155304
     9  H    0.155204
    10  H    0.160347
    11  C   -0.298695
    12  C   -0.299941
    13  C   -0.482190
    14  H    0.149594
    15  H    0.149336
    16  H    0.152167
    17  H    0.153025
    18  H    0.161698
    19  H    0.154941
    20  H    0.161673
    21  C   -0.298583
    22  C   -0.299630
    23  C   -0.475681
    24  H    0.149404
    25  H    0.150539
    26  H    0.151694
    27  H    0.151956
    28  H    0.155196
    29  H    0.155044
    30  H    0.160039
    31  C   -0.299014
    32  C   -0.307467
    33  C   -0.476098
    34  H    0.149216
    35  H    0.149277
    36  H    0.151462
    37  H    0.161568
    38  H    0.153836
    39  H    0.155230
    40  H    0.159836
 Sum of Mulliken charges =  -0.00000

 Dipole moment (field-independent basis, Debye):
    X=             -0.0424    Y=             -0.0145    Z=              0.0334  Tot=              0.0559
 Quadrupole moment (field-independent basis, Debye-Ang):
   XX=            -85.9004   YY=            -84.5191   ZZ=            -84.5279
   XY=              1.3198   XZ=             -0.6758   YZ=             -0.2536

 Normal termination of Gaussian 16 at Wed May  5 16:37:44 2021.
