 Gaussian 16, Revision A.03,
 Gaussian 16:  EM64L-G16RevA.03 25-Dec-2016

 -------------
 #p 6-31g* mp2
 -------------

 ------------------------------------------------------
 Input file generated by CHIRIPA (05-May-2021 14:53:16)
 ------------------------------------------------------
 Symbolic Z-matrix:
 Charge =  0 Multiplicity = 1

                         Standard orientation:
 ---------------------------------------------------------------------
 Center     Atomic      Atomic             Coordinates (Angstroms)
 Number     Number       Type             X           Y           Z
 ---------------------------------------------------------------------
      1          6           0        3.205475   -0.526504   -0.215163
      2          6           0        2.854125   -1.928588    0.283535
      3          6           0        1.401272   -2.310517   -0.001323
      4          1           0        2.533647    0.202954    0.257576
      5          1           0        3.016025   -0.471208   -1.296110
      6          1           0        3.045492   -1.981639    1.362970
      7          1           0        3.526993   -2.654772   -0.190300
      8          1           0        1.200248   -2.285595   -1.077227
      9          1           0        0.716011   -1.608637    0.484869
     10          1           0        1.171707   -3.316536    0.363487
     11          6           0        4.654518   -0.130259    0.062310
     12          6           0        5.005869    1.271825   -0.436388
     13          6           0        6.458721    1.653754   -0.151531
     14          1           0        4.843969   -0.185555    1.143256
     15          1           0        5.326347   -0.859717   -0.410430
     16          1           0        4.333000    1.998009    0.037447
     17          1           0        4.814501    1.324876   -1.515824
     18          1           0        7.143983    0.951874   -0.637723
     19          1           0        6.659746    1.628832    0.924373
     20          1           0        6.688287    2.659773   -0.516341
     21          6           0       -3.147764    2.775603    0.179231
     22          6           0       -2.139162    2.073786    0.847583
     23          6           0       -2.086464    0.677985    0.788309
     24          6           0       -3.062822    0.013015    0.048153
     25          6           0       -4.080254    0.683911   -0.628618
     26          6           0       -4.113388    2.079653   -0.555441
     27          1           0       -3.181102    3.859871    0.230677
     28          1           0       -1.387924    2.611640    1.418897
     29          1           0       -1.316700    0.109652    1.296128
     30          1           0       -4.815206    0.120052   -1.190158
     31          1           0       -4.897842    2.622073   -1.075499
     32          7           0       -3.017388   -1.464625   -0.021957
     33          8           0       -3.889313   -2.027080   -0.680768
     34          8           0       -2.110715   -2.032366    0.583229
 ---------------------------------------------------------------------

 SCF Done:  E(RHF) =  -669.535486381     A.U. after   15 cycles
 E2 =    -0.2091435701D+01 EUMP2 =    -0.67162692208200D+03

 The electronic state is 1-A.
 Alpha  occ. eigenvalues --  -20.60825 -20.60808 -15.85852 -11.31227 -11.27803
 Alpha  occ. eigenvalues --  -11.27790 -11.27537 -11.26816 -11.26805 -11.21621
 Alpha  occ. eigenvalues --  -11.21300 -11.21216 -11.21119 -11.21102 -11.20208
 Alpha  occ. eigenvalues --   -1.59883  -1.39438  -1.19399  -1.08793  -1.08255
 Alpha  occ. eigenvalues --   -1.04805  -1.03258  -0.95701  -0.95603  -0.86681
 Alpha  occ. eigenvalues --   -0.86203  -0.82462  -0.79332  -0.78069  -0.77499
 Alpha  occ. eigenvalues --   -0.72078  -0.71197  -0.70511  -0.65057  -0.64904
 Alpha  occ. eigenvalues --   -0.64804  -0.62163  -0.60659  -0.59084  -0.57290
 Alpha  occ. eigenvalues --   -0.55308  -0.54972  -0.53130  -0.52904  -0.52316
 Alpha  occ. eigenvalues --   -0.52102  -0.49662  -0.48836  -0.48820  -0.47629
 Alpha  occ. eigenvalues --   -0.46392  -0.45619  -0.45530  -0.44763  -0.43504
 Alpha  occ. eigenvalues --   -0.37377  -0.36405
 Alpha virt. eigenvalues --    0.05002   0.11218   0.16492   0.20828   0.22950
 Alpha virt. eigenvalues --    0.24124   0.25984   0.27157   0.27655   0.27806
 Alpha virt. eigenvalues --    0.29064   0.30323   0.31530   0.31949   0.32355

 Mulliken charges:
               1
     1  C   -0.295890
     2  C   -0.302259
     3  C   -0.472396
     4  H    0.141690
     5  H    0.149716
     6  H    0.149419
     7  H    0.150925
     8  H    0.153111
     9  H    0.157788
    10  H    0.167206
    11  C   -0.297797
    12  C   -0.298842
    13  C   -0.475508
    14  H    0.148714
    15  H    0.150700
    16  H    0.148434
    17  H    0.151981
    18  H    0.156031
    19  H    0.154836
    20  H    0.159201
    21  C   -0.170580
    22  C   -0.219190
    23  C   -0.171390
    24  C    0.157695
    25  C   -0.170727
    26  C   -0.218551
    27  H    0.225767
    28  H    0.223618
    29  H    0.277973
    30  H    0.275728
    31  H    0.223603
    32  N    0.489055
    33  O   -0.460049
    34  O   -0.460012
 Sum of Mulliken charges =  -0.00000

 Dipole moment (field-independent basis, Debye):
    X=             -0.3135    Y=              5.1022    Z=              0.2292  Tot=              5.1170
 Quadrupole moment (field-independent basis, Debye-Ang):
   XX=            -92.0739   YY=            -94.9614   ZZ=            -92.9022
   XY=            -16.8111   XZ=              1.5783   YZ=              0.5497

 Normal termination of Gaussian 16 at Wed May  5 23:33:34 2021.
