 Gaussian 16, Revision A.03,
 Gaussian 16:  EM64L-G16RevA.03 25-Dec-2016

 -------------
 #p 6-31g* mp2
 -------------

 ------------------------------------------------------
 Input file generated by CHIRIPA (05-May-2021 14:51:14)
 ------------------------------------------------------
 Symbolic Z-matrix:
 Charge =  0 Multiplicity = 1

                         Standard orientation:
 ---------------------------------------------------------------------
 Center     Atomic      Atomic             Coordinates (Angstroms)
 Number     Number       Type             X           Y           Z
 ---------------------------------------------------------------------
      1          6           0        4.575026   -0.275111   -0.256643
      2          6           0        5.458554    0.401595    0.791895
      3          6           0        6.794624    0.877681    0.220884
      4          1           0        5.116304   -1.128596   -0.687372
      5          1           0        4.392770    0.427824   -1.081301
      6          1           0        5.637949   -0.301936    1.614985
      7          1           0        4.915037    1.253453    1.220314
      8          1           0        6.633293    1.599242   -0.586534
      9          1           0        7.360312    0.035016   -0.189620
     10          1           0        7.410382    1.358385    0.987451
     11          6           0        3.235905   -0.756517    0.298993
     12          6           0        2.352377   -1.433223   -0.749545
     13          6           0        1.016307   -1.909309   -0.178534
     14          1           0        3.418161   -1.459451    1.123651
     15          1           0        2.694628    0.096968    0.729722
     16          1           0        2.895894   -2.285080   -1.177964
     17          1           0        2.172983   -0.729692   -1.572636
     18          1           0        0.450619   -1.066644    0.231970
     19          1           0        1.177638   -2.630870    0.628884
     20          1           0        0.400549   -2.390013   -0.945101
     21          6           0       -3.190685    0.530595   -0.290064
     22          6           0       -2.480838    1.863850   -0.052291
     23          6           0       -1.051790    1.877898   -0.595813
     24          1           0       -2.610327   -0.275389    0.179530
     25          1           0       -3.205292    0.318069   -1.368032
     26          1           0       -2.468796    2.074469    1.024794
     27          1           0       -3.063054    2.666778   -0.522342
     28          1           0       -1.048190    1.692746   -1.674844
     29          1           0       -0.450556    1.097071   -0.118917
     30          1           0       -0.562980    2.840328   -0.415106
     31          6           0       -4.620247    0.501032    0.247715
     32          6           0       -5.330093   -0.832222    0.009941
     33          6           0       -6.759142   -0.846270    0.553463
     34          1           0       -4.605640    0.713558    1.325683
     35          1           0       -5.200605    1.307016   -0.221879
     36          1           0       -4.747878   -1.635150    0.479992
     37          1           0       -5.342136   -1.042840   -1.067143
     38          1           0       -7.360375   -0.065443    0.076568
     39          1           0       -6.762741   -0.661118    1.632495
     40          1           0       -7.247951   -1.808700    0.372757
 ---------------------------------------------------------------------

 SCF Done:  E(RHF) =  -470.733286769     A.U. after   11 cycles
 E2 =    -0.1582622907D+01 EUMP2 =    -0.47231590967658D+03

 The electronic state is 1-A.
 Alpha  occ. eigenvalues --  -11.21617 -11.21586 -11.21585 -11.21580 -11.21395
 Alpha  occ. eigenvalues --  -11.21387 -11.21335 -11.21328 -11.21098 -11.21059
 Alpha  occ. eigenvalues --  -11.21059 -11.21057  -1.08430  -1.08409  -1.03548
 Alpha  occ. eigenvalues --   -1.03501  -0.96004  -0.95948  -0.87022  -0.86965
 Alpha  occ. eigenvalues --   -0.79629  -0.79546  -0.78250  -0.78210  -0.65107
 Alpha  occ. eigenvalues --   -0.65001  -0.61070  -0.60801  -0.59351  -0.59332
 Alpha  occ. eigenvalues --   -0.57633  -0.57543  -0.55416  -0.55128  -0.52683
 Alpha  occ. eigenvalues --   -0.52655  -0.52470  -0.52334  -0.50066  -0.49793
 Alpha  occ. eigenvalues --   -0.48005  -0.47805  -0.46754  -0.46482  -0.45843
 Alpha  occ. eigenvalues --   -0.45734  -0.45714  -0.45571  -0.43785  -0.43768
 Alpha virt. eigenvalues --    0.20839   0.23012   0.23580   0.24940   0.25937
 Alpha virt. eigenvalues --    0.26611   0.27243   0.27495   0.28127   0.29030
 Alpha virt. eigenvalues --    0.30394   0.31534   0.31753   0.31927   0.31971

 Mulliken charges:
               1
     1  C   -0.298324
     2  C   -0.299675
     3  C   -0.475708
     4  H    0.149567
     5  H    0.149885
     6  H    0.151798
     7  H    0.152046
     8  H    0.155246
     9  H    0.155125
    10  H    0.160182
    11  C   -0.298809
    12  C   -0.299766
    13  C   -0.481014
    14  H    0.149326
    15  H    0.149802
    16  H    0.151935
    17  H    0.153045
    18  H    0.159443
    19  H    0.154926
    20  H    0.160863
    21  C   -0.299605
    22  C   -0.299422
    23  C   -0.481668
    24  H    0.151420
    25  H    0.149522
    26  H    0.151798
    27  H    0.152056
    28  H    0.155442
    29  H    0.160454
    30  H    0.160057
    31  C   -0.298317
    32  C   -0.299709
    33  C   -0.475709
    34  H    0.149493
    35  H    0.149587
    36  H    0.152311
    37  H    0.151877
    38  H    0.155097
    39  H    0.155174
    40  H    0.160250
 Sum of Mulliken charges =  -0.00000

 Dipole moment (field-independent basis, Debye):
    X=             -0.0040    Y=             -0.0036    Z=             -0.0098  Tot=              0.0111
 Quadrupole moment (field-independent basis, Debye-Ang):
   XX=            -86.6356   YY=            -84.0707   ZZ=            -84.0971
   XY=             -1.0572   XZ=              1.0149   YZ=             -0.3579

 Normal termination of Gaussian 16 at Wed May  5 21:37:25 2021.
