 Gaussian 16, Revision A.03,
 Gaussian 16:  EM64L-G16RevA.03 25-Dec-2016

 -------------
 #p 6-31g* mp2
 -------------

 ------------------------------------------------------
 Input file generated by CHIRIPA (05-May-2021 14:51:10)
 ------------------------------------------------------
 Symbolic Z-matrix:
 Charge =  0 Multiplicity = 1

                         Standard orientation:
 ---------------------------------------------------------------------
 Center     Atomic      Atomic             Coordinates (Angstroms)
 Number     Number       Type             X           Y           Z
 ---------------------------------------------------------------------
      1          6           0       -4.642583   -0.251134    0.323760
      2          6           0       -5.859139   -0.725144   -0.472036
      3          6           0       -6.573346   -1.905534    0.187040
      4          1           0       -3.940146   -1.087723    0.440571
      5          1           0       -4.962876    0.031747    1.336077
      6          1           0       -5.536869   -1.005738   -1.482989
      7          1           0       -6.558674    0.112722   -0.587131
      8          1           0       -6.922524   -1.634077    1.188532
      9          1           0       -5.894913   -2.758892    0.287584
     10          1           0       -7.439889   -2.228189   -0.398501
     11          6           0       -3.918041    0.928367   -0.322417
     12          6           0       -2.701485    1.402377    0.473380
     13          6           0       -1.987278    2.582767   -0.185696
     14          1           0       -3.597748    0.645486   -1.334734
     15          1           0       -4.620478    1.764956   -0.439228
     16          1           0       -2.001950    0.564511    0.588475
     17          1           0       -3.023755    1.682971    1.484332
     18          1           0       -2.665711    3.436125   -0.286241
     19          1           0       -1.638101    2.311310   -1.187189
     20          1           0       -1.120735    2.905422    0.399844
     21          6           0        4.917342    0.057131    0.144272
     22          6           0        6.195492   -0.689842   -0.238284
     23          6           0        7.461503    0.114774    0.057691
     24          1           0        4.881907    1.011865   -0.398104
     25          1           0        4.952813    0.306396    1.213854
     26          1           0        6.157000   -0.938839   -1.306524
     27          1           0        6.227793   -1.642994    0.304921
     28          1           0        7.527110    0.351113    1.124669
     29          1           0        7.455913    1.059270   -0.495931
     30          1           0        8.363357   -0.437930   -0.223444
     31          6           0        3.643282   -0.734364   -0.145616
     32          6           0        2.365132    0.012608    0.236941
     33          6           0        1.099121   -0.792007   -0.059035
     34          1           0        3.607811   -0.983630   -1.215197
     35          1           0        3.678716   -1.689097    0.396761
     36          1           0        2.332831    0.965762   -0.306264
     37          1           0        2.403624    0.261606    1.305180
     38          1           0        1.104710   -1.736503    0.494588
     39          1           0        1.033514   -1.028346   -1.126013
     40          1           0        0.197266   -0.239303    0.222101
 ---------------------------------------------------------------------

 SCF Done:  E(RHF) =  -470.733352377     A.U. after   11 cycles
 E2 =    -0.1582471110D+01 EUMP2 =    -0.47231582348768D+03

 The electronic state is 1-A.
 Alpha  occ. eigenvalues --  -11.21607 -11.21603 -11.21597 -11.21587 -11.21408
 Alpha  occ. eigenvalues --  -11.21391 -11.21348 -11.21332 -11.21076 -11.21075
 Alpha  occ. eigenvalues --  -11.21072 -11.21057  -1.08436  -1.08418  -1.03552
 Alpha  occ. eigenvalues --   -1.03508  -0.96004  -0.95954  -0.87009  -0.86984
 Alpha  occ. eigenvalues --   -0.79634  -0.79554  -0.78248  -0.78231  -0.65069
 Alpha  occ. eigenvalues --   -0.65057  -0.60981  -0.60923  -0.59453  -0.59236
 Alpha  occ. eigenvalues --   -0.57675  -0.57495  -0.55285  -0.55243  -0.52715
 Alpha  occ. eigenvalues --   -0.52647  -0.52409  -0.52394  -0.49928  -0.49907
 Alpha  occ. eigenvalues --   -0.47996  -0.47837  -0.46629  -0.46611  -0.45797
 Alpha  occ. eigenvalues --   -0.45768  -0.45712  -0.45696  -0.43802  -0.43721
 Alpha virt. eigenvalues --    0.21337   0.23040   0.23557   0.25126   0.26250
 Alpha virt. eigenvalues --    0.26641   0.27187   0.27434   0.27895   0.28775
 Alpha virt. eigenvalues --    0.30381   0.31356   0.31596   0.31675   0.32217

 Mulliken charges:
               1
     1  C   -0.298546
     2  C   -0.299661
     3  C   -0.475730
     4  H    0.150161
     5  H    0.149432
     6  H    0.152004
     7  H    0.151852
     8  H    0.155121
     9  H    0.155296
    10  H    0.160197
    11  C   -0.297657
    12  C   -0.307353
    13  C   -0.475875
    14  H    0.149738
    15  H    0.149600
    16  H    0.157888
    17  H    0.152175
    18  H    0.155364
    19  H    0.155517
    20  H    0.160406
    21  C   -0.298246
    22  C   -0.299637
    23  C   -0.475709
    24  H    0.149720
    25  H    0.149532
    26  H    0.151916
    27  H    0.151929
    28  H    0.155190
    29  H    0.155208
    30  H    0.160251
    31  C   -0.298583
    32  C   -0.298779
    33  C   -0.484702
    34  H    0.149476
    35  H    0.149616
    36  H    0.152345
    37  H    0.151883
    38  H    0.155064
    39  H    0.154903
    40  H    0.168694
 Sum of Mulliken charges =  -0.00000

 Dipole moment (field-independent basis, Debye):
    X=             -0.0026    Y=              0.0051    Z=             -0.0006  Tot=              0.0057
 Quadrupole moment (field-independent basis, Debye-Ang):
   XX=            -85.8609   YY=            -85.1385   ZZ=            -83.7732
   XY=             -1.3819   XZ=             -0.2018   YZ=              0.1720

 Normal termination of Gaussian 16 at Thu May  6 06:57:58 2021.
