 Gaussian 16, Revision A.03,
 Gaussian 16:  EM64L-G16RevA.03 25-Dec-2016

 -------------
 #p 6-31g* mp2
 -------------

 ------------------------------------------------------
 Input file generated by CHIRIPA (05-May-2021 14:55:25)
 ------------------------------------------------------
 Symbolic Z-matrix:
 Charge =  0 Multiplicity = 1

                         Standard orientation:
 ---------------------------------------------------------------------
 Center     Atomic      Atomic             Coordinates (Angstroms)
 Number     Number       Type             X           Y           Z
 ---------------------------------------------------------------------
      1          6           0        1.890614   -2.613676    0.676416
      2          6           0        3.247949   -2.296355    0.560353
      3          6           0        3.646787   -1.010533    0.183343
      4          6           0        2.657199   -0.062269   -0.071218
      5          6           0        1.296924   -0.347753    0.035745
      6          6           0        0.921143   -1.640079    0.414204
      7          1           0        1.589743   -3.615060    0.969850
      8          1           0        4.003043   -3.050451    0.763373
      9          1           0        4.690594   -0.737811    0.085837
     10          1           0        0.567286    0.425169   -0.173153
     11          1           0       -0.133714   -1.883678    0.503537
     12          7           0        3.067226    1.302416   -0.471109
     13          8           0        2.175915    2.119938   -0.689874
     14          8           0        4.272153    1.528694   -0.558206
     15          6           0       -2.817161    0.940073   -0.083439
     16          6           0       -3.130657    2.158549    0.785482
     17          6           0       -2.126410    3.295447    0.593802
     18          1           0       -1.805629    0.581095    0.150826
     19          1           0       -2.804005    1.244836   -1.139063
     20          1           0       -3.144584    1.851295    1.839056
     21          1           0       -4.141635    2.514552    0.549258
     22          1           0       -2.117601    3.630011   -0.448595
     23          1           0       -1.114884    2.962986    0.848532
     24          1           0       -2.369440    4.156357    1.224381
     25          6           0       -3.812270   -0.204880    0.097036
     26          6           0       -3.498774   -1.423354   -0.771887
     27          6           0       -4.503021   -2.560253   -0.580205
     28          1           0       -3.825426   -0.509642    1.152659
     29          1           0       -4.823802    0.154099   -0.137230
     30          1           0       -2.487796   -1.779357   -0.535662
     31          1           0       -3.484847   -1.116101   -1.825460
     32          1           0       -5.514547   -2.227791   -0.834935
     33          1           0       -4.511830   -2.894817    0.462191
     34          1           0       -4.259990   -3.421163   -1.210784
 ---------------------------------------------------------------------

 SCF Done:  E(RHF) =  -669.535288232     A.U. after   15 cycles
 E2 =    -0.2092525468D+01 EUMP2 =    -0.67162781370013D+03

 The electronic state is 1-A.
 Alpha  occ. eigenvalues --  -20.60752 -20.60745 -15.85799 -11.31152 -11.27731
 Alpha  occ. eigenvalues --  -11.27697 -11.27476 -11.26747 -11.26726 -11.22380
 Alpha  occ. eigenvalues --  -11.22016 -11.21958 -11.21821 -11.21713 -11.20947
 Alpha  occ. eigenvalues --   -1.59823  -1.39376  -1.19330  -1.08979  -1.08728
 Alpha  occ. eigenvalues --   -1.04735  -1.03956  -0.96376  -0.95564  -0.87388
 Alpha  occ. eigenvalues --   -0.86134  -0.82401  -0.80038  -0.78811  -0.77431
 Alpha  occ. eigenvalues --   -0.72018  -0.71145  -0.70450  -0.65654  -0.64979
 Alpha  occ. eigenvalues --   -0.64757  -0.62079  -0.61353  -0.59782  -0.57985
 Alpha  occ. eigenvalues --   -0.55660  -0.55241  -0.53067  -0.53045  -0.52926
 Alpha  occ. eigenvalues --   -0.52696  -0.50319  -0.48780  -0.48768  -0.48317
 Alpha  occ. eigenvalues --   -0.47088  -0.46312  -0.46211  -0.44783  -0.44239
 Alpha  occ. eigenvalues --   -0.37314  -0.36334
 Alpha virt. eigenvalues --    0.05079   0.11298   0.16557   0.18636   0.22709
 Alpha virt. eigenvalues --    0.23231   0.24616   0.26650   0.26900   0.27898
 Alpha virt. eigenvalues --    0.29283   0.31018   0.31455   0.31499   0.32398

 Mulliken charges:
               1
     1  C   -0.171601
     2  C   -0.218850
     3  C   -0.170415
     4  C    0.160619
     5  C   -0.182475
     6  C   -0.226026
     7  H    0.225868
     8  H    0.223365
     9  H    0.275477
    10  H    0.285274
    11  H    0.230361
    12  N    0.488153
    13  O   -0.460658
    14  O   -0.460435
    15  C   -0.302231
    16  C   -0.300481
    17  C   -0.478222
    18  H    0.140080
    19  H    0.155035
    20  H    0.151099
    21  H    0.153478
    22  H    0.159320
    23  H    0.161797
    24  H    0.161712
    25  C   -0.298475
    26  C   -0.302995
    27  C   -0.475901
    28  H    0.148903
    29  H    0.154112
    30  H    0.142802
    31  H    0.156900
    32  H    0.158962
    33  H    0.154448
    34  H    0.160998
 Sum of Mulliken charges =  -0.00000

 Dipole moment (field-independent basis, Debye):
    X=             -1.5926    Y=             -4.6666    Z=              1.3599  Tot=              5.1150
 Quadrupole moment (field-independent basis, Debye-Ang):
   XX=            -97.1832   YY=            -94.6217   ZZ=            -95.2117
   XY=            -15.3137   XZ=              4.8939   YZ=             -0.1408

 Normal termination of Gaussian 16 at Thu May  6 07:58:29 2021.
