 Gaussian 16, Revision A.03,
 Gaussian 16:  EM64L-G16RevA.03 25-Dec-2016

 -------------
 #p 6-31g* mp2
 -------------

 ------------------------------------------------------
 Input file generated by CHIRIPA (05-May-2021 14:53:11)
 ------------------------------------------------------
 Symbolic Z-matrix:
 Charge =  0 Multiplicity = 1

                         Standard orientation:
 ---------------------------------------------------------------------
 Center     Atomic      Atomic             Coordinates (Angstroms)
 Number     Number       Type             X           Y           Z
 ---------------------------------------------------------------------
      1          6           0       -3.282760   -0.310036   -0.291543
      2          6           0       -3.966145   -1.374448    0.567525
      3          6           0       -3.950042   -2.758404   -0.082244
      4          1           0       -3.779879   -0.263041   -1.270117
      5          1           0       -2.244366   -0.614292   -0.482753
      6          1           0       -5.002533   -1.067603    0.758213
      7          1           0       -3.467463   -1.418781    1.544237
      8          1           0       -2.921407   -3.089741   -0.257537
      9          1           0       -4.465200   -2.736568   -1.048027
     10          1           0       -4.443741   -3.503972    0.548826
     11          6           0       -3.290783    1.078826    0.344638
     12          6           0       -2.607397    2.143238   -0.514429
     13          6           0       -2.623500    3.527194    0.135340
     14          1           0       -4.329177    1.383081    0.535848
     15          1           0       -2.793663    1.031831    1.323213
     16          1           0       -3.106079    2.187571   -1.491142
     17          1           0       -1.571009    1.836393   -0.705118
     18          1           0       -2.108343    3.505358    1.101123
     19          1           0       -3.652135    3.858531    0.310633
     20          1           0       -2.129801    4.272762   -0.495730
     21          6           0        4.980559    0.392517    0.233152
     22          6           0        4.192762    0.171104    1.367557
     23          6           0        2.854710   -0.213069    1.238818
     24          6           0        2.334532   -0.367288   -0.045285
     25          6           0        3.093857   -0.154098   -1.194749
     26          6           0        4.429564    0.229497   -1.042132
     27          1           0        6.019079    0.690727    0.342433
     28          1           0        4.618011    0.296949    2.359208
     29          1           0        2.222257   -0.391018    2.100070
     30          1           0        2.641889   -0.287540   -2.170113
     31          1           0        5.039011    0.400764   -1.924904
     32          7           0        0.919238   -0.773689   -0.194215
     33          8           0        0.484651   -0.902807   -1.336625
     34          8           0        0.271316   -0.955414    0.834283
 ---------------------------------------------------------------------

 SCF Done:  E(RHF) =  -669.537260134     A.U. after   15 cycles
 E2 =    -0.2092686794D+01 EUMP2 =    -0.67162994692819D+03

 The electronic state is 1-A.
 Alpha  occ. eigenvalues --  -20.61290 -20.61269 -15.86255 -11.31473 -11.28013
 Alpha  occ. eigenvalues --  -11.28008 -11.27730 -11.26992 -11.26982 -11.20422
 Alpha  occ. eigenvalues --  -11.20225 -11.19964 -11.19908 -11.19561 -11.19315
 Alpha  occ. eigenvalues --   -1.60306  -1.39862  -1.19622  -1.09050  -1.06868
 Alpha  occ. eigenvalues --   -1.04999  -1.02151  -0.95907  -0.94598  -0.86404
 Alpha  occ. eigenvalues --   -0.85628  -0.82743  -0.78241  -0.77817  -0.76613
 Alpha  occ. eigenvalues --   -0.72451  -0.71603  -0.70730  -0.65276  -0.65006
 Alpha  occ. eigenvalues --   -0.63481  -0.62345  -0.59550  -0.58011  -0.56217
 Alpha  occ. eigenvalues --   -0.55512  -0.53888  -0.53334  -0.53087  -0.51392
 Alpha  occ. eigenvalues --   -0.51049  -0.49354  -0.49231  -0.48461  -0.46563
 Alpha  occ. eigenvalues --   -0.45361  -0.45199  -0.44203  -0.43838  -0.42330
 Alpha  occ. eigenvalues --   -0.37593  -0.36592
 Alpha virt. eigenvalues --    0.04693   0.11065   0.16213   0.21203   0.24335
 Alpha virt. eigenvalues --    0.25641   0.27143   0.27930   0.28338   0.28997
 Alpha virt. eigenvalues --    0.29348   0.30885   0.32322   0.32650   0.32858

 Mulliken charges:
               1
     1  C   -0.312090
     2  C   -0.296813
     3  C   -0.476237
     4  H    0.140125
     5  H    0.185640
     6  H    0.142789
     7  H    0.153432
     8  H    0.163920
     9  H    0.150230
    10  H    0.152583
    11  C   -0.296625
    12  C   -0.298122
    13  C   -0.474811
    14  H    0.141812
    15  H    0.150340
    16  H    0.149349
    17  H    0.153279
    18  H    0.152195
    19  H    0.153017
    20  H    0.154938
    21  C   -0.170094
    22  C   -0.218618
    23  C   -0.170539
    24  C    0.160417
    25  C   -0.170456
    26  C   -0.218624
    27  H    0.226721
    28  H    0.224503
    29  H    0.276096
    30  H    0.276406
    31  H    0.224540
    32  N    0.487880
    33  O   -0.457840
    34  O   -0.459339
 Sum of Mulliken charges =  -0.00000

 Dipole moment (field-independent basis, Debye):
    X=              5.5489    Y=              1.2698    Z=              0.4976  Tot=              5.7140
 Quadrupole moment (field-independent basis, Debye-Ang):
   XX=            -72.8177   YY=            -98.7100   ZZ=            -89.7596
   XY=              1.4948   XZ=              0.9239   YZ=             -0.8046

 Normal termination of Gaussian 16 at Thu May  6 02:29:07 2021.
