 Gaussian 16, Revision A.03,
 Gaussian 16:  EM64L-G16RevA.03 25-Dec-2016

 -------------
 #p 6-31g* mp2
 -------------

 ------------------------------------------------------
 Input file generated by CHIRIPA (05-May-2021 14:53:16)
 ------------------------------------------------------
 Symbolic Z-matrix:
 Charge =  0 Multiplicity = 1

                         Standard orientation:
 ---------------------------------------------------------------------
 Center     Atomic      Atomic             Coordinates (Angstroms)
 Number     Number       Type             X           Y           Z
 ---------------------------------------------------------------------
      1          6           0        3.459642    0.004717   -0.066039
      2          6           0        4.904339    0.010440    0.434762
      3          6           0        5.585591    1.367924    0.258898
      4          1           0        3.444951    0.289224   -1.127069
      5          1           0        2.889376    0.774631    0.471943
      6          1           0        5.471373   -0.760193   -0.103024
      7          1           0        4.915610   -0.274300    1.494674
      8          1           0        5.044937    2.144495    0.809562
      9          1           0        5.603858    1.655842   -0.797213
     10          1           0        6.617409    1.349516    0.623417
     11          6           0        2.765207   -1.345435    0.103010
     12          6           0        1.320509   -1.351159   -0.397791
     13          6           0        0.639258   -2.708642   -0.221927
     14          1           0        3.335472   -2.115350   -0.434972
     15          1           0        2.779898   -1.629943    1.164040
     16          1           0        1.309238   -1.066418   -1.457702
     17          1           0        0.753476   -0.580525    0.139995
     18          1           0        0.620991   -2.996560    0.834184
     19          1           0        1.179912   -3.485214   -0.772591
     20          1           0       -0.392560   -2.690235   -0.586445
     21          6           0       -3.418750   -1.767898    0.359609
     22          6           0       -3.421996   -0.826878    1.394496
     23          6           0       -2.877767    0.445898    1.198522
     24          6           0       -2.336145    0.745263   -0.050604
     25          6           0       -2.318024   -0.170626   -1.101369
     26          6           0       -2.867745   -1.437353   -0.882830
     27          1           0       -3.843653   -2.754272    0.520612
     28          1           0       -3.849233   -1.080812    2.360431
     29          1           0       -2.867145    1.193529    1.982330
     30          1           0       -1.884963    0.111712   -2.053293
     31          1           0       -2.863847   -2.166157   -1.688356
     32          7           0       -1.757088    2.089492   -0.270017
     33          8           0       -1.285973    2.328577   -1.379758
     34          8           0       -1.785302    2.878559    0.671903
 ---------------------------------------------------------------------

 SCF Done:  E(RHF) =  -669.534643400     A.U. after   15 cycles
 E2 =    -0.2093636958D+01 EUMP2 =    -0.67162828035841D+03

 The electronic state is 1-A.
 Alpha  occ. eigenvalues --  -20.60817 -20.60808 -15.85870 -11.31255 -11.27828
 Alpha  occ. eigenvalues --  -11.27822 -11.27565 -11.26838 -11.26827 -11.21567
 Alpha  occ. eigenvalues --  -11.21346 -11.21267 -11.21122 -11.21076 -11.20746
 Alpha  occ. eigenvalues --   -1.59891  -1.39443  -1.19440  -1.08827  -1.08260
 Alpha  occ. eigenvalues --   -1.04853  -1.03388  -0.95841  -0.95654  -0.86871
 Alpha  occ. eigenvalues --   -0.86234  -0.82488  -0.79463  -0.78050  -0.77533
 Alpha  occ. eigenvalues --   -0.72087  -0.71217  -0.70530  -0.65089  -0.64893
 Alpha  occ. eigenvalues --   -0.64850  -0.62196  -0.60794  -0.59296  -0.57506
 Alpha  occ. eigenvalues --   -0.55332  -0.55133  -0.53306  -0.52939  -0.52432
 Alpha  occ. eigenvalues --   -0.52142  -0.49780  -0.48849  -0.48839  -0.47789
 Alpha  occ. eigenvalues --   -0.46498  -0.45601  -0.45511  -0.44837  -0.43658
 Alpha  occ. eigenvalues --   -0.37358  -0.36373
 Alpha virt. eigenvalues --    0.04993   0.11125   0.16444   0.21106   0.23027
 Alpha virt. eigenvalues --    0.24434   0.26614   0.26915   0.27433   0.28325
 Alpha virt. eigenvalues --    0.28461   0.30579   0.31379   0.31853   0.32223

 Mulliken charges:
               1
     1  C   -0.299138
     2  C   -0.299649
     3  C   -0.475867
     4  H    0.151746
     5  H    0.153883
     6  H    0.150303
     7  H    0.150702
     8  H    0.157758
     9  H    0.156097
    10  H    0.158865
    11  C   -0.298373
    12  C   -0.299254
    13  C   -0.479091
    14  H    0.148157
    15  H    0.148499
    16  H    0.150918
    17  H    0.153056
    18  H    0.153458
    19  H    0.152678
    20  H    0.158356
    21  C   -0.168724
    22  C   -0.218202
    23  C   -0.171768
    24  C    0.158955
    25  C   -0.166473
    26  C   -0.221368
    27  H    0.226411
    28  H    0.223792
    29  H    0.275841
    30  H    0.276330
    31  H    0.224669
    32  N    0.487832
    33  O   -0.459641
    34  O   -0.460757
 Sum of Mulliken charges =  -0.00000

 Dipole moment (field-independent basis, Debye):
    X=             -2.1286    Y=             -4.6210    Z=              0.7696  Tot=              5.1456
 Quadrupole moment (field-independent basis, Debye-Ang):
   XX=            -85.9148   YY=           -103.2667   ZZ=            -89.6054
   XY=              9.0716   XZ=             -3.2914   YZ=              2.4564

 Normal termination of Gaussian 16 at Thu May  6 17:16:15 2021.
