 Gaussian 16, Revision A.03,
 Gaussian 16:  EM64L-G16RevA.03 25-Dec-2016

 -------------
 #p 6-31g* mp2
 -------------

 ------------------------------------------------------
 Input file generated by CHIRIPA (05-May-2021 14:53:17)
 ------------------------------------------------------
 Symbolic Z-matrix:
 Charge =  0 Multiplicity = 1

                         Standard orientation:
 ---------------------------------------------------------------------
 Center     Atomic      Atomic             Coordinates (Angstroms)
 Number     Number       Type             X           Y           Z
 ---------------------------------------------------------------------
      1          6           0       -3.646234   -0.030909    0.545340
      2          6           0       -3.880220   -1.445338    0.013715
      3          6           0       -4.526368   -2.366584    1.048892
      4          1           0       -3.010415   -0.082740    1.439764
      5          1           0       -4.606095    0.395308    0.868452
      6          1           0       -2.920404   -1.868243   -0.309581
      7          1           0       -4.515398   -1.390118   -0.879658
      8          1           0       -5.497003   -1.970527    1.364501
      9          1           0       -3.892946   -2.451370    1.937818
     10          1           0       -4.684587   -3.372561    0.647849
     11          6           0       -3.000871    0.901858   -0.477978
     12          6           0       -2.766885    2.316287    0.053648
     13          6           0       -2.120737    3.237533   -0.981530
     14          1           0       -2.041010    0.475642   -0.801089
     15          1           0       -3.636690    0.953689   -1.372401
     16          1           0       -2.131707    2.261067    0.947021
     17          1           0       -3.726701    2.739192    0.376943
     18          1           0       -2.754159    3.322319   -1.870455
     19          1           0       -1.150102    2.841477   -1.297139
     20          1           0       -1.962518    4.243510   -0.580486
     21          6           0        1.441190   -2.427637   -0.847158
     22          6           0        2.804988   -2.457992   -0.537877
     23          6           0        3.455479   -1.307421   -0.082252
     24          6           0        2.708219   -0.138410    0.053042
     25          6           0        1.348278   -0.076369   -0.246960
     26          6           0        0.718461   -1.239019   -0.700970
     27          1           0        0.943902   -3.326121   -1.200472
     28          1           0        3.368782   -3.379679   -0.650451
     29          1           0        4.510267   -1.302862    0.164366
     30          1           0        0.812758    0.857267   -0.124649
     31          1           0       -0.340789   -1.212505   -0.940408
     32          7           0        3.385922    1.086041    0.534537
     33          8           0        2.705213    2.103402    0.645212
     34          8           0        4.584982    1.005220    0.792143
 ---------------------------------------------------------------------

 SCF Done:  E(RHF) =  -669.535257166     A.U. after   15 cycles
 E2 =    -0.2092346723D+01 EUMP2 =    -0.67162760388908D+03

 The electronic state is 1-A.
 Alpha  occ. eigenvalues --  -20.60762 -20.60757 -15.85815 -11.31182 -11.27750
 Alpha  occ. eigenvalues --  -11.27746 -11.27486 -11.26764 -11.26731 -11.22444
 Alpha  occ. eigenvalues --  -11.22217 -11.22077 -11.22061 -11.21720 -11.21385
 Alpha  occ. eigenvalues --   -1.59837  -1.39391  -1.19352  -1.09141  -1.08745
 Alpha  occ. eigenvalues --   -1.04757  -1.04136  -0.96568  -0.95582  -0.87579
 Alpha  occ. eigenvalues --   -0.86156  -0.82421  -0.80205  -0.78976  -0.77459
 Alpha  occ. eigenvalues --   -0.72033  -0.71160  -0.70465  -0.65856  -0.65000
 Alpha  occ. eigenvalues --   -0.64741  -0.62109  -0.61517  -0.59940  -0.58178
 Alpha  occ. eigenvalues --   -0.55865  -0.55256  -0.53227  -0.53083  -0.53019
 Alpha  occ. eigenvalues --   -0.52816  -0.50521  -0.48796  -0.48789  -0.48510
 Alpha  occ. eigenvalues --   -0.47257  -0.46476  -0.46401  -0.44796  -0.44412
 Alpha  occ. eigenvalues --   -0.37331  -0.36358
 Alpha virt. eigenvalues --    0.05068   0.11269   0.16548   0.18156   0.22147
 Alpha virt. eigenvalues --    0.23155   0.24644   0.26187   0.27052   0.28078
 Alpha virt. eigenvalues --    0.29421   0.31032   0.31304   0.31340   0.32281

 Mulliken charges:
               1
     1  C   -0.299365
     2  C   -0.300843
     3  C   -0.476147
     4  H    0.152116
     5  H    0.154157
     6  H    0.142596
     7  H    0.154450
     8  H    0.158493
     9  H    0.157061
    10  H    0.160578
    11  C   -0.302572
    12  C   -0.302469
    13  C   -0.476571
    14  H    0.139240
    15  H    0.153211
    16  H    0.155621
    17  H    0.155337
    18  H    0.155479
    19  H    0.154130
    20  H    0.167145
    21  C   -0.171598
    22  C   -0.218606
    23  C   -0.170722
    24  C    0.158893
    25  C   -0.176749
    26  C   -0.227982
    27  H    0.225961
    28  H    0.223425
    29  H    0.275573
    30  H    0.278707
    31  H    0.234505
    32  N    0.487928
    33  O   -0.460523
    34  O   -0.460462
 Sum of Mulliken charges =  -0.00000

 Dipole moment (field-independent basis, Debye):
    X=             -2.5726    Y=             -4.1960    Z=             -1.6226  Tot=              5.1824
 Quadrupole moment (field-independent basis, Debye-Ang):
   XX=           -102.6164   YY=            -92.7571   ZZ=            -96.0458
   XY=            -14.8639   XZ=             -4.0447   YZ=              0.2225

 Normal termination of Gaussian 16 at Thu May  6 20:30:50 2021.
