 Gaussian 16, Revision A.03,
 Gaussian 16:  EM64L-G16RevA.03 25-Dec-2016

 -------------
 #p 6-31g* mp2
 -------------

 ------------------------------------------------------
 Input file generated by CHIRIPA (05-May-2021 14:57:25)
 ------------------------------------------------------
 Symbolic Z-matrix:
 Charge =  0 Multiplicity = 1

                         Standard orientation:
 ---------------------------------------------------------------------
 Center     Atomic      Atomic             Coordinates (Angstroms)
 Number     Number       Type             X           Y           Z
 ---------------------------------------------------------------------
      1          6           0       -0.435284   -0.532671    1.118957
      2          6           0       -1.384387    0.189037    1.850300
      3          6           0       -2.687525    0.340876    1.367266
      4          6           0       -3.008683   -0.244870    0.143726
      5          6           0       -2.085457   -0.969783   -0.608235
      6          6           0       -0.788226   -1.108762   -0.105817
      7          1           0        0.574731   -0.645628    1.501719
      8          1           0       -1.113107    0.637525    2.801778
      9          1           0       -3.442045    0.894428    1.912883
     10          1           0       -2.385595   -1.405386   -1.553532
     11          1           0       -0.053211   -1.669791   -0.675943
     12          7           0       -4.385131   -0.090932   -0.377902
     13          8           0       -4.642986   -0.616660   -1.458530
     14          8           0       -5.180072    0.552537    0.303752
     15          6           0        3.708150   -2.032527    0.223199
     16          6           0        3.694010   -1.071395    1.239342
     17          6           0        3.183155    0.207727    0.999714
     18          6           0        2.692274    0.492864   -0.273481
     19          6           0        2.692627   -0.443169   -1.306502
     20          6           0        3.208293   -1.715904   -1.044245
     21          1           0        4.106863   -3.023699    0.418137
     22          1           0        4.081544   -1.314484    2.224619
     23          1           0        3.160088    0.970834    1.768189
     24          1           0        2.299357   -0.171294   -2.278531
     25          1           0        3.218005   -2.460337   -1.835302
     26          7           0        2.148908    1.843633   -0.539142
     27          8           0        1.722314    2.069888   -1.669390
     28          8           0        2.159900    2.650532    0.387912
 ---------------------------------------------------------------------

 SCF Done:  E(RHF) =  -868.335993427     A.U. after   16 cycles
 E2 =    -0.2604484166D+01 EUMP2 =    -0.87094047759311D+03

 The electronic state is 1-A.
 Alpha  occ. eigenvalues --  -20.61644 -20.61624 -20.60472 -20.60465 -15.86699
 Alpha  occ. eigenvalues --  -15.85524 -11.32370 -11.30873 -11.28971 -11.28960
 Alpha  occ. eigenvalues --  -11.28746 -11.28062 -11.28039 -11.27462 -11.27429
 Alpha  occ. eigenvalues --  -11.27096 -11.26455 -11.26438  -1.60699  -1.59545
 Alpha  occ. eigenvalues --   -1.40247  -1.39100  -1.20636  -1.19042  -1.09915
 Alpha  occ. eigenvalues --   -1.08447  -1.06069  -1.04453  -0.96698  -0.95289
 Alpha  occ. eigenvalues --   -0.87401  -0.85858  -0.83518  -0.82130  -0.78521
 Alpha  occ. eigenvalues --   -0.77175  -0.72909  -0.72072  -0.71746  -0.71638
 Alpha  occ. eigenvalues --   -0.70863  -0.70186  -0.66224  -0.65987  -0.64704
 Alpha  occ. eigenvalues --   -0.64506  -0.63356  -0.61830  -0.56460  -0.55422
 Alpha  occ. eigenvalues --   -0.54083  -0.53968  -0.52745  -0.52524  -0.49692
 Alpha  occ. eigenvalues --   -0.49649  -0.48508  -0.48500  -0.45582  -0.44510
 Alpha  occ. eigenvalues --   -0.38730  -0.37693  -0.36871  -0.36014
 Alpha virt. eigenvalues --    0.03914   0.05377   0.09778   0.11695   0.15340
 Alpha virt. eigenvalues --    0.16882   0.20247   0.22001   0.25977   0.27210
 Alpha virt. eigenvalues --    0.27743   0.28854   0.29953   0.31267   0.31750

 Mulliken charges:
               1
     1  C   -0.179825
     2  C   -0.216638
     3  C   -0.169332
     4  C    0.159361
     5  C   -0.169128
     6  C   -0.222044
     7  H    0.229374
     8  H    0.223145
     9  H    0.275629
    10  H    0.273551
    11  H    0.218922
    12  N    0.488251
    13  O   -0.461559
    14  O   -0.460341
    15  C   -0.171441
    16  C   -0.219604
    17  C   -0.188296
    18  C    0.166865
    19  C   -0.175789
    20  C   -0.223230
    21  H    0.230894
    22  H    0.228071
    23  H    0.278200
    24  H    0.280483
    25  H    0.228418
    26  N    0.490257
    27  O   -0.454713
    28  O   -0.459481
 Sum of Mulliken charges =  -0.00000

 Dipole moment (field-independent basis, Debye):
    X=              7.0162    Y=             -5.1715    Z=              2.6812  Tot=              9.1193
 Quadrupole moment (field-independent basis, Debye-Ang):
   XX=           -123.8611   YY=           -108.4468   ZZ=            -97.2494
   XY=            -12.3445   XZ=             -3.0884   YZ=              5.1866

 Normal termination of Gaussian 16 at Thu May  6 00:23:18 2021.
