 Gaussian 16, Revision A.03,
 Gaussian 16:  EM64L-G16RevA.03 25-Dec-2016

 -------------
 #p 6-31g* mp2
 -------------

 ------------------------------------------------------
 Input file generated by CHIRIPA (05-May-2021 14:51:13)
 ------------------------------------------------------
 Symbolic Z-matrix:
 Charge =  0 Multiplicity = 1

                         Standard orientation:
 ---------------------------------------------------------------------
 Center     Atomic      Atomic             Coordinates (Angstroms)
 Number     Number       Type             X           Y           Z
 ---------------------------------------------------------------------
      1          6           0       -3.110990   -0.008572   -0.235824
      2          6           0       -4.578005   -0.212868   -0.615450
      3          6           0       -4.903723   -1.667686   -0.954869
      4          1           0       -2.473957   -0.344491   -1.065457
      5          1           0       -2.869124   -0.649495    0.623311
      6          1           0       -4.817400    0.429281   -1.472743
      7          1           0       -5.211625    0.123755    0.215108
      8          1           0       -4.692637   -2.319116   -0.100655
      9          1           0       -4.296172   -2.011854   -1.798096
     10          1           0       -5.957558   -1.791040   -1.223338
     11          6           0       -2.769891    1.440707    0.106186
     12          6           0       -1.302876    1.645003    0.485811
     13          6           0       -0.977158    3.099821    0.825231
     14          1           0       -3.011757    2.081631   -0.752949
     15          1           0       -3.406924    1.776627    0.935819
     16          1           0       -0.669256    1.308380   -0.344747
     17          1           0       -1.063481    1.002854    1.343104
     18          1           0       -1.584709    3.443990    1.668457
     19          1           0       -1.188244    3.751251   -0.028984
     20          1           0        0.076677    3.223175    1.093700
     21          6           0        2.584986   -1.100011    0.621300
     22          6           0        1.178115   -1.559912    0.237647
     23          6           0        0.479855   -2.326598    1.361220
     24          1           0        3.187258   -1.975911    0.898812
     25          1           0        2.524498   -0.465890    1.516636
     26          1           0        1.241092   -2.191848   -0.657510
     27          1           0        0.579179   -0.682834   -0.039168
     28          1           0        0.387656   -1.701080    2.254991
     29          1           0        1.053330   -3.218668    1.633136
     30          1           0       -0.524369   -2.645935    1.065551
     31          6           0        3.295895   -0.332124   -0.491662
     32          6           0        4.702766    0.127776   -0.108008
     33          6           0        5.401026    0.894463   -1.231582
     34          1           0        3.356383   -0.966245   -1.386998
     35          1           0        2.693623    0.543776   -0.769174
     36          1           0        5.301702   -0.749301    0.168807
     37          1           0        4.639789    0.759713    0.787149
     38          1           0        4.827551    1.786533   -1.503497
     39          1           0        5.493225    0.268945   -2.125353
     40          1           0        6.405250    1.213800   -0.935912
 ---------------------------------------------------------------------

 SCF Done:  E(RHF) =  -470.732990291     A.U. after   11 cycles
 E2 =    -0.1583792549D+01 EUMP2 =    -0.47231678283999D+03

 The electronic state is 1-A.
 Alpha  occ. eigenvalues --  -11.21679 -11.21629 -11.21580 -11.21453 -11.21436
 Alpha  occ. eigenvalues --  -11.21388 -11.21362 -11.21291 -11.21149 -11.21092
 Alpha  occ. eigenvalues --  -11.21058 -11.21008  -1.08494  -1.08366  -1.03596
 Alpha  occ. eigenvalues --   -1.03462  -0.96029  -0.95931  -0.87051  -0.86945
 Alpha  occ. eigenvalues --   -0.79727  -0.79488  -0.78372  -0.78115  -0.65118
 Alpha  occ. eigenvalues --   -0.65008  -0.60986  -0.60896  -0.59401  -0.59285
 Alpha  occ. eigenvalues --   -0.57655  -0.57527  -0.55313  -0.55227  -0.52731
 Alpha  occ. eigenvalues --   -0.52625  -0.52475  -0.52335  -0.49982  -0.49876
 Alpha  occ. eigenvalues --   -0.48179  -0.47737  -0.46797  -0.46541  -0.46033
 Alpha  occ. eigenvalues --   -0.45759  -0.45697  -0.45244  -0.43833  -0.43725
 Alpha virt. eigenvalues --    0.20850   0.22921   0.23787   0.24134   0.25043
 Alpha virt. eigenvalues --    0.26531   0.26947   0.27750   0.28528   0.29525
 Alpha virt. eigenvalues --    0.30153   0.31294   0.31725   0.31944   0.32261

 Mulliken charges:
               1
     1  C   -0.300925
     2  C   -0.299635
     3  C   -0.475796
     4  H    0.150504
     5  H    0.151643
     6  H    0.152010
     7  H    0.152057
     8  H    0.155143
     9  H    0.155309
    10  H    0.160415
    11  C   -0.297841
    12  C   -0.305549
    13  C   -0.475100
    14  H    0.149613
    15  H    0.149856
    16  H    0.155033
    17  H    0.154442
    18  H    0.155563
    19  H    0.155457
    20  H    0.159802
    21  C   -0.297586
    22  C   -0.308608
    23  C   -0.476534
    24  H    0.149248
    25  H    0.148935
    26  H    0.150602
    27  H    0.163183
    28  H    0.154020
    29  H    0.154657
    30  H    0.161229
    31  C   -0.298586
    32  C   -0.299552
    33  C   -0.475690
    34  H    0.149383
    35  H    0.149135
    36  H    0.152003
    37  H    0.151799
    38  H    0.155062
    39  H    0.155107
    40  H    0.160192
 Sum of Mulliken charges =  -0.00000

 Dipole moment (field-independent basis, Debye):
    X=             -0.0571    Y=              0.0325    Z=             -0.0077  Tot=              0.0661
 Quadrupole moment (field-independent basis, Debye-Ang):
   XX=            -85.1718   YY=            -85.3843   ZZ=            -84.2926
   XY=             -1.0485   XZ=             -0.0335   YZ=              0.3073

 Normal termination of Gaussian 16 at Thu May  6 03:58:09 2021.
