 Gaussian 16, Revision A.03,
 Gaussian 16:  EM64L-G16RevA.03 25-Dec-2016

 -------------
 #p 6-31g* mp2
 -------------

 ------------------------------------------------------
 Input file generated by CHIRIPA (05-May-2021 14:51:13)
 ------------------------------------------------------
 Symbolic Z-matrix:
 Charge =  0 Multiplicity = 1

                         Standard orientation:
 ---------------------------------------------------------------------
 Center     Atomic      Atomic             Coordinates (Angstroms)
 Number     Number       Type             X           Y           Z
 ---------------------------------------------------------------------
      1          6           0        2.647647   -0.025768    0.264408
      2          6           0        3.938249    0.572349   -0.296473
      3          6           0        4.211936    1.982988    0.226009
      4          1           0        1.805134    0.631336    0.008804
      5          1           0        2.707234   -0.045223    1.361434
      6          1           0        3.876811    0.589394   -1.392169
      7          1           0        4.777760   -0.086353   -0.039669
      8          1           0        4.299811    1.979303    1.317277
      9          1           0        3.393742    2.658890   -0.042908
     10          1           0        5.139258    2.391430   -0.187645
     11          6           0        2.360357   -1.435714   -0.248666
     12          6           0        1.069755   -2.033831    0.312214
     13          6           0        0.796067   -3.444470   -0.210267
     14          1           0        2.300769   -1.416259   -1.345692
     15          1           0        3.202869   -2.092818    0.006937
     16          1           0        0.230243   -1.375129    0.055410
     17          1           0        1.131192   -2.050876    1.407911
     18          1           0        1.614261   -4.120372    0.058650
     19          1           0        0.708193   -3.440785   -1.301535
     20          1           0       -0.131255   -3.852912    0.203386
     21          6           0       -2.672174    1.474761   -0.047664
     22          6           0       -1.437661    2.376894   -0.036710
     23          6           0       -1.790367    3.862481   -0.116861
     24          1           0       -3.250787    1.666923   -0.961571
     25          1           0       -3.322177    1.744300    0.796280
     26          1           0       -0.789513    2.104809   -0.879615
     27          1           0       -0.861820    2.182425    0.877185
     28          1           0       -2.417899    4.155726    0.730967
     29          1           0       -2.345180    4.077668   -1.035815
     30          1           0       -0.893143    4.489189   -0.107621
     31          6           0       -2.335829   -0.013279    0.031922
     32          6           0       -3.570342   -0.915412    0.020969
     33          6           0       -3.217637   -2.400999    0.101119
     34          1           0       -1.685826   -0.282819   -0.812021
     35          1           0       -1.757217   -0.205441    0.945830
     36          1           0       -4.146184   -0.720943   -0.892926
     37          1           0       -4.218491   -0.643327    0.863874
     38          1           0       -2.662822   -2.616186    1.020074
     39          1           0       -2.590104   -2.694243   -0.746709
     40          1           0       -4.114861   -3.027708    0.091880
 ---------------------------------------------------------------------

 SCF Done:  E(RHF) =  -470.732358863     A.U. after   11 cycles
 E2 =    -0.1584803149D+01 EUMP2 =    -0.47231716201231D+03

 The electronic state is 1-A.
 Alpha  occ. eigenvalues --  -11.21682 -11.21659 -11.21546 -11.21468 -11.21408
 Alpha  occ. eigenvalues --  -11.21363 -11.21303 -11.21241 -11.21129 -11.21103
 Alpha  occ. eigenvalues --  -11.21032 -11.20930  -1.08521  -1.08317  -1.03608
 Alpha  occ. eigenvalues --   -1.03415  -0.96047  -0.95882  -0.87089  -0.86875
 Alpha  occ. eigenvalues --   -0.79702  -0.79488  -0.78499  -0.77978  -0.65151
 Alpha  occ. eigenvalues --   -0.64951  -0.61007  -0.60838  -0.59486  -0.59186
 Alpha  occ. eigenvalues --   -0.57701  -0.57458  -0.55332  -0.55176  -0.52741
 Alpha  occ. eigenvalues --   -0.52705  -0.52505  -0.52179  -0.50000  -0.49807
 Alpha  occ. eigenvalues --   -0.48035  -0.47767  -0.46738  -0.46684  -0.46198
 Alpha  occ. eigenvalues --   -0.45823  -0.45620  -0.44945  -0.43847  -0.43672
 Alpha virt. eigenvalues --    0.21182   0.22403   0.23445   0.24924   0.25585
 Alpha virt. eigenvalues --    0.25930   0.26552   0.27379   0.29302   0.30238
 Alpha virt. eigenvalues --    0.30379   0.30774   0.31534   0.31707   0.32030

 Mulliken charges:
               1
     1  C   -0.301521
     2  C   -0.299355
     3  C   -0.475639
     4  H    0.152915
     5  H    0.148816
     6  H    0.151512
     7  H    0.151836
     8  H    0.154964
     9  H    0.155098
    10  H    0.159988
    11  C   -0.297098
    12  C   -0.310990
    13  C   -0.477500
    14  H    0.148210
    15  H    0.148957
    16  H    0.166162
    17  H    0.149474
    18  H    0.154181
    19  H    0.153191
    20  H    0.163408
    21  C   -0.297024
    22  C   -0.302198
    23  C   -0.475647
    24  H    0.149635
    25  H    0.149860
    26  H    0.151796
    27  H    0.153923
    28  H    0.155566
    29  H    0.155298
    30  H    0.160508
    31  C   -0.303823
    32  C   -0.299223
    33  C   -0.478792
    34  H    0.150854
    35  H    0.153805
    36  H    0.151892
    37  H    0.152062
    38  H    0.156353
    39  H    0.158114
    40  H    0.160432
 Sum of Mulliken charges =  -0.00000

 Dipole moment (field-independent basis, Debye):
    X=             -0.1075    Y=              0.0385    Z=              0.0124  Tot=              0.1149
 Quadrupole moment (field-independent basis, Debye-Ang):
   XX=            -84.7261   YY=            -87.0122   ZZ=            -83.1969
   XY=             -0.3480   XZ=              0.2570   YZ=             -0.4940

 Normal termination of Gaussian 16 at Thu May  6 03:59:10 2021.
