 Gaussian 16, Revision A.03,
 Gaussian 16:  EM64L-G16RevA.03 25-Dec-2016

 -------------
 #p 6-31g* mp2
 -------------

 ------------------------------------------------------
 Input file generated by CHIRIPA (05-May-2021 14:57:23)
 ------------------------------------------------------
 Symbolic Z-matrix:
 Charge =  0 Multiplicity = 1

                         Standard orientation:
 ---------------------------------------------------------------------
 Center     Atomic      Atomic             Coordinates (Angstroms)
 Number     Number       Type             X           Y           Z
 ---------------------------------------------------------------------
      1          6           0        2.548840    2.696158    0.783905
      2          6           0        3.057788    1.692657    1.614854
      3          6           0        3.183766    0.380716    1.148497
      4          6           0        2.789393    0.106323   -0.160116
      5          6           0        2.278699    1.084261   -1.012242
      6          6           0        2.161602    2.389299   -0.524684
      7          1           0        2.454427    3.712624    1.154416
      8          1           0        3.359314    1.928070    2.631568
      9          1           0        3.574586   -0.415464    1.770410
     10          1           0        1.986464    0.819048   -2.021043
     11          1           0        1.766012    3.166608   -1.172252
     12          7           0        2.918059   -1.278916   -0.665049
     13          8           0        2.563574   -1.494872   -1.821916
     14          8           0        3.370956   -2.122482    0.105612
     15          6           0       -1.273575   -2.219573    0.837840
     16          6           0       -1.179007   -1.736100   -0.471293
     17          6           0       -2.002103   -0.692071   -0.903802
     18          6           0       -2.912681   -0.152397    0.003331
     19          6           0       -3.030658   -0.612319    1.313996
     20          6           0       -2.197471   -1.657132    1.724743
     21          1           0       -0.630254   -3.030904    1.165370
     22          1           0       -0.462414   -2.170985   -1.162247
     23          1           0       -1.949854   -0.298569   -1.911693
     24          1           0       -3.754662   -0.158630    1.979880
     25          1           0       -2.273111   -2.030590    2.742021
     26          7           0       -3.789398    0.953284   -0.443027
     27          8           0       -4.583454    1.411704    0.375486
     28          8           0       -3.665912    1.340560   -1.602942
 ---------------------------------------------------------------------

 SCF Done:  E(RHF) =  -868.340220357     A.U. after   16 cycles
 E2 =    -0.2599368916D+01 EUMP2 =    -0.87093958927323D+03

 The electronic state is 1-A.
 Alpha  occ. eigenvalues --  -20.61610 -20.61589 -20.60740 -20.60733 -15.86620
 Alpha  occ. eigenvalues --  -15.85785 -11.31670 -11.31002 -11.28211 -11.28191
 Alpha  occ. eigenvalues --  -11.27854 -11.27564 -11.27509 -11.27164 -11.27149
 Alpha  occ. eigenvalues --  -11.27099 -11.26538 -11.26351  -1.60673  -1.59819
 Alpha  occ. eigenvalues --   -1.40234  -1.39377  -1.19806  -1.19138  -1.09256
 Alpha  occ. eigenvalues --   -1.08546  -1.05162  -1.04507  -0.96146  -0.95414
 Alpha  occ. eigenvalues --   -0.86575  -0.85901  -0.82990  -0.82243  -0.78082
 Alpha  occ. eigenvalues --   -0.77326  -0.72843  -0.72021  -0.71973  -0.71143
 Alpha  occ. eigenvalues --   -0.70908  -0.70210  -0.65461  -0.65156  -0.64774
 Alpha  occ. eigenvalues --   -0.64458  -0.62520  -0.61841  -0.55660  -0.54959
 Alpha  occ. eigenvalues --   -0.53515  -0.53248  -0.52851  -0.52561  -0.49621
 Alpha  occ. eigenvalues --   -0.49574  -0.48771  -0.48746  -0.45698  -0.44816
 Alpha  occ. eigenvalues --   -0.37773  -0.37092  -0.36765  -0.36094
 Alpha virt. eigenvalues --    0.04390   0.05181   0.10899   0.11518   0.15965
 Alpha virt. eigenvalues --    0.16728   0.21019   0.21888   0.26882   0.27466
 Alpha virt. eigenvalues --    0.28278   0.28681   0.30725   0.31459   0.32284

 Mulliken charges:
               1
     1  C   -0.169417
     2  C   -0.218325
     3  C   -0.171391
     4  C    0.158814
     5  C   -0.170859
     6  C   -0.217630
     7  H    0.228869
     8  H    0.224536
     9  H    0.274098
    10  H    0.274227
    11  H    0.228286
    12  N    0.486997
    13  O   -0.465137
    14  O   -0.460608
    15  C   -0.173214
    16  C   -0.228680
    17  C   -0.173589
    18  C    0.158146
    19  C   -0.172601
    20  C   -0.218912
    21  H    0.232111
    22  H    0.241229
    23  H    0.273782
    24  H    0.273555
    25  H    0.222178
    26  N    0.487906
    27  O   -0.461771
    28  O   -0.462602
 Sum of Mulliken charges =  -0.00000

 Dipole moment (field-independent basis, Debye):
    X=              2.8302    Y=              1.0458    Z=              3.3820  Tot=              4.5323
 Quadrupole moment (field-independent basis, Debye-Ang):
   XX=           -125.7111   YY=           -102.7637   ZZ=            -97.6586
   XY=             24.3744   XZ=              0.3588   YZ=             -2.0976

 Normal termination of Gaussian 16 at Wed May  5 19:23:27 2021.
