 Gaussian 16, Revision A.03,
 Gaussian 16:  EM64L-G16RevA.03 25-Dec-2016

 -------------
 #p 6-31g* mp2
 -------------

 ------------------------------------------------------
 Input file generated by CHIRIPA (05-May-2021 14:55:18)
 ------------------------------------------------------
 Symbolic Z-matrix:
 Charge =  0 Multiplicity = 1

                         Standard orientation:
 ---------------------------------------------------------------------
 Center     Atomic      Atomic             Coordinates (Angstroms)
 Number     Number       Type             X           Y           Z
 ---------------------------------------------------------------------
      1          6           0        5.050675   -0.517676   -0.986102
      2          6           0        4.463063   -1.482697   -0.161500
      3          6           0        3.255324   -1.218597    0.491315
      4          6           0        2.659914    0.026673    0.296175
      5          6           0        3.220570    1.008719   -0.519018
      6          6           0        4.428649    0.722765   -1.161919
      7          1           0        5.989007   -0.731324   -1.489374
      8          1           0        4.943886   -2.446908   -0.023111
      9          1           0        2.778536   -1.947531    1.135323
     10          1           0        2.717553    1.960744   -0.637509
     11          1           0        4.882703    1.474115   -1.801726
     12          7           0        1.381154    0.317832    0.982034
     13          8           0        0.876614    1.422640    0.793685
     14          8           0        0.907617   -0.564279    1.694971
     15          6           0       -3.534627   -0.687516   -0.004318
     16          6           0       -4.418657   -1.729346   -0.690662
     17          6           0       -4.127071   -3.154523   -0.219872
     18          1           0       -2.479750   -0.929106   -0.193560
     19          1           0       -3.679985   -0.752471    1.082902
     20          1           0       -4.272709   -1.661509   -1.776347
     21          1           0       -5.471555   -1.485137   -0.499923
     22          1           0       -4.291207   -3.245086    0.858765
     23          1           0       -3.085548   -3.422460   -0.424912
     24          1           0       -4.770217   -3.883102   -0.723257
     25          6           0       -3.814284    0.742078   -0.464514
     26          6           0       -2.930255    1.783908    0.221830
     27          6           0       -3.221840    3.209086   -0.248960
     28          1           0       -3.668926    0.807034   -1.551734
     29          1           0       -4.869162    0.983669   -0.275272
     30          1           0       -1.877356    1.539700    0.031091
     31          1           0       -3.076202    1.716071    1.307516
     32          1           0       -4.263363    3.477023   -0.043920
     33          1           0       -3.057704    3.299648   -1.327597
     34          1           0       -2.578694    3.937664    0.254425
 ---------------------------------------------------------------------

 SCF Done:  E(RHF) =  -669.536176940     A.U. after   15 cycles
 E2 =    -0.2091178410D+01 EUMP2 =    -0.67162735535007D+03

 The electronic state is 1-A.
 Alpha  occ. eigenvalues --  -20.60998 -20.60993 -15.86020 -11.31333 -11.27894
 Alpha  occ. eigenvalues --  -11.27890 -11.27628 -11.26897 -11.26887 -11.20770
 Alpha  occ. eigenvalues --  -11.20362 -11.20270 -11.20202 -11.19981 -11.19869
 Alpha  occ. eigenvalues --   -1.60053  -1.39609  -1.19499  -1.08905  -1.07298
 Alpha  occ. eigenvalues --   -1.04893  -1.02425  -0.95747  -0.94931  -0.86294
 Alpha  occ. eigenvalues --   -0.85956  -0.82582  -0.78487  -0.77637  -0.77040
 Alpha  occ. eigenvalues --   -0.72235  -0.71367  -0.70606  -0.65154  -0.64895
 Alpha  occ. eigenvalues --   -0.63943  -0.62239  -0.59834  -0.58301  -0.56501
 Alpha  occ. eigenvalues --   -0.55397  -0.54246  -0.53226  -0.52983  -0.51648
 Alpha  occ. eigenvalues --   -0.51345  -0.49070  -0.48995  -0.48868  -0.46795
 Alpha  occ. eigenvalues --   -0.45566  -0.45023  -0.44594  -0.44385  -0.42680
 Alpha  occ. eigenvalues --   -0.37477  -0.36493
 Alpha virt. eigenvalues --    0.04858   0.11162   0.16347   0.21300   0.23911
 Alpha virt. eigenvalues --    0.25361   0.27222   0.27742   0.28164   0.28718
 Alpha virt. eigenvalues --    0.29001   0.30879   0.32336   0.32484   0.32884

 Mulliken charges:
               1
     1  C   -0.170531
     2  C   -0.218579
     3  C   -0.170787
     4  C    0.157892
     5  C   -0.170883
     6  C   -0.218553
     7  H    0.226156
     8  H    0.223996
     9  H    0.276015
    10  H    0.275893
    11  H    0.223988
    12  N    0.488184
    13  O   -0.459351
    14  O   -0.458278
    15  C   -0.296721
    16  C   -0.298949
    17  C   -0.474508
    18  H    0.153190
    19  H    0.151880
    20  H    0.148354
    21  H    0.149620
    22  H    0.155767
    23  H    0.154235
    24  H    0.156249
    25  C   -0.298375
    26  C   -0.305639
    27  C   -0.475044
    28  H    0.143720
    29  H    0.144533
    30  H    0.174251
    31  H    0.152597
    32  H    0.149353
    33  H    0.149037
    34  H    0.161290
 Sum of Mulliken charges =  -0.00000

 Dipole moment (field-independent basis, Debye):
    X=              4.8761    Y=             -1.0388    Z=             -2.2789  Tot=              5.4817
 Quadrupole moment (field-independent basis, Debye-Ang):
   XX=            -72.1855   YY=            -92.5386   ZZ=            -95.6295
   XY=             -2.6419   XZ=             -6.3245   YZ=             -2.2090

 Normal termination of Gaussian 16 at Thu May  6 04:27:59 2021.
