 Gaussian 16, Revision A.03,
 Gaussian 16:  EM64L-G16RevA.03 25-Dec-2016

 -------------
 #p 6-31g* mp2
 -------------

 ------------------------------------------------------
 Input file generated by CHIRIPA (05-May-2021 14:53:15)
 ------------------------------------------------------
 Symbolic Z-matrix:
 Charge =  0 Multiplicity = 1

                         Standard orientation:
 ---------------------------------------------------------------------
 Center     Atomic      Atomic             Coordinates (Angstroms)
 Number     Number       Type             X           Y           Z
 ---------------------------------------------------------------------
      1          6           0        3.253308   -0.482746   -0.433707
      2          6           0        3.614793   -1.766616    0.313951
      3          6           0        2.929325   -3.002939   -0.268656
      4          1           0        2.163572   -0.345698   -0.408407
      5          1           0        3.530079   -0.592363   -1.491430
      6          1           0        3.338689   -1.654090    1.370228
      7          1           0        4.703812   -1.900523    0.287033
      8          1           0        3.213494   -3.143082   -1.316611
      9          1           0        1.840615   -2.895249   -0.227262
     10          1           0        3.201714   -3.909416    0.280856
     11          6           0        3.930812    0.761854    0.136981
     12          6           0        3.569326    2.045723   -0.610677
     13          6           0        4.254794    3.282047   -0.028070
     14          1           0        3.654040    0.871470    1.194704
     15          1           0        5.020547    0.624806    0.111681
     16          1           0        2.480308    2.179630   -0.583759
     17          1           0        3.845431    1.933198   -1.666954
     18          1           0        5.343505    3.174357   -0.069464
     19          1           0        3.970626    3.422190    1.019885
     20          1           0        3.982405    4.188523   -0.577582
     21          6           0       -1.114659   -1.943082    0.490774
     22          6           0       -2.090132   -2.082732   -0.501936
     23          6           0       -3.032458   -1.072934   -0.718449
     24          6           0       -2.969838    0.068283    0.079667
     25          6           0       -2.010135    0.236892    1.076579
     26          6           0       -1.077839   -0.785756    1.275479
     27          1           0       -0.386534   -2.732509    0.652127
     28          1           0       -2.121125   -2.980429   -1.112855
     29          1           0       -3.798386   -1.155039   -1.480047
     30          1           0       -2.004514    1.143316    1.669692
     31          1           0       -0.321401   -0.674578    2.047158
     32          7           0       -3.962127    1.144114   -0.140223
     33          8           0       -3.885619    2.139773    0.576328
     34          8           0       -4.797603    0.971318   -1.024960
 ---------------------------------------------------------------------

 SCF Done:  E(RHF) =  -669.535613215     A.U. after   15 cycles
 E2 =    -0.2091627280D+01 EUMP2 =    -0.67162724049550D+03

 The electronic state is 1-A.
 Alpha  occ. eigenvalues --  -20.60805 -20.60800 -15.85859 -11.31247 -11.27819
 Alpha  occ. eigenvalues --  -11.27807 -11.27549 -11.26851 -11.26821 -11.22420
 Alpha  occ. eigenvalues --  -11.22074 -11.21998 -11.21961 -11.21872 -11.21348
 Alpha  occ. eigenvalues --   -1.59880  -1.39433  -1.19421  -1.09025  -1.08811
 Alpha  occ. eigenvalues --   -1.04824  -1.04137  -0.96594  -0.95643  -0.87614
 Alpha  occ. eigenvalues --   -0.86219  -0.82475  -0.80206  -0.78796  -0.77516
 Alpha  occ. eigenvalues --   -0.72076  -0.71203  -0.70551  -0.65673  -0.65071
 Alpha  occ. eigenvalues --   -0.64818  -0.62169  -0.61550  -0.59970  -0.58186
 Alpha  occ. eigenvalues --   -0.56037  -0.55215  -0.53285  -0.53155  -0.52992
 Alpha  occ. eigenvalues --   -0.52913  -0.50539  -0.48837  -0.48830  -0.48509
 Alpha  occ. eigenvalues --   -0.47240  -0.46342  -0.46255  -0.44833  -0.44371
 Alpha  occ. eigenvalues --   -0.37382  -0.36424
 Alpha virt. eigenvalues --    0.04981   0.11162   0.16353   0.19778   0.22730
 Alpha virt. eigenvalues --    0.23926   0.25855   0.25894   0.27097   0.27773
 Alpha virt. eigenvalues --    0.28728   0.30549   0.31005   0.31504   0.32183

 Mulliken charges:
               1
     1  C   -0.301346
     2  C   -0.299391
     3  C   -0.479217
     4  H    0.150647
     5  H    0.151892
     6  H    0.147558
     7  H    0.156022
     8  H    0.160224
     9  H    0.146048
    10  H    0.161644
    11  C   -0.298120
    12  C   -0.300396
    13  C   -0.475970
    14  H    0.146876
    15  H    0.151048
    16  H    0.153368
    17  H    0.153308
    18  H    0.155498
    19  H    0.154766
    20  H    0.162880
    21  C   -0.173050
    22  C   -0.219389
    23  C   -0.170700
    24  C    0.158846
    25  C   -0.171209
    26  C   -0.220136
    27  H    0.230916
    28  H    0.224201
    29  H    0.275927
    30  H    0.275772
    31  H    0.223877
    32  N    0.488042
    33  O   -0.460301
    34  O   -0.460134
 Sum of Mulliken charges =  -0.00000

 Dipole moment (field-independent basis, Debye):
    X=              3.5683    Y=             -3.7334    Z=              0.7045  Tot=              5.2122
 Quadrupole moment (field-independent basis, Debye-Ang):
   XX=           -114.3351   YY=            -95.1961   ZZ=            -92.0106
   XY=             12.4319   XZ=             -1.0830   YZ=              1.8794

 Normal termination of Gaussian 16 at Thu May  6 01:07:01 2021.
