 Gaussian 16, Revision A.03,
 Gaussian 16:  EM64L-G16RevA.03 25-Dec-2016

 -------------
 #p 6-31g* mp2
 -------------

 ------------------------------------------------------
 Input file generated by CHIRIPA (05-May-2021 14:57:22)
 ------------------------------------------------------
 Symbolic Z-matrix:
 Charge =  0 Multiplicity = 1

                         Standard orientation:
 ---------------------------------------------------------------------
 Center     Atomic      Atomic             Coordinates (Angstroms)
 Number     Number       Type             X           Y           Z
 ---------------------------------------------------------------------
      1          6           0        1.720756    2.231261    0.809700
      2          6           0        1.749591    1.181958    1.734175
      3          6           0        2.365382   -0.031192    1.412277
      4          6           0        2.945072   -0.161163    0.151183
      5          6           0        2.932737    0.865737   -0.791480
      6          6           0        2.311380    2.070086   -0.447959
      7          1           0        1.240234    3.170247    1.068157
      8          1           0        1.291716    1.304298    2.711635
      9          1           0        2.402170   -0.859892    2.108926
     10          1           0        3.397709    0.713949   -1.758009
     11          1           0        2.290503    2.883273   -1.167914
     12          7           0        3.599928   -1.440812   -0.201041
     13          8           0        4.103426   -1.530131   -1.318694
     14          8           0        3.597306   -2.330252    0.647208
     15          6           0       -1.654771    2.129913   -0.675106
     16          6           0       -1.029605    0.915800   -0.977790
     17          6           0       -1.675295   -0.297951   -0.723937
     18          6           0       -2.951451   -0.260459   -0.164195
     19          6           0       -3.600589    0.932913    0.148492
     20          6           0       -2.936008    2.134587   -0.113921
     21          1           0       -1.145846    3.068093   -0.875630
     22          1           0       -0.034614    0.909133   -1.413671
     23          1           0       -1.214494   -1.252243   -0.948457
     24          1           0       -4.592809    0.907558    0.582398
     25          1           0       -3.423949    3.075978    0.122176
     26          7           0       -3.645014   -1.539010    0.109078
     27          8           0       -4.769002   -1.478961    0.602721
     28          8           0       -3.051507   -2.576977   -0.175547
 ---------------------------------------------------------------------

 SCF Done:  E(RHF) =  -868.335187741     A.U. after   16 cycles
 E2 =    -0.2604062041D+01 EUMP2 =    -0.87093924978192D+03

 The electronic state is 1-A.
 Alpha  occ. eigenvalues --  -20.61415 -20.61395 -20.60927 -20.60909 -15.86471
 Alpha  occ. eigenvalues --  -15.85971 -11.32080 -11.31433 -11.28705 -11.28600
 Alpha  occ. eigenvalues --  -11.28426 -11.27994 -11.27892 -11.27809 -11.27746
 Alpha  occ. eigenvalues --  -11.27609 -11.27118 -11.26885  -1.60482  -1.59995
 Alpha  occ. eigenvalues --   -1.40027  -1.39544  -1.20288  -1.19598  -1.09636
 Alpha  occ. eigenvalues --   -1.08998  -1.05705  -1.04992  -0.96418  -0.95821
 Alpha  occ. eigenvalues --   -0.87081  -0.86403  -0.83232  -0.82636  -0.78236
 Alpha  occ. eigenvalues --   -0.77659  -0.72675  -0.72188  -0.71821  -0.71389
 Alpha  occ. eigenvalues --   -0.71321  -0.70745  -0.65904  -0.65673  -0.65250
 Alpha  occ. eigenvalues --   -0.65052  -0.63007  -0.62375  -0.56208  -0.55582
 Alpha  occ. eigenvalues --   -0.54359  -0.53754  -0.53277  -0.52760  -0.49456
 Alpha  occ. eigenvalues --   -0.49420  -0.48953  -0.48938  -0.45377  -0.44928
 Alpha  occ. eigenvalues --   -0.38635  -0.37369  -0.37296  -0.36436
 Alpha virt. eigenvalues --    0.04135   0.04935   0.10239   0.11052   0.15590
 Alpha virt. eigenvalues --    0.16375   0.19631   0.21810   0.25919   0.26606
 Alpha virt. eigenvalues --    0.27504   0.29185   0.30057   0.30874   0.32342

 Mulliken charges:
               1
     1  C   -0.165138
     2  C   -0.214251
     3  C   -0.169495
     4  C    0.158823
     5  C   -0.177545
     6  C   -0.233191
     7  H    0.224471
     8  H    0.228499
     9  H    0.281071
    10  H    0.278260
    11  H    0.222827
    12  N    0.487748
    13  O   -0.459124
    14  O   -0.455209
    15  C   -0.178036
    16  C   -0.212501
    17  C   -0.175554
    18  C    0.159104
    19  C   -0.172876
    20  C   -0.218925
    21  H    0.215435
    22  H    0.230183
    23  H    0.278587
    24  H    0.275660
    25  H    0.221716
    26  N    0.487570
    27  O   -0.460687
    28  O   -0.457422
 Sum of Mulliken charges =  -0.00000

 Dipole moment (field-independent basis, Debye):
    X=              0.3534    Y=              8.7579    Z=              0.4797  Tot=              8.7781
 Quadrupole moment (field-independent basis, Debye-Ang):
   XX=           -130.3230   YY=           -108.0451   ZZ=           -100.0356
   XY=             -2.0946   XZ=              3.2700   YZ=             -0.6723

 Normal termination of Gaussian 16 at Thu May  6 03:23:01 2021.
