 Gaussian 16, Revision A.03,
 Gaussian 16:  EM64L-G16RevA.03 25-Dec-2016

 -------------
 #p 6-31g* mp2
 -------------

 ------------------------------------------------------
 Input file generated by CHIRIPA (05-May-2021 14:53:11)
 ------------------------------------------------------
 Symbolic Z-matrix:
 Charge =  0 Multiplicity = 1

                         Standard orientation:
 ---------------------------------------------------------------------
 Center     Atomic      Atomic             Coordinates (Angstroms)
 Number     Number       Type             X           Y           Z
 ---------------------------------------------------------------------
      1          6           0       -5.215193    0.355197    0.099722
      2          6           0       -5.771344   -0.943966   -0.484106
      3          6           0       -7.299029   -0.958144   -0.545519
      4          1           0       -5.625497    0.501710    1.108250
      5          1           0       -5.566574    1.201496   -0.506665
      6          1           0       -5.417889   -1.787679    0.122387
      7          1           0       -5.359518   -1.087500   -1.491287
      8          1           0       -7.667236   -0.135620   -1.167192
      9          1           0       -7.725938   -0.839776    0.455650
     10          1           0       -7.675227   -1.895957   -0.966046
     11          6           0       -3.689330    0.384493    0.167628
     12          6           0       -3.133178    1.683656    0.751456
     13          6           0       -1.605493    1.697834    0.812868
     14          1           0       -3.337948   -0.461806    0.774014
     15          1           0       -3.279025    0.237980   -0.840901
     16          1           0       -3.545004    1.827190    1.758637
     17          1           0       -3.486633    2.527369    0.144963
     18          1           0       -1.178584    1.579466   -0.188300
     19          1           0       -1.237286    0.875310    1.434542
     20          1           0       -1.229295    2.635646    1.233396
     21          6           0        5.847839    0.571480   -0.209429
     22          6           0        5.559561   -0.601151    0.496513
     23          6           0        4.250308   -1.087152    0.561396
     24          6           0        3.249253   -0.372124   -0.094283
     25          6           0        3.504761    0.799190   -0.805642
     26          6           0        4.821329    1.266681   -0.857112
     27          1           0        6.867739    0.941827   -0.254622
     28          1           0        6.354756   -1.143124    1.000471
     29          1           0        3.999152   -1.992322    1.100844
     30          1           0        2.690940    1.317644   -1.297899
     31          1           0        5.042277    2.177638   -1.406097
     32          7           0        1.859334   -0.876834   -0.032694
     33          8           0        0.995245   -0.228478   -0.618886
     34          8           0        1.660324   -1.911224    0.600605
 ---------------------------------------------------------------------

 SCF Done:  E(RHF) =  -669.535680122     A.U. after   15 cycles
 E2 =    -0.2090977718D+01 EUMP2 =    -0.67162665784022D+03

 The electronic state is 1-A.
 Alpha  occ. eigenvalues --  -20.60866 -20.60843 -15.85894 -11.31241 -11.27809
 Alpha  occ. eigenvalues --  -11.27806 -11.27552 -11.26823 -11.26814 -11.20822
 Alpha  occ. eigenvalues --  -11.20512 -11.20499 -11.20443 -11.20233 -11.19616
 Alpha  occ. eigenvalues --   -1.59921  -1.39477  -1.19413  -1.08813  -1.07452
 Alpha  occ. eigenvalues --   -1.04814  -1.02544  -0.95655  -0.94973  -0.86214
 Alpha  occ. eigenvalues --   -0.85987  -0.82487  -0.78627  -0.77537  -0.77221
 Alpha  occ. eigenvalues --   -0.72123  -0.71236  -0.70524  -0.65070  -0.64818
 Alpha  occ. eigenvalues --   -0.64092  -0.62162  -0.59948  -0.58388  -0.56578
 Alpha  occ. eigenvalues --   -0.55318  -0.54252  -0.53145  -0.52907  -0.51713
 Alpha  occ. eigenvalues --   -0.51375  -0.48939  -0.48883  -0.48827  -0.46921
 Alpha  occ. eigenvalues --   -0.45669  -0.44973  -0.44696  -0.44606  -0.42813
 Alpha  occ. eigenvalues --   -0.37393  -0.36417
 Alpha virt. eigenvalues --    0.04987   0.11238   0.16468   0.21343   0.23790
 Alpha virt. eigenvalues --    0.25294   0.27248   0.27605   0.28052   0.28510
 Alpha virt. eigenvalues --    0.29130   0.30906   0.32122   0.32541   0.32761

 Mulliken charges:
               1
     1  C   -0.297802
     2  C   -0.299062
     3  C   -0.475165
     4  H    0.147064
     5  H    0.146442
     6  H    0.152944
     7  H    0.152198
     8  H    0.153494
     9  H    0.153813
    10  H    0.158533
    11  C   -0.297328
    12  C   -0.300262
    13  C   -0.475539
    14  H    0.153876
    15  H    0.153407
    16  H    0.146820
    17  H    0.146162
    18  H    0.169333
    19  H    0.160416
    20  H    0.147978
    21  C   -0.170714
    22  C   -0.218560
    23  C   -0.170848
    24  C    0.158144
    25  C   -0.170427
    26  C   -0.218547
    27  H    0.225777
    28  H    0.223603
    29  H    0.275685
    30  H    0.275519
    31  H    0.223636
    32  N    0.490760
    33  O   -0.461058
    34  O   -0.460291
 Sum of Mulliken charges =  -0.00000

 Dipole moment (field-independent basis, Debye):
    X=              5.1769    Y=              1.6552    Z=             -0.2851  Tot=              5.4425
 Quadrupole moment (field-independent basis, Debye-Ang):
   XX=            -65.4936   YY=            -93.7576   ZZ=            -93.0257
   XY=              2.9346   XZ=             -0.2040   YZ=             -3.3098

 Normal termination of Gaussian 16 at Wed May  5 15:25:34 2021.
