 Gaussian 16, Revision A.03,
 Gaussian 16:  EM64L-G16RevA.03 25-Dec-2016

 -------------
 #p 6-31g* mp2
 -------------

 ------------------------------------------------------
 Input file generated by CHIRIPA (05-May-2021 14:57:22)
 ------------------------------------------------------
 Symbolic Z-matrix:
 Charge =  0 Multiplicity = 1

                         Standard orientation:
 ---------------------------------------------------------------------
 Center     Atomic      Atomic             Coordinates (Angstroms)
 Number     Number       Type             X           Y           Z
 ---------------------------------------------------------------------
      1          6           0       -2.533711    1.693380    1.932591
      2          6           0       -2.978060    1.932034    0.627938
      3          6           0       -2.880663    0.936323   -0.348597
      4          6           0       -2.331218   -0.291918    0.015855
      5          6           0       -1.879690   -0.560155    1.307157
      6          6           0       -1.986909    0.450239    2.267447
      7          1           0       -2.613187    2.472576    2.684877
      8          1           0       -3.403144    2.896518    0.365034
      9          1           0       -3.216887    1.094202   -1.366166
     10          1           0       -1.460478   -1.531670    1.539189
     11          1           0       -1.641007    0.262081    3.279866
     12          7           0       -2.222909   -1.353805   -1.009360
     13          8           0       -1.735020   -2.427385   -0.662912
     14          8           0       -2.627956   -1.092424   -2.139959
     15          6           0        1.921538    2.188498   -1.560195
     16          6           0        2.780892    2.245059   -0.458000
     17          6           0        3.025121    1.103477    0.311213
     18          6           0        2.390400   -0.083368   -0.051857
     19          6           0        1.528958   -0.171637   -1.144293
     20          6           0        1.299411    0.982457   -1.899225
     21          1           0        1.737517    3.080167   -2.152191
     22          1           0        3.265421    3.180321   -0.192366
     23          1           0        3.685776    1.119102    1.169530
     24          1           0        1.060457   -1.118343   -1.384448
     25          1           0        0.631539    0.935579   -2.754675
     26          7           0        2.641184   -1.298534    0.754915
     27          8           0        2.069752   -2.331996    0.414246
     28          8           0        3.404431   -1.194507    1.712657
 ---------------------------------------------------------------------

 SCF Done:  E(RHF) =  -868.338543581     A.U. after   16 cycles
 E2 =    -0.2601482659D+01 EUMP2 =    -0.87094002624007D+03

 The electronic state is 1-A.
 Alpha  occ. eigenvalues --  -20.61119 -20.61038 -20.60639 -20.60590 -15.86095
 Alpha  occ. eigenvalues --  -15.85661 -11.31349 -11.31036 -11.27970 -11.27817
 Alpha  occ. eigenvalues --  -11.27658 -11.27648 -11.27499 -11.27382 -11.26953
 Alpha  occ. eigenvalues --  -11.26843 -11.26686 -11.26563  -1.60163  -1.59704
 Alpha  occ. eigenvalues --   -1.39707  -1.39247  -1.19519  -1.19216  -1.08945
 Alpha  occ. eigenvalues --   -1.08621  -1.04897  -1.04611  -0.95789  -0.95447
 Alpha  occ. eigenvalues --   -0.86305  -0.86008  -0.82612  -0.82264  -0.77677
 Alpha  occ. eigenvalues --   -0.77299  -0.72301  -0.71881  -0.71521  -0.71039
 Alpha  occ. eigenvalues --   -0.70621  -0.70302  -0.65170  -0.64900  -0.64860
 Alpha  occ. eigenvalues --   -0.64599  -0.62233  -0.61925  -0.55415  -0.55132
 Alpha  occ. eigenvalues --   -0.53366  -0.52982  -0.52838  -0.52685  -0.49090
 Alpha  occ. eigenvalues --   -0.49062  -0.48654  -0.48617  -0.45123  -0.44640
 Alpha  occ. eigenvalues --   -0.37575  -0.37257  -0.36455  -0.36150
 Alpha virt. eigenvalues --    0.04759   0.05227   0.10857   0.11688   0.16311
 Alpha virt. eigenvalues --    0.16688   0.21235   0.21659   0.27172   0.27422
 Alpha virt. eigenvalues --    0.28204   0.28538   0.30915   0.31082   0.32206

 Mulliken charges:
               1
     1  C   -0.170258
     2  C   -0.218765
     3  C   -0.172771
     4  C    0.157275
     5  C   -0.173058
     6  C   -0.218891
     7  H    0.225717
     8  H    0.221764
     9  H    0.272239
    10  H    0.285348
    11  H    0.227325
    12  N    0.483240
    13  O   -0.450951
    14  O   -0.465928
    15  C   -0.171160
    16  C   -0.219104
    17  C   -0.172298
    18  C    0.157216
    19  C   -0.180677
    20  C   -0.221193
    21  H    0.223822
    22  H    0.221214
    23  H    0.273580
    24  H    0.289236
    25  H    0.229752
    26  N    0.485480
    27  O   -0.453465
    28  O   -0.464687
 Sum of Mulliken charges =  -0.00000

 Dipole moment (field-independent basis, Debye):
    X=             -1.3353    Y=              7.8133    Z=              0.8446  Tot=              7.9715
 Quadrupole moment (field-independent basis, Debye-Ang):
   XX=           -106.3958   YY=           -105.1450   ZZ=           -101.0300
   XY=              2.0538   XZ=            -12.1145   YZ=             -1.5675

 Normal termination of Gaussian 16 at Thu May  6 19:31:28 2021.
