 Gaussian 16, Revision A.03,
 Gaussian 16:  EM64L-G16RevA.03 25-Dec-2016

 -------------
 #p 6-31g* mp2
 -------------

 ------------------------------------------------------
 Input file generated by CHIRIPA (05-May-2021 14:51:10)
 ------------------------------------------------------
 Symbolic Z-matrix:
 Charge =  0 Multiplicity = 1

                         Standard orientation:
 ---------------------------------------------------------------------
 Center     Atomic      Atomic             Coordinates (Angstroms)
 Number     Number       Type             X           Y           Z
 ---------------------------------------------------------------------
      1          6           0        3.067065    0.551749    0.240325
      2          6           0        3.055635    1.378901   -1.045628
      3          6           0        3.802412    2.705354   -0.901965
      4          1           0        2.618161    1.140891    1.051708
      5          1           0        4.107981    0.357642    0.533943
      6          1           0        2.015042    1.570214   -1.337488
      7          1           0        3.504444    0.787650   -1.854088
      8          1           0        4.849483    2.530900   -0.633996
      9          1           0        3.351619    3.317910   -0.114461
     10          1           0        3.781759    3.280566   -1.832860
     11          6           0        2.324491   -0.777149    0.112485
     12          6           0        2.335922   -1.604300    1.398438
     13          6           0        1.589144   -2.930754    1.254775
     14          1           0        1.283576   -0.583042   -0.181134
     15          1           0        2.773396   -1.366290   -0.698898
     16          1           0        1.887112   -1.013049    2.206898
     17          1           0        3.376514   -1.795614    1.690298
     18          1           0        2.039937   -3.543310    0.467271
     19          1           0        0.542073   -2.756299    0.986806
     20          1           0        1.609797   -3.505966    2.185669
     21          6           0       -2.922321   -0.596736   -0.346145
     22          6           0       -1.830123   -1.441066   -1.003559
     23          6           0       -2.298535   -2.857784   -1.337169
     24          1           0       -3.262059   -1.097575    0.570742
     25          1           0       -3.791764   -0.548182   -1.016298
     26          1           0       -0.962471   -1.486866   -0.332962
     27          1           0       -1.492811   -0.938063   -1.918886
     28          1           0       -3.149784   -2.830109   -2.025071
     29          1           0       -2.616431   -3.382031   -0.430136
     30          1           0       -1.502147   -3.443901   -1.806308
     31          6           0       -2.469235    0.822135   -0.006665
     32          6           0       -3.561434    1.666466    0.650748
     33          6           0       -3.093021    3.083184    0.984359
     34          1           0       -1.599791    0.773581    0.663489
     35          1           0       -2.129498    1.322975   -0.923552
     36          1           0       -3.898745    1.163463    1.566077
     37          1           0       -4.429085    1.712265   -0.019848
     38          1           0       -2.775125    3.607430    0.077326
     39          1           0       -2.241772    3.055509    1.672261
     40          1           0       -3.889410    3.669301    1.453498
 ---------------------------------------------------------------------

 SCF Done:  E(RHF) =  -470.732794197     A.U. after   11 cycles
 E2 =    -0.1583887367D+01 EUMP2 =    -0.47231668156368D+03

 The electronic state is 1-A.
 Alpha  occ. eigenvalues --  -11.21655 -11.21613 -11.21606 -11.21572 -11.21468
 Alpha  occ. eigenvalues --  -11.21402 -11.21370 -11.21304 -11.21118 -11.21086
 Alpha  occ. eigenvalues --  -11.21073 -11.21048  -1.08495  -1.08404  -1.03590
 Alpha  occ. eigenvalues --   -1.03506  -0.96025  -0.95963  -0.87038  -0.86984
 Alpha  occ. eigenvalues --   -0.79704  -0.79537  -0.78396  -0.78128  -0.65250
 Alpha  occ. eigenvalues --   -0.64939  -0.61146  -0.60777  -0.59432  -0.59286
 Alpha  occ. eigenvalues --   -0.57656  -0.57552  -0.55370  -0.55201  -0.52711
 Alpha  occ. eigenvalues --   -0.52663  -0.52456  -0.52382  -0.49985  -0.49905
 Alpha  occ. eigenvalues --   -0.48145  -0.47820  -0.46919  -0.46476  -0.46146
 Alpha  occ. eigenvalues --   -0.45789  -0.45738  -0.45106  -0.43824  -0.43765
 Alpha virt. eigenvalues --    0.20559   0.23084   0.23537   0.24723   0.25449
 Alpha virt. eigenvalues --    0.26576   0.27217   0.27372   0.28583   0.29989
 Alpha virt. eigenvalues --    0.30674   0.31544   0.31623   0.31858   0.32043

 Mulliken charges:
               1
     1  C   -0.297544
     2  C   -0.299819
     3  C   -0.475697
     4  H    0.149201
     5  H    0.149331
     6  H    0.152541
     7  H    0.151767
     8  H    0.155057
     9  H    0.155249
    10  H    0.160110
    11  C   -0.305830
    12  C   -0.299498
    13  C   -0.481335
    14  H    0.157241
    15  H    0.149379
    16  H    0.150949
    17  H    0.152116
    18  H    0.155436
    19  H    0.160294
    20  H    0.160319
    21  C   -0.297486
    22  C   -0.311868
    23  C   -0.475196
    24  H    0.149508
    25  H    0.149877
    26  H    0.162734
    27  H    0.152265
    28  H    0.155308
    29  H    0.155076
    30  H    0.161227
    31  C   -0.299092
    32  C   -0.299647
    33  C   -0.475752
    34  H    0.148893
    35  H    0.149641
    36  H    0.152143
    37  H    0.152323
    38  H    0.155280
    39  H    0.154960
    40  H    0.160540
 Sum of Mulliken charges =  -0.00000

 Dipole moment (field-independent basis, Debye):
    X=             -0.0301    Y=             -0.0091    Z=             -0.0191  Tot=              0.0368
 Quadrupole moment (field-independent basis, Debye-Ang):
   XX=            -84.2539   YY=            -86.5525   ZZ=            -83.9413
   XY=             -1.2066   XZ=             -0.0302   YZ=             -0.3884

 Normal termination of Gaussian 16 at Thu May  6 02:12:25 2021.
