 Gaussian 16, Revision A.03,
 Gaussian 16:  EM64L-G16RevA.03 25-Dec-2016

 -------------
 #p 6-31g* mp2
 -------------

 ------------------------------------------------------
 Input file generated by CHIRIPA (05-May-2021 14:53:16)
 ------------------------------------------------------
 Symbolic Z-matrix:
 Charge =  0 Multiplicity = 1

                         Standard orientation:
 ---------------------------------------------------------------------
 Center     Atomic      Atomic             Coordinates (Angstroms)
 Number     Number       Type             X           Y           Z
 ---------------------------------------------------------------------
      1          6           0        4.572166   -0.438541   -0.381202
      2          6           0        6.069286   -0.130739   -0.337911
      3          6           0        6.830528   -0.730382   -1.520591
      4          1           0        4.428527   -1.527602   -0.397352
      5          1           0        4.152894   -0.053993   -1.321271
      6          1           0        6.485339   -0.514532    0.602418
      7          1           0        6.209372    0.957713   -0.321669
      8          1           0        6.442845   -0.338895   -2.466656
      9          1           0        6.720380   -1.819505   -1.537319
     10          1           0        7.898869   -0.498179   -1.469695
     11          6           0        3.797563    0.154234    0.794525
     12          6           0        2.300443   -0.153569    0.751233
     13          6           0        1.539201    0.446074    1.933913
     14          1           0        4.216835   -0.230315    1.734594
     15          1           0        3.941202    1.243294    0.810675
     16          1           0        2.160356   -1.242021    0.734992
     17          1           0        1.884390    0.230224   -0.189096
     18          1           0        1.649349    1.535197    1.950642
     19          1           0        1.926883    0.054587    2.879979
     20          1           0        0.470860    0.213872    1.883018
     21          6           0       -4.548196   -2.063281   -0.107423
     22          6           0       -3.624317   -1.769306    0.900817
     23          6           0       -2.910130   -0.567601    0.881018
     24          6           0       -3.145799    0.321265   -0.166678
     25          6           0       -4.059605    0.057068   -1.185721
     26          6           0       -4.762513   -1.150764   -1.145643
     27          1           0       -5.098612   -2.999175   -0.084165
     28          1           0       -3.455827   -2.476101    1.708343
     29          1           0       -2.189003   -0.314691    1.648762
     30          1           0       -4.205987    0.781418   -1.977749
     31          1           0       -5.479391   -1.376416   -1.929998
     32          7           0       -2.395691    1.596699   -0.198372
     33          8           0       -2.621530    2.363092   -1.132330
     34          8           0       -1.596120    1.805843    0.711344
 ---------------------------------------------------------------------

 SCF Done:  E(RHF) =  -669.535650338     A.U. after   15 cycles
 E2 =    -0.2091341659D+01 EUMP2 =    -0.67162699199700D+03

 The electronic state is 1-A.
 Alpha  occ. eigenvalues --  -20.60869 -20.60859 -15.85900 -11.31253 -11.27823
 Alpha  occ. eigenvalues --  -11.27814 -11.27557 -11.26833 -11.26823 -11.21266
 Alpha  occ. eigenvalues --  -11.20997 -11.20982 -11.20857 -11.20800 -11.20225
 Alpha  occ. eigenvalues --   -1.59933  -1.39488  -1.19424  -1.08822  -1.07961
 Alpha  occ. eigenvalues --   -1.04825  -1.03025  -0.95671  -0.95454  -0.86482
 Alpha  occ. eigenvalues --   -0.86224  -0.82492  -0.79105  -0.77777  -0.77542
 Alpha  occ. eigenvalues --   -0.72128  -0.71250  -0.70535  -0.65080  -0.64832
 Alpha  occ. eigenvalues --   -0.64589  -0.62185  -0.60413  -0.58847  -0.57081
 Alpha  occ. eigenvalues --   -0.55327  -0.54740  -0.53152  -0.52934  -0.52143
 Alpha  occ. eigenvalues --   -0.51894  -0.49404  -0.48883  -0.48870  -0.47411
 Alpha  occ. eigenvalues --   -0.46139  -0.45315  -0.45236  -0.44881  -0.43266
 Alpha  occ. eigenvalues --   -0.37402  -0.36425
 Alpha virt. eigenvalues --    0.04966   0.11199   0.16462   0.20937   0.23297
 Alpha virt. eigenvalues --    0.24322   0.26406   0.27105   0.27678   0.27976
 Alpha virt. eigenvalues --    0.29076   0.30188   0.31541   0.31919   0.32271

 Mulliken charges:
               1
     1  C   -0.297943
     2  C   -0.299379
     3  C   -0.475463
     4  H    0.147165
     5  H    0.150337
     6  H    0.150853
     7  H    0.152757
     8  H    0.155333
     9  H    0.153860
    10  H    0.159395
    11  C   -0.298187
    12  C   -0.300281
    13  C   -0.475637
    14  H    0.147173
    15  H    0.151999
    16  H    0.144720
    17  H    0.156048
    18  H    0.164357
    19  H    0.146295
    20  H    0.163889
    21  C   -0.170483
    22  C   -0.219641
    23  C   -0.172279
    24  C    0.157103
    25  C   -0.170588
    26  C   -0.218589
    27  H    0.225867
    28  H    0.224055
    29  H    0.279931
    30  H    0.275727
    31  H    0.223687
    32  N    0.489071
    33  O   -0.459897
    34  O   -0.461255
 Sum of Mulliken charges =  -0.00000

 Dipole moment (field-independent basis, Debye):
    X=             -2.8031    Y=             -4.3723    Z=              0.0728  Tot=              5.1942
 Quadrupole moment (field-independent basis, Debye-Ang):
   XX=            -78.5015   YY=            -97.2869   ZZ=            -92.0112
   XY=             13.3535   XZ=              3.0154   YZ=             -1.1266

 Normal termination of Gaussian 16 at Thu May  6 20:26:33 2021.
