 Gaussian 16, Revision A.03,
 Gaussian 16:  EM64L-G16RevA.03 25-Dec-2016

 -------------
 #p 6-31g* mp2
 -------------

 ------------------------------------------------------
 Input file generated by CHIRIPA (05-May-2021 14:57:24)
 ------------------------------------------------------
 Symbolic Z-matrix:
 Charge =  0 Multiplicity = 1

                         Standard orientation:
 ---------------------------------------------------------------------
 Center     Atomic      Atomic             Coordinates (Angstroms)
 Number     Number       Type             X           Y           Z
 ---------------------------------------------------------------------
      1          6           0        2.200645    1.965155   -0.333161
      2          6           0        1.732851    0.669773   -0.577446
      3          6           0        2.600050   -0.424240   -0.502283
      4          6           0        3.934834   -0.185441   -0.178837
      5          6           0        4.431040    1.093292    0.069985
      6          6           0        3.545875    2.172414   -0.010793
      7          1           0        1.520006    2.809227   -0.393730
      8          1           0        0.688637    0.505825   -0.828011
      9          1           0        2.264487   -1.437571   -0.686606
     10          1           0        5.477327    1.225244    0.317555
     11          1           0        3.911957    3.177325    0.179425
     12          7           0        4.862409   -1.335742   -0.096293
     13          8           0        6.033828   -1.098783    0.190526
     14          8           0        4.400459   -2.452525   -0.319977
     15          6           0       -5.845253   -1.007007   -0.857799
     16          6           0       -5.229498   -1.645417    0.223774
     17          6           0       -4.085829   -1.098828    0.813526
     18          6           0       -3.582487    0.092811    0.293974
     19          6           0       -4.173320    0.752626   -0.782524
     20          6           0       -5.316132    0.187871   -1.356616
     21          1           0       -6.733349   -1.438666   -1.309850
     22          1           0       -5.638216   -2.573481    0.613250
     23          1           0       -3.589138   -1.572107    1.651814
     24          1           0       -3.742660    1.676643   -1.148779
     25          1           0       -5.792239    0.685866   -2.196478
     26          7           0       -2.372189    0.681076    0.910029
     27          8           0       -1.948357    1.731859    0.433736
     28          8           0       -1.870308    0.080235    1.857522
 ---------------------------------------------------------------------

 SCF Done:  E(RHF) =  -868.339740492     A.U. after   16 cycles
 E2 =    -0.2598530420D+01 EUMP2 =    -0.87093827091201D+03

 The electronic state is 1-A.
 Alpha  occ. eigenvalues --  -20.61803 -20.61746 -20.60023 -20.60018 -15.86800
 Alpha  occ. eigenvalues --  -15.85070 -11.31913 -11.30222 -11.28470 -11.28424
 Alpha  occ. eigenvalues --  -11.28127 -11.27405 -11.27375 -11.26795 -11.26743
 Alpha  occ. eigenvalues --  -11.26351 -11.25744 -11.25615  -1.60848  -1.59103
 Alpha  occ. eigenvalues --   -1.40404  -1.38663  -1.20060  -1.18356  -1.09500
 Alpha  occ. eigenvalues --   -1.07763  -1.05419  -1.03735  -0.96375  -0.94644
 Alpha  occ. eigenvalues --   -0.86828  -0.85123  -0.83212  -0.81497  -0.78293
 Alpha  occ. eigenvalues --   -0.76596  -0.73019  -0.72170  -0.71294  -0.71154
 Alpha  occ. eigenvalues --   -0.70422  -0.69411  -0.65710  -0.65411  -0.63998
 Alpha  occ. eigenvalues --   -0.63716  -0.62767  -0.61100  -0.55918  -0.54156
 Alpha  occ. eigenvalues --   -0.53767  -0.53501  -0.52063  -0.51823  -0.49794
 Alpha  occ. eigenvalues --   -0.49744  -0.48061  -0.48030  -0.45853  -0.44118
 Alpha  occ. eigenvalues --   -0.38023  -0.37011  -0.36274  -0.35335
 Alpha virt. eigenvalues --    0.04193   0.05941   0.10646   0.12334   0.15737
 Alpha virt. eigenvalues --    0.17510   0.20830   0.22495   0.26767   0.27628
 Alpha virt. eigenvalues --    0.28263   0.29400   0.30449   0.31877   0.32032

 Mulliken charges:
               1
     1  C   -0.168543
     2  C   -0.212972
     3  C   -0.171777
     4  C    0.157716
     5  C   -0.172297
     6  C   -0.219518
     7  H    0.232661
     8  H    0.226113
     9  H    0.271487
    10  H    0.272169
    11  H    0.220414
    12  N    0.488357
    13  O   -0.463179
    14  O   -0.463366
    15  C   -0.169718
    16  C   -0.218382
    17  C   -0.170617
    18  C    0.156419
    19  C   -0.171664
    20  C   -0.218337
    21  H    0.228390
    22  H    0.226506
    23  H    0.277664
    24  H    0.273951
    25  H    0.225314
    26  N    0.486643
    27  O   -0.469310
    28  O   -0.454124
 Sum of Mulliken charges =  -0.00000

 Dipole moment (field-independent basis, Debye):
    X=             -8.0588    Y=              1.9839    Z=             -2.3986  Tot=              8.6390
 Quadrupole moment (field-independent basis, Debye-Ang):
   XX=            -98.2772   YY=           -102.6105   ZZ=           -104.7395
   XY=             26.9967   XZ=              7.4117   YZ=             -3.5913

 Normal termination of Gaussian 16 at Fri May  7 03:26:05 2021.
