 Gaussian 16, Revision A.03,
 Gaussian 16:  EM64L-G16RevA.03 25-Dec-2016

 -------------
 #p 6-31g* mp2
 -------------

 ------------------------------------------------------
 Input file generated by CHIRIPA (05-May-2021 14:57:25)
 ------------------------------------------------------
 Symbolic Z-matrix:
 Charge =  0 Multiplicity = 1

                         Standard orientation:
 ---------------------------------------------------------------------
 Center     Atomic      Atomic             Coordinates (Angstroms)
 Number     Number       Type             X           Y           Z
 ---------------------------------------------------------------------
      1          6           0        1.406460   -1.602237    0.232548
      2          6           0        2.542239   -2.160616   -0.363050
      3          6           0        3.729288   -1.427682   -0.453986
      4          6           0        3.745262   -0.133332    0.063405
      5          6           0        2.630293    0.450720    0.662586
      6          6           0        1.454028   -0.300645    0.742567
      7          1           0        0.488520   -2.178757    0.298934
      8          1           0        2.508203   -3.171222   -0.759992
      9          1           0        4.623251   -1.835497   -0.909985
     10          1           0        2.694843    1.460537    1.049266
     11          1           0        0.573505    0.135564    1.205650
     12          7           0        4.996230    0.652349   -0.027065
     13          8           0        4.984451    1.790651    0.436365
     14          8           0        5.964830    0.114988   -0.559694
     15          6           0       -4.567951   -2.029801    0.148058
     16          6           0       -3.179500   -1.892321    0.048937
     17          6           0       -2.598492   -0.626954   -0.076852
     18          6           0       -3.439621    0.484464   -0.100201
     19          6           0       -4.826360    0.380092   -0.003503
     20          6           0       -5.385508   -0.895157    0.121568
     21          1           0       -5.010801   -3.016607    0.245494
     22          1           0       -2.542117   -2.771739    0.069227
     23          1           0       -1.526593   -0.491751   -0.155403
     24          1           0       -5.435836    1.275312   -0.026695
     25          1           0       -6.464111   -0.998910    0.198355
     26          7           0       -2.836105    1.829282   -0.232987
     27          8           0       -3.599007    2.792761   -0.251053
     28          8           0       -1.611596    1.894408   -0.316486
 ---------------------------------------------------------------------

 SCF Done:  E(RHF) =  -868.336968814     A.U. after   16 cycles
 E2 =    -0.2601208812D+01 EUMP2 =    -0.87093817762669D+03

 The electronic state is 1-A.
 Alpha  occ. eigenvalues --  -20.61611 -20.61568 -20.60612 -20.60597 -15.86638
 Alpha  occ. eigenvalues --  -15.85659 -11.32051 -11.31116 -11.28699 -11.28561
 Alpha  occ. eigenvalues --  -11.28339 -11.27726 -11.27700 -11.27616 -11.27593
 Alpha  occ. eigenvalues --  -11.27571 -11.26830 -11.26687  -1.60656  -1.59678
 Alpha  occ. eigenvalues --   -1.40213  -1.39228  -1.20222  -1.19301  -1.09597
 Alpha  occ. eigenvalues --   -1.08733  -1.05652  -1.04686  -0.96432  -0.95545
 Alpha  occ. eigenvalues --   -0.87044  -0.86119  -0.83281  -0.82338  -0.78343
 Alpha  occ. eigenvalues --   -0.77331  -0.72857  -0.71976  -0.71884  -0.71362
 Alpha  occ. eigenvalues --   -0.70997  -0.70505  -0.65880  -0.65696  -0.64969
 Alpha  occ. eigenvalues --   -0.64711  -0.62997  -0.61983  -0.56115  -0.55354
 Alpha  occ. eigenvalues --   -0.53948  -0.53771  -0.53014  -0.52774  -0.49614
 Alpha  occ. eigenvalues --   -0.49602  -0.48648  -0.48624  -0.45603  -0.44612
 Alpha  occ. eigenvalues --   -0.38174  -0.37362  -0.37246  -0.36245
 Alpha virt. eigenvalues --    0.04198   0.05146   0.10370   0.11225   0.15709
 Alpha virt. eigenvalues --    0.16565   0.18356   0.22250   0.24818   0.26444
 Alpha virt. eigenvalues --    0.27675   0.29426   0.30311   0.31467   0.33081

 Mulliken charges:
               1
     1  C   -0.175826
     2  C   -0.217710
     3  C   -0.171237
     4  C    0.158999
     5  C   -0.169046
     6  C   -0.216705
     7  H    0.212652
     8  H    0.221251
     9  H    0.275523
    10  H    0.281367
    11  H    0.232409
    12  N    0.487918
    13  O   -0.457442
    14  O   -0.461205
    15  C   -0.169720
    16  C   -0.220698
    17  C   -0.178907
    18  C    0.158405
    19  C   -0.168926
    20  C   -0.218206
    21  H    0.228214
    22  H    0.218762
    23  H    0.276327
    24  H    0.278476
    25  H    0.226875
    26  N    0.488424
    27  O   -0.454939
    28  O   -0.465038
 Sum of Mulliken charges =  -0.00000

 Dipole moment (field-independent basis, Debye):
    X=             -6.6896    Y=             -7.2241    Z=              0.8052  Tot=              9.8786
 Quadrupole moment (field-independent basis, Debye-Ang):
   XX=           -116.6737   YY=           -105.7034   ZZ=           -105.3905
   XY=              1.7169   XZ=             -1.7030   YZ=              2.6601

 Normal termination of Gaussian 16 at Wed May  5 16:25:51 2021.
