 Gaussian 16, Revision A.03,
 Gaussian 16:  EM64L-G16RevA.03 25-Dec-2016

 -------------
 #p 6-31g* mp2
 -------------

 ------------------------------------------------------
 Input file generated by CHIRIPA (05-May-2021 14:57:24)
 ------------------------------------------------------
 Symbolic Z-matrix:
 Charge =  0 Multiplicity = 1

                         Standard orientation:
 ---------------------------------------------------------------------
 Center     Atomic      Atomic             Coordinates (Angstroms)
 Number     Number       Type             X           Y           Z
 ---------------------------------------------------------------------
      1          6           0        6.233109    0.297818   -0.048115
      2          6           0        5.630802   -0.557847   -0.976331
      3          6           0        4.263922   -0.840890   -0.898399
      4          6           0        3.526084   -0.248325    0.125199
      5          6           0        4.097245    0.608331    1.064989
      6          6           0        5.465760    0.877155    0.967792
      7          1           0        7.295569    0.512170   -0.116138
      8          1           0        6.224266   -1.009188   -1.766355
      9          1           0        3.772108   -1.499668   -1.603770
     10          1           0        3.479639    1.043283    1.841390
     11          1           0        5.930843    1.542058    1.690043
     12          7           0        2.078164   -0.540443    0.217900
     13          8           0        1.450089   -0.005756    1.129091
     14          8           0        1.598776   -1.298562   -0.622386
     15          6           0       -5.773496   -1.214229    0.464695
     16          6           0       -4.509563   -1.803857    0.358239
     17          6           0       -3.389528   -1.029886    0.040378
     18          6           0       -3.570518    0.336920   -0.165472
     19          6           0       -4.816772    0.953658   -0.066601
     20          6           0       -5.922804    0.160223    0.252310
     21          1           0       -6.638127   -1.823029    0.712025
     22          1           0       -4.390629   -2.871036    0.522649
     23          1           0       -2.399533   -1.460523   -0.048385
     24          1           0       -4.903921    2.020004   -0.236101
     25          1           0       -6.903184    0.620844    0.334319
     26          7           0       -2.392199    1.166592   -0.502533
     27          8           0       -2.578172    2.368614   -0.679153
     28          8           0       -1.304972    0.599157   -0.583720
 ---------------------------------------------------------------------

 SCF Done:  E(RHF) =  -868.336522956     A.U. after   16 cycles
 E2 =    -0.2600393962D+01 EUMP2 =    -0.87093691691835D+03

 The electronic state is 1-A.
 Alpha  occ. eigenvalues --  -20.59847 -20.59812 -20.59510 -20.59340 -15.84889
 Alpha  occ. eigenvalues --  -15.84463 -11.30516 -11.30105 -11.27125 -11.27106
 Alpha  occ. eigenvalues --  -11.26921 -11.26778 -11.26621 -11.26571 -11.26204
 Alpha  occ. eigenvalues --  -11.26189 -11.25854 -11.25779  -1.58867  -1.58508
 Alpha  occ. eigenvalues --   -1.38429  -1.38041  -1.18711  -1.18323  -1.08059
 Alpha  occ. eigenvalues --   -1.07682  -1.04159  -1.03762  -0.94856  -0.94457
 Alpha  occ. eigenvalues --   -0.85545  -0.85149  -0.81695  -0.81278  -0.76691
 Alpha  occ. eigenvalues --   -0.76265  -0.71123  -0.70751  -0.70122  -0.69836
 Alpha  occ. eigenvalues --   -0.69825  -0.69432  -0.64367  -0.64173  -0.63964
 Alpha  occ. eigenvalues --   -0.63779  -0.61507  -0.61089  -0.54659  -0.54289
 Alpha  occ. eigenvalues --   -0.52467  -0.52261  -0.52091  -0.51857  -0.47936
 Alpha  occ. eigenvalues --   -0.47842  -0.47473  -0.47386  -0.43833  -0.43300
 Alpha  occ. eigenvalues --   -0.36707  -0.36344  -0.35772  -0.35381
 Alpha virt. eigenvalues --    0.05854   0.06272   0.11879   0.12268   0.17299
 Alpha virt. eigenvalues --    0.17688   0.21953   0.22346   0.27842   0.28241
 Alpha virt. eigenvalues --    0.28868   0.29318   0.31474   0.31863   0.33122

 Mulliken charges:
               1
     1  C   -0.171714
     2  C   -0.218547
     3  C   -0.171004
     4  C    0.160845
     5  C   -0.170457
     6  C   -0.218539
     7  H    0.223247
     8  H    0.221146
     9  H    0.274320
    10  H    0.275770
    11  H    0.221614
    12  N    0.490996
    13  O   -0.454410
    14  O   -0.462178
    15  C   -0.171893
    16  C   -0.219625
    17  C   -0.171882
    18  C    0.157575
    19  C   -0.172052
    20  C   -0.219248
    21  H    0.221651
    22  H    0.221463
    23  H    0.288160
    24  H    0.272798
    25  H    0.219389
    26  N    0.486592
    27  O   -0.471090
    28  O   -0.442927
 Sum of Mulliken charges =  -0.00000

 Dipole moment (field-independent basis, Debye):
    X=              1.1517    Y=             -1.9655    Z=              0.8758  Tot=              2.4406
 Quadrupole moment (field-independent basis, Debye-Ang):
   XX=            -41.7558   YY=           -103.5364   ZZ=           -103.3584
   XY=              9.0455   XZ=             -4.3253   YZ=              3.7867

 Normal termination of Gaussian 16 at Thu May  6 19:39:27 2021.
