 Gaussian 16, Revision A.03,
 Gaussian 16:  EM64L-G16RevA.03 25-Dec-2016

 -------------
 #p 6-31g* mp2
 -------------

 ------------------------------------------------------
 Input file generated by CHIRIPA (05-May-2021 14:55:23)
 ------------------------------------------------------
 Symbolic Z-matrix:
 Charge =  0 Multiplicity = 1

                         Standard orientation:
 ---------------------------------------------------------------------
 Center     Atomic      Atomic             Coordinates (Angstroms)
 Number     Number       Type             X           Y           Z
 ---------------------------------------------------------------------
      1          6           0        1.426841    1.112545   -0.405311
      2          6           0        2.534586    1.509266   -1.161640
      3          6           0        3.764464    0.861228   -1.013334
      4          6           0        3.851388   -0.184304   -0.095403
      5          6           0        2.765907   -0.602737    0.672669
      6          6           0        1.545827    0.059665    0.507820
      7          1           0        0.475247    1.621536   -0.526945
      8          1           0        2.445104    2.326625   -1.871544
      9          1           0        4.638096    1.147913   -1.586044
     10          1           0        2.885927   -1.420910    1.372389
     11          1           0        0.687220   -0.250577    1.096538
     12          7           0        5.148218   -0.877957    0.070359
     13          8           0        5.198778   -1.796211    0.885767
     14          8           0        6.089559   -0.490253   -0.618264
     15          6           0       -4.080729    0.201358    0.646751
     16          6           0       -3.285502    1.476995    0.366838
     17          6           0       -2.137607    1.686784    1.354827
     18          1           0       -4.478562    0.241986    1.669992
     19          1           0       -3.401386   -0.661488    0.609546
     20          1           0       -3.966398    2.337038    0.403194
     21          1           0       -2.889676    1.433411   -0.655922
     22          1           0       -1.435725    0.847573    1.313722
     23          1           0       -2.518566    1.756335    2.378856
     24          1           0       -1.582482    2.604361    1.136315
     25          6           0       -5.231667   -0.022205   -0.332580
     26          6           0       -6.026894   -1.297841   -0.052667
     27          6           0       -7.174787   -1.507630   -1.040657
     28          1           0       -5.911009    0.840642   -0.295374
     29          1           0       -4.833833   -0.062832   -1.355821
     30          1           0       -6.422720   -1.254258    0.970093
     31          1           0       -5.345996   -2.157884   -0.089023
     32          1           0       -6.793830   -1.577181   -2.064685
     33          1           0       -7.876670   -0.668420   -0.999551
     34          1           0       -7.729913   -2.425206   -0.822143
 ---------------------------------------------------------------------

 SCF Done:  E(RHF) =  -669.535194010     A.U. after   15 cycles
 E2 =    -0.2091448723D+01 EUMP2 =    -0.67162664273227D+03

 The electronic state is 1-A.
 Alpha  occ. eigenvalues --  -20.60717 -20.60712 -15.85770 -11.31122 -11.27696
 Alpha  occ. eigenvalues --  -11.27691 -11.27394 -11.26700 -11.26681 -11.22714
 Alpha  occ. eigenvalues --  -11.22457 -11.22274 -11.22169 -11.22065 -11.21534
 Alpha  occ. eigenvalues --   -1.59793  -1.39347  -1.19294  -1.09269  -1.08687
 Alpha  occ. eigenvalues --   -1.04701  -1.04399  -0.96866  -0.95522  -0.87885
 Alpha  occ. eigenvalues --   -0.86097  -0.82360  -0.80476  -0.79027  -0.77415
 Alpha  occ. eigenvalues --   -0.71989  -0.71116  -0.70404  -0.65918  -0.64946
 Alpha  occ. eigenvalues --   -0.64735  -0.62131  -0.61719  -0.60270  -0.58447
 Alpha  occ. eigenvalues --   -0.56165  -0.55168  -0.53555  -0.53303  -0.53022
 Alpha  occ. eigenvalues --   -0.52770  -0.50789  -0.48812  -0.48744  -0.48711
 Alpha  occ. eigenvalues --   -0.47498  -0.46578  -0.46471  -0.44755  -0.44627
 Alpha  occ. eigenvalues --   -0.37265  -0.36306
 Alpha virt. eigenvalues --    0.05124   0.11343   0.16609   0.19168   0.22546
 Alpha virt. eigenvalues --    0.23814   0.24716   0.25919   0.26583   0.27531
 Alpha virt. eigenvalues --    0.29274   0.29941   0.30991   0.31320   0.31622

 Mulliken charges:
               1
     1  C   -0.174558
     2  C   -0.219281
     3  C   -0.170920
     4  C    0.158463
     5  C   -0.171120
     6  C   -0.223506
     7  H    0.231633
     8  H    0.223190
     9  H    0.275298
    10  H    0.275578
    11  H    0.227254
    12  N    0.487989
    13  O   -0.460598
    14  O   -0.460623
    15  C   -0.298578
    16  C   -0.301123
    17  C   -0.482831
    18  H    0.152374
    19  H    0.148212
    20  H    0.156954
    21  H    0.149466
    22  H    0.148162
    23  H    0.163599
    24  H    0.159681
    25  C   -0.298914
    26  C   -0.300329
    27  C   -0.476176
    28  H    0.151088
    29  H    0.150140
    30  H    0.153018
    31  H    0.152591
    32  H    0.155788
    33  H    0.155913
    34  H    0.162166
 Sum of Mulliken charges =  -0.00000

 Dipole moment (field-independent basis, Debye):
    X=             -4.8502    Y=              2.4659    Z=             -0.5544  Tot=              5.4692
 Quadrupole moment (field-independent basis, Debye-Ang):
   XX=           -129.0696   YY=            -94.0806   ZZ=            -92.6433
   XY=             11.0943   XZ=             -4.5222   YZ=             -2.3284

 Normal termination of Gaussian 16 at Thu May  6 12:38:05 2021.
