 Gaussian 16, Revision A.03,
 Gaussian 16:  EM64L-G16RevA.03 25-Dec-2016

 -------------
 #p 6-31g* mp2
 -------------

 ------------------------------------------------------
 Input file generated by CHIRIPA (05-May-2021 14:55:23)
 ------------------------------------------------------
 Symbolic Z-matrix:
 Charge =  0 Multiplicity = 1

                         Standard orientation:
 ---------------------------------------------------------------------
 Center     Atomic      Atomic             Coordinates (Angstroms)
 Number     Number       Type             X           Y           Z
 ---------------------------------------------------------------------
      1          6           0        1.423173    1.095920    1.326633
      2          6           0        2.231594    1.773342    0.407897
      3          6           0        3.288358    1.115345   -0.228372
      4          6           0        3.509274   -0.226271    0.079123
      5          6           0        2.721443   -0.928533    0.989859
      6          6           0        1.670242   -0.250481    1.614175
      7          1           0        0.604414    1.614858    1.816260
      8          1           0        2.042052    2.818990    0.182645
      9          1           0        3.929757    1.615667   -0.943706
     10          1           0        2.934991   -1.970729    1.193926
     11          1           0        1.044042   -0.779104    2.327250
     12          7           0        4.625078   -0.933478   -0.588140
     13          8           0        4.798934   -2.115577   -0.299950
     14          8           0        5.304661   -0.292298   -1.386696
     15          6           0       -4.723168   -0.317566    0.152763
     16          6           0       -5.966109   -0.738716   -0.631912
     17          6           0       -6.889982   -1.654785    0.171253
     18          1           0       -4.171803   -1.215552    0.463506
     19          1           0       -5.035415    0.192165    1.074755
     20          1           0       -5.651599   -1.246278   -1.552825
     21          1           0       -6.514479    0.160383   -0.940988
     22          1           0       -7.232107   -1.153732    1.082570
     23          1           0       -6.364324   -2.568385    0.467257
     24          1           0       -7.772095   -1.943662   -0.408648
     25          6           0       -3.789795    0.598435   -0.636848
     26          6           0       -2.546853    1.019586    0.147827
     27          6           0       -1.622981    1.935654   -0.655338
     28          1           0       -3.477548    0.088703   -1.558840
     29          1           0       -4.341160    1.496422   -0.947591
     30          1           0       -1.998484    0.120486    0.456902
     31          1           0       -2.861365    1.527147    1.068740
     32          1           0       -2.148638    2.849255   -0.951342
     33          1           0       -1.280856    1.434602   -1.566655
     34          1           0       -0.740869    2.224531   -0.075436
 ---------------------------------------------------------------------

 SCF Done:  E(RHF) =  -669.534530035     A.U. after   15 cycles
 E2 =    -0.2092366094D+01 EUMP2 =    -0.67162689612953D+03

 The electronic state is 1-A.
 Alpha  occ. eigenvalues --  -20.60770 -20.60765 -15.85825 -11.31194 -11.27775
 Alpha  occ. eigenvalues --  -11.27765 -11.27506 -11.26783 -11.26770 -11.22402
 Alpha  occ. eigenvalues --  -11.22016 -11.21986 -11.21884 -11.21835 -11.21427
 Alpha  occ. eigenvalues --   -1.59846  -1.39399  -1.19377  -1.09016  -1.08772
 Alpha  occ. eigenvalues --   -1.04779  -1.04121  -0.96572  -0.95600  -0.87585
 Alpha  occ. eigenvalues --   -0.86178  -0.82436  -0.80198  -0.78810  -0.77477
 Alpha  occ. eigenvalues --   -0.72044  -0.71170  -0.70529  -0.65632  -0.65036
 Alpha  occ. eigenvalues --   -0.64797  -0.62130  -0.61503  -0.59995  -0.58214
 Alpha  occ. eigenvalues --   -0.55825  -0.55284  -0.53476  -0.53076  -0.52871
 Alpha  occ. eigenvalues --   -0.52752  -0.50480  -0.48802  -0.48797  -0.48512
 Alpha  occ. eigenvalues --   -0.47220  -0.46354  -0.46260  -0.44804  -0.44386
 Alpha  occ. eigenvalues --   -0.37292  -0.36373
 Alpha virt. eigenvalues --    0.05034   0.11168   0.16467   0.20379   0.22511
 Alpha virt. eigenvalues --    0.24088   0.25916   0.26453   0.26597   0.27547
 Alpha virt. eigenvalues --    0.28882   0.30478   0.30905   0.31205   0.32143

 Mulliken charges:
               1
     1  C   -0.168705
     2  C   -0.216709
     3  C   -0.171448
     4  C    0.158256
     5  C   -0.171034
     6  C   -0.220955
     7  H    0.227598
     8  H    0.223961
     9  H    0.275796
    10  H    0.275622
    11  H    0.223768
    12  N    0.488110
    13  O   -0.460510
    14  O   -0.460367
    15  C   -0.298612
    16  C   -0.300177
    17  C   -0.476012
    18  H    0.149296
    19  H    0.149000
    20  H    0.153382
    21  H    0.152661
    22  H    0.155106
    23  H    0.155485
    24  H    0.161821
    25  C   -0.298539
    26  C   -0.302059
    27  C   -0.475362
    28  H    0.152494
    29  H    0.151187
    30  H    0.150395
    31  H    0.148664
    32  H    0.156209
    33  H    0.161051
    34  H    0.150628
 Sum of Mulliken charges =  -0.00000

 Dipole moment (field-independent basis, Debye):
    X=             -4.0196    Y=              2.4497    Z=              2.2869  Tot=              5.2333
 Quadrupole moment (field-independent basis, Debye-Ang):
   XX=           -122.7217   YY=            -92.4886   ZZ=            -93.7800
   XY=             10.0389   XZ=              7.6664   YZ=             -2.2039

 Normal termination of Gaussian 16 at Thu May  6 14:17:29 2021.
