 Gaussian 16, Revision A.03,
 Gaussian 16:  EM64L-G16RevA.03 25-Dec-2016

 -------------
 #p 6-31g* mp2
 -------------

 ------------------------------------------------------
 Input file generated by CHIRIPA (05-May-2021 14:51:07)
 ------------------------------------------------------
 Symbolic Z-matrix:
 Charge =  0 Multiplicity = 1

                         Standard orientation:
 ---------------------------------------------------------------------
 Center     Atomic      Atomic             Coordinates (Angstroms)
 Number     Number       Type             X           Y           Z
 ---------------------------------------------------------------------
      1          6           0       -3.193475    0.746653   -0.180604
      2          6           0       -4.346208    1.222124    0.704337
      3          6           0       -4.438939    2.746100    0.786149
      4          1           0       -2.249557    1.152511    0.208294
      5          1           0       -3.319946    1.161945   -1.190026
      6          1           0       -4.218345    0.804935    1.711422
      7          1           0       -5.287471    0.814931    0.313399
      8          1           0       -4.590667    3.176786   -0.208883
      9          1           0       -3.515467    3.166734    1.197083
     10          1           0       -5.269718    3.064105    1.423753
     11          6           0       -3.087768   -0.774577   -0.272319
     12          6           0       -1.935036   -1.250049   -1.157260
     13          6           0       -1.842305   -2.774024   -1.239072
     14          1           0       -2.961298   -1.189869    0.737103
     15          1           0       -4.031687   -1.180435   -0.661217
     16          1           0       -0.993773   -0.842855   -0.766322
     17          1           0       -2.062899   -0.832859   -2.164345
     18          1           0       -2.765777   -3.194658   -1.650006
     19          1           0       -1.690577   -3.204710   -0.244040
     20          1           0       -1.011526   -3.092029   -1.876676
     21          6           0        3.235425    0.535374   -0.323605
     22          6           0        4.113353    1.712780    0.101772
     23          6           0        4.293676    2.747473   -1.009392
     24          1           0        3.680076    0.054555   -1.205673
     25          1           0        2.252471    0.914111   -0.636262
     26          1           0        5.093894    1.331806    0.414844
     27          1           0        3.666662    2.190734    0.983045
     28          1           0        3.325303    3.155246   -1.316925
     29          1           0        4.760644    2.291438   -1.888355
     30          1           0        4.924580    3.580426   -0.683803
     31          6           0        3.045818   -0.507450    0.776529
     32          6           0        2.167891   -1.684855    0.351151
     33          6           0        1.987569   -2.719549    1.462316
     34          1           0        4.028772   -0.886187    1.089184
     35          1           0        2.601168   -0.026631    1.658597
     36          1           0        2.614581   -2.162809   -0.530123
     37          1           0        1.187350   -1.303882    0.038078
     38          1           0        1.520600   -2.263514    2.341277
     39          1           0        2.955941   -3.127322    1.769848
     40          1           0        1.356664   -3.552501    1.136726
 ---------------------------------------------------------------------

 SCF Done:  E(RHF) =  -470.733344143     A.U. after   11 cycles
 E2 =    -0.1582988954D+01 EUMP2 =    -0.47231633309755D+03

 The electronic state is 1-A.
 Alpha  occ. eigenvalues --  -11.21628 -11.21615 -11.21611 -11.21594 -11.21434
 Alpha  occ. eigenvalues --  -11.21418 -11.21373 -11.21359 -11.21096 -11.21082
 Alpha  occ. eigenvalues --  -11.21080 -11.21075  -1.08466  -1.08433  -1.03576
 Alpha  occ. eigenvalues --   -1.03515  -0.96012  -0.95974  -0.87022  -0.86996
 Alpha  occ. eigenvalues --   -0.79672  -0.79554  -0.78317  -0.78210  -0.65194
 Alpha  occ. eigenvalues --   -0.64987  -0.61123  -0.60790  -0.59418  -0.59296
 Alpha  occ. eigenvalues --   -0.57644  -0.57559  -0.55330  -0.55227  -0.52706
 Alpha  occ. eigenvalues --   -0.52665  -0.52425  -0.52410  -0.49994  -0.49892
 Alpha  occ. eigenvalues --   -0.48039  -0.47864  -0.46885  -0.46470  -0.45966
 Alpha  occ. eigenvalues --   -0.45777  -0.45765  -0.45408  -0.43809  -0.43787
 Alpha virt. eigenvalues --    0.20658   0.23261   0.23488   0.25026   0.25419
 Alpha virt. eigenvalues --    0.26782   0.27007   0.27365   0.28703   0.28844
 Alpha virt. eigenvalues --    0.30738   0.30993   0.31557   0.31901   0.32390

 Mulliken charges:
               1
     1  C   -0.298219
     2  C   -0.299675
     3  C   -0.475716
     4  H    0.148873
     5  H    0.149698
     6  H    0.151964
     7  H    0.152116
     8  H    0.155258
     9  H    0.155021
    10  H    0.160382
    11  C   -0.297868
    12  C   -0.306853
    13  C   -0.476077
    14  H    0.149575
    15  H    0.149854
    16  H    0.157478
    17  H    0.152295
    18  H    0.155229
    19  H    0.155667
    20  H    0.160994
    21  C   -0.298455
    22  C   -0.299629
    23  C   -0.475744
    24  H    0.149836
    25  H    0.149207
    26  H    0.152018
    27  H    0.151812
    28  H    0.155322
    29  H    0.155221
    30  H    0.160268
    31  C   -0.297662
    32  C   -0.308807
    33  C   -0.475974
    34  H    0.149669
    35  H    0.149113
    36  H    0.152038
    37  H    0.160765
    38  H    0.154450
    39  H    0.155309
    40  H    0.161248
 Sum of Mulliken charges =  -0.00000

 Dipole moment (field-independent basis, Debye):
    X=             -0.0075    Y=             -0.0096    Z=             -0.0135  Tot=              0.0182
 Quadrupole moment (field-independent basis, Debye-Ang):
   XX=            -83.7569   YY=            -86.3995   ZZ=            -84.5365
   XY=             -0.3976   XZ=              0.4094   YZ=              0.5983

 Normal termination of Gaussian 16 at Wed May  5 22:53:30 2021.
