 Gaussian 16, Revision A.03,
 Gaussian 16:  EM64L-G16RevA.03 25-Dec-2016

 -------------
 #p 6-31g* mp2
 -------------

 ------------------------------------------------------
 Input file generated by CHIRIPA (05-May-2021 14:53:12)
 ------------------------------------------------------
 Symbolic Z-matrix:
 Charge =  0 Multiplicity = 1

                         Standard orientation:
 ---------------------------------------------------------------------
 Center     Atomic      Atomic             Coordinates (Angstroms)
 Number     Number       Type             X           Y           Z
 ---------------------------------------------------------------------
      1          6           0       -3.638268    0.715375   -0.385738
      2          6           0       -4.034611    2.154311   -0.053533
      3          6           0       -3.092044    3.185531   -0.674778
      4          1           0       -2.612628    0.534276   -0.036151
      5          1           0       -3.623333    0.589219   -1.477186
      6          1           0       -4.050140    2.277336    1.036989
      7          1           0       -5.059496    2.331946   -0.403781
      8          1           0       -3.083345    3.091665   -1.765519
      9          1           0       -2.068254    3.036745   -0.316562
     10          1           0       -3.393870    4.207377   -0.424598
     11          6           0       -4.571063   -0.327054    0.228235
     12          6           0       -4.174720   -1.765990   -0.103970
     13          6           0       -5.117288   -2.797210    0.517275
     14          1           0       -4.585999   -0.200899    1.319682
     15          1           0       -5.596703   -0.145956   -0.121352
     16          1           0       -3.149836   -1.943626    0.246278
     17          1           0       -4.159191   -1.889016   -1.194492
     18          1           0       -6.141077   -2.648425    0.159059
     19          1           0       -5.125987   -2.703345    1.608015
     20          1           0       -4.815462   -3.819057    0.267094
     21          6           0        0.692636   -0.250001    0.249635
     22          6           0        1.363316   -1.110816   -0.625412
     23          6           0        2.756094   -1.065143   -0.737794
     24          6           0        3.449828   -0.142183    0.043338
     25          6           0        2.810304    0.728641    0.924228
     26          6           0        1.416993    0.665366    1.020303
     27          1           0       -0.389515   -0.292318    0.330602
     28          1           0        0.803356   -1.822716   -1.225153
     29          1           0        3.300628   -1.719936   -1.407232
     30          1           0        3.395749    1.427620    1.509119
     31          1           0        0.898788    1.335105    1.700713
     32          7           0        4.924581   -0.084514   -0.067004
     33          8           0        5.512754    0.737630    0.632117
     34          8           0        5.464396   -0.862548   -0.850521
 ---------------------------------------------------------------------

 SCF Done:  E(RHF) =  -669.535510204     A.U. after   15 cycles
 E2 =    -0.2091314434D+01 EUMP2 =    -0.67162682463843D+03

 The electronic state is 1-A.
 Alpha  occ. eigenvalues --  -20.60739 -20.60734 -15.85793 -11.31157 -11.27729
 Alpha  occ. eigenvalues --  -11.27723 -11.27448 -11.26746 -11.26728 -11.22600
 Alpha  occ. eigenvalues --  -11.22547 -11.22481 -11.22331 -11.21882 -11.21850
 Alpha  occ. eigenvalues --   -1.59815  -1.39368  -1.19329  -1.09424  -1.08723
 Alpha  occ. eigenvalues --   -1.04733  -1.04432  -0.96871  -0.95560  -0.87880
 Alpha  occ. eigenvalues --   -0.86130  -0.82396  -0.80501  -0.79265  -0.77440
 Alpha  occ. eigenvalues --   -0.72011  -0.71138  -0.70459  -0.66060  -0.64981
 Alpha  occ. eigenvalues --   -0.64735  -0.62083  -0.61828  -0.60237  -0.58491
 Alpha  occ. eigenvalues --   -0.56193  -0.55237  -0.53528  -0.53280  -0.53061
 Alpha  occ. eigenvalues --   -0.52825  -0.50809  -0.48812  -0.48769  -0.48765
 Alpha  occ. eigenvalues --   -0.47547  -0.46783  -0.46700  -0.44774  -0.44713
 Alpha  occ. eigenvalues --   -0.37304  -0.36339
 Alpha virt. eigenvalues --    0.05087   0.11305   0.16543   0.18713   0.22714
 Alpha virt. eigenvalues --    0.23313   0.24598   0.26146   0.26817   0.27453
 Alpha virt. eigenvalues --    0.29940   0.30594   0.30981   0.31101   0.31680

 Mulliken charges:
               1
     1  C   -0.303187
     2  C   -0.300218
     3  C   -0.475570
     4  H    0.140811
     5  H    0.153027
     6  H    0.152234
     7  H    0.156041
     8  H    0.157930
     9  H    0.151237
    10  H    0.163851
    11  C   -0.298500
    12  C   -0.300112
    13  C   -0.476062
    14  H    0.150648
    15  H    0.154138
    16  H    0.144203
    17  H    0.153512
    18  H    0.158052
    19  H    0.156744
    20  H    0.162145
    21  C   -0.177795
    22  C   -0.221159
    23  C   -0.170698
    24  C    0.158364
    25  C   -0.170618
    26  C   -0.221825
    27  H    0.237513
    28  H    0.224199
    29  H    0.275506
    30  H    0.275524
    31  H    0.223071
    32  N    0.487987
    33  O   -0.460517
    34  O   -0.460474
 Sum of Mulliken charges =  -0.00000

 Dipole moment (field-independent basis, Debye):
    X=             -5.4560    Y=             -0.1729    Z=              0.3442  Tot=              5.4696
 Quadrupole moment (field-independent basis, Debye-Ang):
   XX=           -130.0640   YY=            -92.7698   ZZ=            -92.2703
   XY=             -0.4644   XZ=              2.0420   YZ=              3.0994

 Normal termination of Gaussian 16 at Thu May  6 08:51:13 2021.
