 Gaussian 16, Revision A.03,
 Gaussian 16:  EM64L-G16RevA.03 25-Dec-2016

 -------------
 #p 6-31g* mp2
 -------------

 ------------------------------------------------------
 Input file generated by CHIRIPA (05-May-2021 14:51:10)
 ------------------------------------------------------
 Symbolic Z-matrix:
 Charge =  0 Multiplicity = 1

                         Standard orientation:
 ---------------------------------------------------------------------
 Center     Atomic      Atomic             Coordinates (Angstroms)
 Number     Number       Type             X           Y           Z
 ---------------------------------------------------------------------
      1          6           0       -4.157696   -0.430922   -0.185340
      2          6           0       -3.465484   -1.705955    0.297483
      3          6           0       -4.232112   -2.973931   -0.079762
      4          1           0       -5.170555   -0.388363    0.238041
      5          1           0       -4.276810   -0.477468   -1.276688
      6          1           0       -3.346467   -1.656403    1.387435
      7          1           0       -2.454087   -1.745389   -0.126942
      8          1           0       -4.338786   -3.050600   -1.166658
      9          1           0       -5.236236   -2.961108    0.356324
     10          1           0       -3.719578   -3.873502    0.275120
     11          6           0       -3.403342    0.845054    0.184202
     12          6           0       -4.095554    2.120088   -0.298621
     13          6           0       -3.328926    3.388063    0.078624
     14          1           0       -3.284228    0.891600    1.275550
     15          1           0       -2.390483    0.802495   -0.239178
     16          1           0       -5.106951    2.159521    0.125805
     17          1           0       -4.214571    2.070535   -1.388573
     18          1           0       -2.324802    3.375240   -0.357461
     19          1           0       -3.222252    3.464732    1.165521
     20          1           0       -3.841460    4.287634   -0.276257
     21          6           0        3.104792   -0.223579    0.356311
     22          6           0        1.993132   -0.854758   -0.482623
     23          6           0        0.647344   -0.880543    0.242626
     24          1           0        3.205018   -0.779557    1.298536
     25          1           0        2.813544    0.800708    0.627244
     26          1           0        2.286997   -1.877071   -0.753057
     27          1           0        1.895671   -0.297331   -1.423044
     28          1           0        0.328156    0.134935    0.498600
     29          1           0        0.721705   -1.453781    1.172395
     30          1           0       -0.132973   -1.335851   -0.375159
     31          6           0        4.456246   -0.190552   -0.355173
     32          6           0        5.567907    0.440625    0.483760
     33          6           0        6.913693    0.466411   -0.241489
     34          1           0        4.747494   -1.214840   -0.626106
     35          1           0        4.356021    0.365424   -1.297399
     36          1           0        5.665367   -0.116802    1.424182
     37          1           0        5.274041    1.462939    0.754193
     38          1           0        6.839332    1.039649   -1.171257
     39          1           0        7.232882   -0.549067   -0.497464
     40          1           0        7.694012    0.921719    0.376297
 ---------------------------------------------------------------------

 SCF Done:  E(RHF) =  -470.733079069     A.U. after   11 cycles
 E2 =    -0.1582875977D+01 EUMP2 =    -0.47231595504607D+03

 The electronic state is 1-A.
 Alpha  occ. eigenvalues --  -11.21619 -11.21609 -11.21567 -11.21506 -11.21418
 Alpha  occ. eigenvalues --  -11.21358 -11.21343 -11.21282 -11.21077 -11.21076
 Alpha  occ. eigenvalues --  -11.21060 -11.21023  -1.08445  -1.08375  -1.03548
 Alpha  occ. eigenvalues --   -1.03481  -0.95996  -0.95936  -0.87020  -0.86948
 Alpha  occ. eigenvalues --   -0.79643  -0.79520  -0.78272  -0.78161  -0.65082
 Alpha  occ. eigenvalues --   -0.65011  -0.60948  -0.60901  -0.59440  -0.59234
 Alpha  occ. eigenvalues --   -0.57627  -0.57525  -0.55311  -0.55195  -0.52788
 Alpha  occ. eigenvalues --   -0.52585  -0.52441  -0.52332  -0.49964  -0.49851
 Alpha  occ. eigenvalues --   -0.47981  -0.47808  -0.46664  -0.46558  -0.45834
 Alpha  occ. eigenvalues --   -0.45750  -0.45683  -0.45622  -0.43766  -0.43679
 Alpha virt. eigenvalues --    0.21661   0.23062   0.23947   0.24248   0.25910
 Alpha virt. eigenvalues --    0.26673   0.26974   0.27457   0.27982   0.29169
 Alpha virt. eigenvalues --    0.29768   0.31444   0.31727   0.31920   0.32066

 Mulliken charges:
               1
     1  C   -0.297870
     2  C   -0.306271
     3  C   -0.475284
     4  H    0.149364
     5  H    0.148820
     6  H    0.151920
     7  H    0.159188
     8  H    0.154642
     9  H    0.154973
    10  H    0.159980
    11  C   -0.301441
    12  C   -0.299535
    13  C   -0.475583
    14  H    0.149398
    15  H    0.153569
    16  H    0.151866
    17  H    0.151669
    18  H    0.154578
    19  H    0.155152
    20  H    0.160168
    21  C   -0.298791
    22  C   -0.299523
    23  C   -0.480884
    24  H    0.149757
    25  H    0.149650
    26  H    0.151922
    27  H    0.151524
    28  H    0.157308
    29  H    0.155779
    30  H    0.163776
    31  C   -0.298221
    32  C   -0.299638
    33  C   -0.475706
    34  H    0.149538
    35  H    0.149591
    36  H    0.151975
    37  H    0.151987
    38  H    0.155173
    39  H    0.155183
    40  H    0.160298
 Sum of Mulliken charges =  -0.00000

 Dipole moment (field-independent basis, Debye):
    X=              0.0310    Y=             -0.0051    Z=              0.0136  Tot=              0.0343
 Quadrupole moment (field-independent basis, Debye-Ang):
   XX=            -85.9245   YY=            -85.0194   ZZ=            -84.0462
   XY=             -0.7958   XZ=             -0.0608   YZ=             -0.4962

 Normal termination of Gaussian 16 at Thu May  6 00:36:28 2021.
