 Gaussian 16, Revision A.03,
 Gaussian 16:  EM64L-G16RevA.03 25-Dec-2016

 -------------
 #p 6-31g* mp2
 -------------

 ------------------------------------------------------
 Input file generated by CHIRIPA (05-May-2021 14:53:14)
 ------------------------------------------------------
 Symbolic Z-matrix:
 Charge =  0 Multiplicity = 1

                         Standard orientation:
 ---------------------------------------------------------------------
 Center     Atomic      Atomic             Coordinates (Angstroms)
 Number     Number       Type             X           Y           Z
 ---------------------------------------------------------------------
      1          6           0       -2.885189    0.624771   -0.212237
      2          6           0       -2.687980    2.092258   -0.593780
      3          6           0       -1.239181    2.419056   -0.957070
      4          1           0       -2.229414    0.381464    0.634938
      5          1           0       -2.563703   -0.010791   -1.048959
      6          1           0       -3.011037    2.724900    0.242888
      7          1           0       -3.344441    2.332151   -1.440023
      8          1           0       -0.908804    1.812500   -1.806506
      9          1           0       -0.573506    2.207480   -0.114032
     10          1           0       -1.120845    3.473214   -1.226528
     11          6           0       -4.328398    0.282591    0.153535
     12          6           0       -4.525607   -1.184896    0.535078
     13          6           0       -5.974406   -1.511694    0.898368
     14          1           0       -4.649884    0.918153    0.990257
     15          1           0       -4.984173    0.525899   -0.693640
     16          1           0       -3.869146   -1.424789    1.381321
     17          1           0       -4.202550   -1.817537   -0.301590
     18          1           0       -6.640081   -1.300118    0.055330
     19          1           0       -6.304783   -0.905137    1.747804
     20          1           0       -6.092742   -2.565852    1.167826
     21          6           0        3.650898    1.884557    0.834582
     22          6           0        4.447518    0.744724    0.985231
     23          6           0        3.996099   -0.501011    0.539231
     24          6           0        2.737267   -0.570897   -0.055537
     25          6           0        1.920228    0.546568   -0.219882
     26          6           0        2.392015    1.782023    0.233566
     27          1           0        4.009483    2.848281    1.183940
     28          1           0        5.425606    0.821369    1.451614
     29          1           0        4.592214   -1.399474    0.643284
     30          1           0        0.949678    0.438713   -0.688733
     31          1           0        1.771189    2.665552    0.115253
     32          7           0        2.248589   -1.884258   -0.531640
     33          8           0        1.135792   -1.919274   -1.052308
     34          8           0        2.987612   -2.853786   -0.375127
 ---------------------------------------------------------------------

 SCF Done:  E(RHF) =  -669.534691151     A.U. after   15 cycles
 E2 =    -0.2092554218D+01 EUMP2 =    -0.67162724536885D+03

 The electronic state is 1-A.
 Alpha  occ. eigenvalues --  -20.60701 -20.60696 -15.85750 -11.31070 -11.27669
 Alpha  occ. eigenvalues --  -11.27557 -11.27404 -11.26680 -11.26609 -11.22039
 Alpha  occ. eigenvalues --  -11.21947 -11.21481 -11.21416 -11.21349 -11.20903
 Alpha  occ. eigenvalues --   -1.59775  -1.39329  -1.19254  -1.08661  -1.08554
 Alpha  occ. eigenvalues --   -1.04666  -1.03734  -0.96236  -0.95495  -0.87280
 Alpha  occ. eigenvalues --   -0.86053  -0.82342  -0.79841  -0.78299  -0.77357
 Alpha  occ. eigenvalues --   -0.71972  -0.71097  -0.70376  -0.65198  -0.64906
 Alpha  occ. eigenvalues --   -0.64667  -0.62118  -0.61101  -0.59611  -0.57768
 Alpha  occ. eigenvalues --   -0.55540  -0.55162  -0.52998  -0.52971  -0.52768
 Alpha  occ. eigenvalues --   -0.52556  -0.50173  -0.48728  -0.48725  -0.48094
 Alpha  occ. eigenvalues --   -0.46808  -0.45844  -0.45720  -0.44742  -0.43945
 Alpha  occ. eigenvalues --   -0.37246  -0.36247
 Alpha virt. eigenvalues --    0.05119   0.11383   0.16550   0.20827   0.22882
 Alpha virt. eigenvalues --    0.24036   0.26102   0.26346   0.27290   0.28168
 Alpha virt. eigenvalues --    0.29246   0.30412   0.31290   0.31608   0.32075

 Mulliken charges:
               1
     1  C   -0.302145
     2  C   -0.298220
     3  C   -0.488671
     4  H    0.150198
     5  H    0.158083
     6  H    0.152477
     7  H    0.155263
     8  H    0.160744
     9  H    0.149570
    10  H    0.161595
    11  C   -0.298708
    12  C   -0.300358
    13  C   -0.476032
    14  H    0.148091
    15  H    0.149788
    16  H    0.153409
    17  H    0.157064
    18  H    0.154743
    19  H    0.153735
    20  H    0.161738
    21  C   -0.170784
    22  C   -0.219111
    23  C   -0.170534
    24  C    0.157997
    25  C   -0.176259
    26  C   -0.225220
    27  H    0.225173
    28  H    0.222955
    29  H    0.275117
    30  H    0.283894
    31  H    0.228183
    32  N    0.488063
    33  O   -0.461004
    34  O   -0.460836
 Sum of Mulliken charges =  -0.00000

 Dipole moment (field-independent basis, Debye):
    X=              1.5448    Y=              4.5649    Z=              1.6226  Tot=              5.0850
 Quadrupole moment (field-independent basis, Debye-Ang):
   XX=            -82.6568   YY=            -99.8610   ZZ=            -94.3332
   XY=              9.5457   XZ=              6.7689   YZ=             -1.6563

 Normal termination of Gaussian 16 at Wed May  5 15:35:57 2021.
