 Gaussian 16, Revision A.03,
 Gaussian 16:  EM64L-G16RevA.03 25-Dec-2016

 -------------
 #p 6-31g* mp2
 -------------

 ------------------------------------------------------
 Input file generated by CHIRIPA (05-May-2021 14:57:27)
 ------------------------------------------------------
 Symbolic Z-matrix:
 Charge =  0 Multiplicity = 1

                         Standard orientation:
 ---------------------------------------------------------------------
 Center     Atomic      Atomic             Coordinates (Angstroms)
 Number     Number       Type             X           Y           Z
 ---------------------------------------------------------------------
      1          6           0       -1.369698    2.623521    0.541859
      2          6           0       -0.813759    2.000319   -0.580224
      3          6           0       -1.312583    0.774847   -1.031824
      4          6           0       -2.372881    0.198188   -0.334312
      5          6           0       -2.948083    0.794313    0.786878
      6          6           0       -2.433211    2.019594    1.220633
      7          1           0       -0.975967    3.575422    0.885741
      8          1           0        0.012243    2.467020   -1.109332
      9          1           0       -0.900993    0.270515   -1.897653
     10          1           0       -3.770808    0.304671    1.293626
     11          1           0       -2.866932    2.501288    2.092356
     12          7           0       -2.909458   -1.099063   -0.802954
     13          8           0       -3.844152   -1.586491   -0.170974
     14          8           0       -2.385174   -1.603856   -1.793381
     15          6           0        3.413369    1.453801   -1.011894
     16          6           0        3.480557    0.141138   -1.490353
     17          6           0        2.858807   -0.900546   -0.795467
     18          6           0        2.175306   -0.592368    0.379752
     19          6           0        2.090478    0.705248    0.882034
     20          6           0        2.719767    1.731177    0.170688
     21          1           0        3.899288    2.256887   -1.558092
     22          1           0        4.018519   -0.077219   -2.408484
     23          1           0        2.895039   -1.925786   -1.143304
     24          1           0        1.546852    0.891905    1.800210
     25          1           0        2.665934    2.749663    0.544632
     26          7           0        1.513097   -1.686813    1.124110
     27          8           0        0.917145   -1.389125    2.157000
     28          8           0        1.602548   -2.821605    0.660554
 ---------------------------------------------------------------------

 SCF Done:  E(RHF) =  -868.335638233     A.U. after   16 cycles
 E2 =    -0.2604029981D+01 EUMP2 =    -0.87093966821337D+03

 The electronic state is 1-A.
 Alpha  occ. eigenvalues --  -20.60919 -20.60886 -20.60470 -20.60455 -15.85968
 Alpha  occ. eigenvalues --  -15.85524 -11.31548 -11.31066 -11.28207 -11.28159
 Alpha  occ. eigenvalues --  -11.28033 -11.27624 -11.27574 -11.27465 -11.27295
 Alpha  occ. eigenvalues --  -11.27208 -11.26732 -11.26716  -1.59976  -1.59528
 Alpha  occ. eigenvalues --   -1.39522  -1.39081  -1.19805  -1.19241  -1.09153
 Alpha  occ. eigenvalues --   -1.08637  -1.05249  -1.04656  -0.95934  -0.95437
 Alpha  occ. eigenvalues --   -0.86618  -0.86076  -0.82762  -0.82260  -0.77759
 Alpha  occ. eigenvalues --   -0.77264  -0.72183  -0.71747  -0.71317  -0.70898
 Alpha  occ. eigenvalues --   -0.70833  -0.70401  -0.65442  -0.65249  -0.64906
 Alpha  occ. eigenvalues --   -0.64697  -0.62563  -0.62022  -0.55739  -0.55244
 Alpha  occ. eigenvalues --   -0.53870  -0.53330  -0.52829  -0.52629  -0.48959
 Alpha  occ. eigenvalues --   -0.48921  -0.48516  -0.48486  -0.44873  -0.44447
 Alpha  occ. eigenvalues --   -0.37879  -0.37647  -0.36891  -0.35706
 Alpha virt. eigenvalues --    0.04740   0.05254   0.10701   0.11385   0.16236
 Alpha virt. eigenvalues --    0.16676   0.20493   0.21744   0.26398   0.27408
 Alpha virt. eigenvalues --    0.27923   0.28473   0.30538   0.30933   0.32114

 Mulliken charges:
               1
     1  C   -0.179108
     2  C   -0.213651
     3  C   -0.175381
     4  C    0.162537
     5  C   -0.166946
     6  C   -0.215940
     7  H    0.219482
     8  H    0.220095
     9  H    0.274366
    10  H    0.277734
    11  H    0.223575
    12  N    0.489147
    13  O   -0.457345
    14  O   -0.460689
    15  C   -0.174853
    16  C   -0.220460
    17  C   -0.170628
    18  C    0.157839
    19  C   -0.162313
    20  C   -0.226685
    21  H    0.225559
    22  H    0.225843
    23  H    0.280354
    24  H    0.276150
    25  H    0.218667
    26  N    0.487705
    27  O   -0.460547
    28  O   -0.454508
 Sum of Mulliken charges =  -0.00000

 Dipole moment (field-independent basis, Debye):
    X=              4.1441    Y=              8.0606    Z=             -0.9062  Tot=              9.1087
 Quadrupole moment (field-independent basis, Debye-Ang):
   XX=           -101.6397   YY=           -106.8483   ZZ=           -103.5677
   XY=             -4.8526   XZ=            -13.8110   YZ=              4.5266

 Normal termination of Gaussian 16 at Thu May  6 00:29:13 2021.
