 Gaussian 16, Revision A.03,
 Gaussian 16:  EM64L-G16RevA.03 25-Dec-2016

 -------------
 #p 6-31g* mp2
 -------------

 ------------------------------------------------------
 Input file generated by CHIRIPA (05-May-2021 14:57:23)
 ------------------------------------------------------
 Symbolic Z-matrix:
 Charge =  0 Multiplicity = 1

                         Standard orientation:
 ---------------------------------------------------------------------
 Center     Atomic      Atomic             Coordinates (Angstroms)
 Number     Number       Type             X           Y           Z
 ---------------------------------------------------------------------
      1          6           0       -1.491674    2.435015   -0.722233
      2          6           0       -1.525161    2.205228    0.657114
      3          6           0       -2.165177    1.074487    1.173206
      4          6           0       -2.764087    0.190358    0.277151
      5          6           0       -2.747713    0.391647   -1.102162
      6          6           0       -2.101981    1.529088   -1.595928
      7          1           0       -0.992273    3.316004   -1.114475
      8          1           0       -1.052035    2.907074    1.338002
      9          1           0       -2.206093    0.872193    2.236607
     10          1           0       -3.228270   -0.325987   -1.755984
     11          1           0       -2.077546    1.704986   -2.667613
     12          7           0       -3.444669   -1.010254    0.811698
     13          8           0       -3.964777   -1.773976    0.001233
     14          8           0       -3.445115   -1.164837    2.031017
     15          6           0        4.444930    0.866196    1.066909
     16          6           0        3.464484    1.568777    0.358655
     17          6           0        2.466216    0.884127   -0.340819
     18          6           0        2.478576   -0.509507   -0.310473
     19          6           0        3.441780   -1.237911    0.385915
     20          6           0        4.430475   -0.532440    1.078259
     21          1           0        5.216690    1.406135    1.607510
     22          1           0        3.473235    2.654989    0.348080
     23          1           0        1.695151    1.402979   -0.897300
     24          1           0        3.406974   -2.320567    0.377902
     25          1           0        5.190641   -1.080701    1.627443
     26          7           0        1.426823   -1.245336   -1.047202
     27          8           0        1.459733   -2.473243   -1.004802
     28          8           0        0.589463   -0.580239   -1.653100
 ---------------------------------------------------------------------

 SCF Done:  E(RHF) =  -868.337166744     A.U. after   16 cycles
 E2 =    -0.2601877180D+01 EUMP2 =    -0.87093904392436D+03

 The electronic state is 1-A.
 Alpha  occ. eigenvalues --  -20.61003 -20.60988 -20.60092 -20.60058 -15.86039
 Alpha  occ. eigenvalues --  -15.85129 -11.31459 -11.30479 -11.28074 -11.28010
 Alpha  occ. eigenvalues --  -11.27801 -11.27128 -11.27112 -11.27031 -11.26955
 Alpha  occ. eigenvalues --  -11.26925 -11.26257 -11.26045  -1.60067  -1.59147
 Alpha  occ. eigenvalues --   -1.39620  -1.38702  -1.19643  -1.18663  -1.09028
 Alpha  occ. eigenvalues --   -1.08108  -1.05062  -1.04068  -0.95856  -0.94937
 Alpha  occ. eigenvalues --   -0.86453  -0.85506  -0.82697  -0.81766  -0.77734
 Alpha  occ. eigenvalues --   -0.76782  -0.72284  -0.71391  -0.71360  -0.70756
 Alpha  occ. eigenvalues --   -0.70453  -0.69878  -0.65302  -0.65073  -0.64357
 Alpha  occ. eigenvalues --   -0.64133  -0.62416  -0.61436  -0.55559  -0.54701
 Alpha  occ. eigenvalues --   -0.53382  -0.53175  -0.52359  -0.52211  -0.49048
 Alpha  occ. eigenvalues --   -0.49004  -0.48121  -0.48102  -0.44994  -0.44109
 Alpha  occ. eigenvalues --   -0.37635  -0.36799  -0.36573  -0.35540
 Alpha virt. eigenvalues --    0.04798   0.05729   0.10963   0.12038   0.16282
 Alpha virt. eigenvalues --    0.17103   0.20917   0.21971   0.26791   0.27694
 Alpha virt. eigenvalues --    0.27909   0.29055   0.30608   0.31387   0.32398

 Mulliken charges:
               1
     1  C   -0.177966
     2  C   -0.220328
     3  C   -0.173266
     4  C    0.159052
     5  C   -0.155799
     6  C   -0.202785
     7  H    0.217313
     8  H    0.216319
     9  H    0.272254
    10  H    0.277766
    11  H    0.223438
    12  N    0.488397
    13  O   -0.457507
    14  O   -0.464615
    15  C   -0.170482
    16  C   -0.220164
    17  C   -0.170063
    18  C    0.157641
    19  C   -0.169718
    20  C   -0.218627
    21  H    0.225927
    22  H    0.219925
    23  H    0.272022
    24  H    0.277833
    25  H    0.224966
    26  N    0.489805
    27  O   -0.456518
    28  O   -0.464821
 Sum of Mulliken charges =  -0.00000

 Dipole moment (field-independent basis, Debye):
    X=              6.0662    Y=              6.4868    Z=              0.4981  Tot=              8.8953
 Quadrupole moment (field-independent basis, Debye-Ang):
   XX=            -99.6231   YY=           -103.0774   ZZ=           -103.5140
   XY=             -8.2679   XZ=             14.0404   YZ=             -1.3900

 Normal termination of Gaussian 16 at Fri May  7 11:05:21 2021.
