 Gaussian 16, Revision A.03,
 Gaussian 16:  EM64L-G16RevA.03 25-Dec-2016

 -------------
 #p 6-31g* mp2
 -------------

 ------------------------------------------------------
 Input file generated by CHIRIPA (05-May-2021 14:53:16)
 ------------------------------------------------------
 Symbolic Z-matrix:
 Charge =  0 Multiplicity = 1

                         Standard orientation:
 ---------------------------------------------------------------------
 Center     Atomic      Atomic             Coordinates (Angstroms)
 Number     Number       Type             X           Y           Z
 ---------------------------------------------------------------------
      1          6           0       -4.395395   -0.142455   -0.298412
      2          6           0       -3.320545   -0.562496    0.704708
      3          6           0       -1.973161   -0.850073    0.041647
      4          1           0       -4.516520   -0.934843   -1.049673
      5          1           0       -4.053527    0.751078   -0.838894
      6          1           0       -3.664929   -1.454159    1.244109
      7          1           0       -3.202101    0.230902    1.453779
      8          1           0       -1.603902    0.037955   -0.481475
      9          1           0       -2.069360   -1.656680   -0.692336
     10          1           0       -1.219449   -1.148584    0.776949
     11          6           0       -5.748006    0.148467    0.349304
     12          6           0       -6.822855    0.568509   -0.653816
     13          6           0       -8.170239    0.856085    0.009246
     14          1           0       -6.089873   -0.745066    0.889786
     15          1           0       -5.626881    0.940856    1.100565
     16          1           0       -6.941300   -0.224889   -1.402887
     17          1           0       -6.478471    1.460171   -1.193217
     18          1           0       -8.074040    1.662693    0.743229
     19          1           0       -8.539498   -0.031942    0.532367
     20          1           0       -8.923951    1.154597   -0.726057
     21          6           0        5.899313    1.614365   -0.017310
     22          6           0        4.589787    2.090731    0.104081
     23          6           0        3.508846    1.204099    0.103868
     24          6           0        3.774999   -0.158646   -0.020128
     25          6           0        5.068377   -0.664042   -0.142762
     26          6           0        6.134015    0.240919   -0.140127
     27          1           0        6.733071    2.310241   -0.016203
     28          1           0        4.404525    3.156844    0.199615
     29          1           0        2.485052    1.545727    0.196356
     30          1           0        5.221563   -1.732303   -0.236404
     31          1           0        7.149962   -0.131880   -0.234558
     32          7           0        2.638756   -1.106987   -0.021636
     33          8           0        2.899824   -2.302918   -0.132218
     34          8           0        1.508615   -0.636407    0.087793
 ---------------------------------------------------------------------

 SCF Done:  E(RHF) =  -669.535590794     A.U. after   15 cycles
 E2 =    -0.2090813719D+01 EUMP2 =    -0.67162640451314D+03

 The electronic state is 1-A.
 Alpha  occ. eigenvalues --  -20.60865 -20.60859 -15.85902 -11.31256 -11.27824
 Alpha  occ. eigenvalues --  -11.27820 -11.27567 -11.26838 -11.26828 -11.21086
 Alpha  occ. eigenvalues --  -11.20731 -11.20655 -11.20535 -11.20441 -11.19350
 Alpha  occ. eigenvalues --   -1.59933  -1.39488  -1.19428  -1.08827  -1.07643
 Alpha  occ. eigenvalues --   -1.04829  -1.02634  -0.95669  -0.95037  -0.86230
 Alpha  occ. eigenvalues --   -0.86042  -0.82495  -0.78727  -0.77550  -0.77416
 Alpha  occ. eigenvalues --   -0.72123  -0.71250  -0.70537  -0.65083  -0.64832
 Alpha  occ. eigenvalues --   -0.64291  -0.62176  -0.60048  -0.58473  -0.56644
 Alpha  occ. eigenvalues --   -0.55332  -0.54350  -0.53159  -0.52923  -0.51677
 Alpha  occ. eigenvalues --   -0.51473  -0.49031  -0.48871  -0.48834  -0.47022
 Alpha  occ. eigenvalues --   -0.45804  -0.44981  -0.44899  -0.44852  -0.42830
 Alpha  occ. eigenvalues --   -0.37409  -0.36432
 Alpha virt. eigenvalues --    0.04979   0.11222   0.16467   0.21346   0.23574
 Alpha virt. eigenvalues --    0.25235   0.27251   0.27376   0.28120   0.28235
 Alpha virt. eigenvalues --    0.29066   0.30922   0.32170   0.32417   0.32628

 Mulliken charges:
               1
     1  C   -0.296965
     2  C   -0.301718
     3  C   -0.471094
     4  H    0.148798
     5  H    0.146767
     6  H    0.148713
     7  H    0.146807
     8  H    0.151418
     9  H    0.151666
    10  H    0.177912
    11  C   -0.297254
    12  C   -0.298907
    13  C   -0.475203
    14  H    0.148702
    15  H    0.147625
    16  H    0.151537
    17  H    0.150499
    18  H    0.154058
    19  H    0.154775
    20  H    0.158540
    21  C   -0.170702
    22  C   -0.218528
    23  C   -0.170930
    24  C    0.157710
    25  C   -0.170600
    26  C   -0.218585
    27  H    0.225829
    28  H    0.223647
    29  H    0.275690
    30  H    0.275799
    31  H    0.223668
    32  N    0.491752
    33  O   -0.459667
    34  O   -0.461758
 Sum of Mulliken charges =  -0.00000

 Dipole moment (field-independent basis, Debye):
    X=              4.3540    Y=              3.2796    Z=              0.0123  Tot=              5.4510
 Quadrupole moment (field-independent basis, Debye-Ang):
   XX=            -65.3200   YY=            -92.2145   ZZ=            -95.8389
   XY=             10.0635   XZ=             -0.0401   YZ=              0.4133

 Normal termination of Gaussian 16 at Thu May  6 01:09:57 2021.
