 Gaussian 16, Revision A.03,
 Gaussian 16:  EM64L-G16RevA.03 25-Dec-2016

 -------------
 #p 6-31g* mp2
 -------------

 ------------------------------------------------------
 Input file generated by CHIRIPA (05-May-2021 14:53:16)
 ------------------------------------------------------
 Symbolic Z-matrix:
 Charge =  0 Multiplicity = 1

                         Standard orientation:
 ---------------------------------------------------------------------
 Center     Atomic      Atomic             Coordinates (Angstroms)
 Number     Number       Type             X           Y           Z
 ---------------------------------------------------------------------
      1          6           0       -5.272563    0.052078    0.354098
      2          6           0       -6.371332    0.148036   -0.704904
      3          6           0       -7.744002    0.456590   -0.106268
      4          1           0       -5.540285   -0.726390    1.081599
      5          1           0       -5.226386    0.998018    0.911288
      6          1           0       -6.414493   -0.797309   -1.260849
      7          1           0       -6.100870    0.926235   -1.430075
      8          1           0       -7.724019    1.409553    0.432307
      9          1           0       -8.039424   -0.323784    0.602494
     10          1           0       -8.514565    0.520752   -0.880849
     11          6           0       -3.894524   -0.255916   -0.228889
     12          6           0       -2.795755   -0.351874    0.830112
     13          6           0       -1.423085   -0.660428    0.231477
     14          1           0       -3.940701   -1.201856   -0.786079
     15          1           0       -3.626801    0.522552   -0.956390
     16          1           0       -3.066217   -1.130073    1.555284
     17          1           0       -2.752594    0.593471    1.386058
     18          1           0       -1.127663    0.119946   -0.477286
     19          1           0       -1.443068   -1.613391   -0.307098
     20          1           0       -0.652522   -0.724590    1.006058
     21          6           0        3.577302    2.602143    0.004086
     22          6           0        2.368068    1.899671    0.032438
     23          6           0        2.358065    0.501955    0.003501
     24          6           0        3.581241   -0.164243   -0.054033
     25          6           0        4.802512    0.507261   -0.083463
     26          6           0        4.788531    1.904926   -0.053673
     27          1           0        3.575757    3.687903    0.026897
     28          1           0        1.425895    2.438508    0.077293
     29          1           0        1.436457   -0.066922    0.024407
     30          1           0        5.725733   -0.057611   -0.128188
     31          1           0        5.729163    2.447849   -0.075800
     32          7           0        3.583347   -1.643916   -0.085119
     33          8           0        4.674460   -2.207424   -0.135797
     34          8           0        2.493844   -2.212157   -0.058219
 ---------------------------------------------------------------------

 SCF Done:  E(RHF) =  -669.535411671     A.U. after   15 cycles
 E2 =    -0.2091347379D+01 EUMP2 =    -0.67162675905001D+03

 The electronic state is 1-A.
 Alpha  occ. eigenvalues --  -20.60693 -20.60687 -15.85742 -11.31080 -11.27677
 Alpha  occ. eigenvalues --  -11.27579 -11.27428 -11.26693 -11.26670 -11.21875
 Alpha  occ. eigenvalues --  -11.21727 -11.21593 -11.21519 -11.21449 -11.21175
 Alpha  occ. eigenvalues --   -1.59768  -1.39321  -1.19267  -1.08672  -1.08625
 Alpha  occ. eigenvalues --   -1.04670  -1.03746  -0.96214  -0.95503  -0.87244
 Alpha  occ. eigenvalues --   -0.86064  -0.82337  -0.79822  -0.78428  -0.77376
 Alpha  occ. eigenvalues --   -0.71963  -0.71091  -0.70388  -0.65257  -0.64920
 Alpha  occ. eigenvalues --   -0.64687  -0.62072  -0.61124  -0.59556  -0.57804
 Alpha  occ. eigenvalues --   -0.55510  -0.55172  -0.53121  -0.53004  -0.52621
 Alpha  occ. eigenvalues --   -0.52519  -0.50136  -0.48721  -0.48715  -0.48123
 Alpha  occ. eigenvalues --   -0.46829  -0.45972  -0.45887  -0.44732  -0.43988
 Alpha  occ. eigenvalues --   -0.37262  -0.36272
 Alpha virt. eigenvalues --    0.05133   0.11358   0.16629   0.20862   0.22748
 Alpha virt. eigenvalues --    0.24022   0.26056   0.26573   0.27339   0.27912
 Alpha virt. eigenvalues --    0.29436   0.29819   0.31482   0.31656   0.31828

 Mulliken charges:
               1
     1  C   -0.298484
     2  C   -0.299774
     3  C   -0.475804
     4  H    0.151088
     5  H    0.148423
     6  H    0.153204
     7  H    0.151271
     8  H    0.154654
     9  H    0.155916
    10  H    0.160721
    11  C   -0.298902
    12  C   -0.299340
    13  C   -0.483860
    14  H    0.152536
    15  H    0.147836
    16  H    0.156355
    17  H    0.148840
    18  H    0.145727
    19  H    0.168798
    20  H    0.162332
    21  C   -0.170402
    22  C   -0.224023
    23  C   -0.182215
    24  C    0.156995
    25  C   -0.169830
    26  C   -0.219357
    27  H    0.225101
    28  H    0.223138
    29  H    0.295737
    30  H    0.275265
    31  H    0.223026
    32  N    0.486657
    33  O   -0.460809
    34  O   -0.460822
 Sum of Mulliken charges =  -0.00000

 Dipole moment (field-independent basis, Debye):
    X=             -0.1586    Y=              5.0900    Z=              0.1160  Tot=              5.0938
 Quadrupole moment (field-independent basis, Debye-Ang):
   XX=            -90.7417   YY=            -96.0537   ZZ=            -95.7794
   XY=             19.5720   XZ=              0.4494   YZ=             -0.4721

 Normal termination of Gaussian 16 at Thu May  6 22:02:47 2021.
