 Gaussian 16, Revision A.03,
 Gaussian 16:  EM64L-G16RevA.03 25-Dec-2016

 -------------
 #p 6-31g* mp2
 -------------

 ------------------------------------------------------
 Input file generated by CHIRIPA (05-May-2021 14:57:22)
 ------------------------------------------------------
 Symbolic Z-matrix:
 Charge =  0 Multiplicity = 1

                         Standard orientation:
 ---------------------------------------------------------------------
 Center     Atomic      Atomic             Coordinates (Angstroms)
 Number     Number       Type             X           Y           Z
 ---------------------------------------------------------------------
      1          6           0        5.808407    1.336300    0.918576
      2          6           0        6.035862    0.087557    0.330847
      3          6           0        4.984557   -0.623064   -0.255944
      4          6           0        3.712746   -0.052601   -0.237040
      5          6           0        3.454304    1.189474    0.340669
      6          6           0        4.520624    1.882311    0.921605
      7          1           0        6.630917    1.881420    1.372135
      8          1           0        7.034932   -0.338929    0.327025
      9          1           0        5.132567   -1.591634   -0.717879
     10          1           0        2.447429    1.588830    0.328998
     11          1           0        4.341036    2.851909    1.377316
     12          7           0        2.591829   -0.795490   -0.855151
     13          8           0        1.480608   -0.271140   -0.825427
     14          8           0        2.845699   -1.888049   -1.357646
     15          6           0       -5.728264    1.506835   -0.591663
     16          6           0       -5.927239    0.660871    0.504364
     17          6           0       -4.919837   -0.216788    0.915953
     18          6           0       -3.720494   -0.222263    0.205435
     19          6           0       -3.492019    0.608378   -0.890523
     20          6           0       -4.513431    1.477940   -1.284386
     21          1           0       -6.516280    2.185476   -0.904510
     22          1           0       -6.869675    0.681155    1.044223
     23          1           0       -5.047203   -0.882483    1.760965
     24          1           0       -2.541809    0.565437   -1.408860
     25          1           0       -4.356109    2.133798   -2.135942
     26          7           0       -2.646587   -1.147115    0.631784
     27          8           0       -1.599034   -1.132756   -0.010918
     28          8           0       -2.872746   -1.868861    1.600583
 ---------------------------------------------------------------------

 SCF Done:  E(RHF) =  -868.335590964     A.U. after   16 cycles
 E2 =    -0.2600133068D+01 EUMP2 =    -0.87093572403165D+03

 The electronic state is 1-A.
 Alpha  occ. eigenvalues --  -20.59922 -20.59850 -20.59784 -20.59659 -15.84947
 Alpha  occ. eigenvalues --  -15.84765 -11.30602 -11.30451 -11.27212 -11.27204
 Alpha  occ. eigenvalues --  -11.27095 -11.27013 -11.27007 -11.26894 -11.26298
 Alpha  occ. eigenvalues --  -11.26284 -11.26176 -11.26138  -1.58952  -1.58812
 Alpha  occ. eigenvalues --   -1.38503  -1.38344  -1.18804  -1.18665  -1.08146
 Alpha  occ. eigenvalues --   -1.08010  -1.04253  -1.04110  -0.94936  -0.94776
 Alpha  occ. eigenvalues --   -0.85638  -0.85493  -0.81781  -0.81581  -0.76773
 Alpha  occ. eigenvalues --   -0.76583  -0.71263  -0.70852  -0.70283  -0.70154
 Alpha  occ. eigenvalues --   -0.69917  -0.69766  -0.64455  -0.64302  -0.64260
 Alpha  occ. eigenvalues --   -0.64119  -0.61600  -0.61442  -0.54751  -0.54618
 Alpha  occ. eigenvalues --   -0.52563  -0.52434  -0.52354  -0.52203  -0.47975
 Alpha  occ. eigenvalues --   -0.47912  -0.47732  -0.47710  -0.43882  -0.43629
 Alpha  occ. eigenvalues --   -0.36801  -0.36679  -0.35869  -0.35732
 Alpha virt. eigenvalues --    0.05760   0.05957   0.11781   0.11917   0.17194
 Alpha virt. eigenvalues --    0.17384   0.21857   0.22021   0.27747   0.27908
 Alpha virt. eigenvalues --    0.28756   0.28981   0.31377   0.31547   0.33004

 Mulliken charges:
               1
     1  C   -0.171758
     2  C   -0.218486
     3  C   -0.171159
     4  C    0.159760
     5  C   -0.170702
     6  C   -0.218484
     7  H    0.223391
     8  H    0.221747
     9  H    0.275365
    10  H    0.274686
    11  H    0.221014
    12  N    0.488371
    13  O   -0.451444
    14  O   -0.461948
    15  C   -0.171965
    16  C   -0.218937
    17  C   -0.171939
    18  C    0.157665
    19  C   -0.172793
    20  C   -0.219272
    21  H    0.222698
    22  H    0.220684
    23  H    0.274036
    24  H    0.283330
    25  H    0.221578
    26  N    0.486434
    27  O   -0.443889
    28  O   -0.467984
 Sum of Mulliken charges =  -0.00000

 Dipole moment (field-independent basis, Debye):
    X=              0.2741    Y=              5.7762    Z=              0.5556  Tot=              5.8094
 Quadrupole moment (field-independent basis, Debye-Ang):
   XX=            -47.0903   YY=           -104.5498   ZZ=           -104.8534
   XY=             -3.4688   XZ=              8.9820   YZ=             -0.0085

 Normal termination of Gaussian 16 at Thu May  6 22:40:03 2021.
