 Gaussian 16, Revision A.03,
 Gaussian 16:  EM64L-G16RevA.03 25-Dec-2016

 -------------
 #p 6-31g* mp2
 -------------

 ------------------------------------------------------
 Input file generated by CHIRIPA (05-May-2021 14:55:25)
 ------------------------------------------------------
 Symbolic Z-matrix:
 Charge =  0 Multiplicity = 1

                         Standard orientation:
 ---------------------------------------------------------------------
 Center     Atomic      Atomic             Coordinates (Angstroms)
 Number     Number       Type             X           Y           Z
 ---------------------------------------------------------------------
      1          6           0        4.009636   -1.701493    1.098173
      2          6           0        3.168993   -1.853384   -0.009424
      3          6           0        2.570666   -0.738896   -0.604797
      4          6           0        2.836058    0.518357   -0.064268
      5          6           0        3.668941    0.702188    1.038366
      6          6           0        4.256491   -0.426440    1.617617
      7          1           0        4.470245   -2.572746    1.554411
      8          1           0        2.975483   -2.842394   -0.414958
      9          1           0        1.915747   -0.827809   -1.463047
     10          1           0        3.842892    1.700863    1.420213
     11          1           0        4.908914   -0.305474    2.477708
     12          7           0        2.208340    1.705701   -0.686029
     13          8           0        2.458149    2.802552   -0.190903
     14          8           0        1.478412    1.517006   -1.656718
     15          6           0       -3.050305   -0.675430    0.036191
     16          6           0       -2.440736   -1.206687   -1.261567
     17          6           0       -1.015555   -1.728143   -1.075187
     18          1           0       -2.413212    0.127697    0.431215
     19          1           0       -3.047233   -1.475756    0.789093
     20          1           0       -2.446224   -0.406002   -2.012226
     21          1           0       -3.079456   -2.008513   -1.653649
     22          1           0       -0.996333   -2.544551   -0.346004
     23          1           0       -0.359503   -0.932935   -0.706618
     24          1           0       -0.599085   -2.103074   -2.015314
     25          6           0       -4.474848   -0.150603   -0.133997
     26          6           0       -5.084418    0.380655    1.163761
     27          6           0       -6.509599    0.902111    0.977381
     28          1           0       -4.477921    0.649723   -0.886900
     29          1           0       -5.111941   -0.953730   -0.529021
     30          1           0       -4.445698    1.182480    1.555842
     31          1           0       -5.078929   -0.420030    1.914420
     32          1           0       -7.165651    0.106903    0.608812
     33          1           0       -6.528821    1.718519    0.248196
     34          1           0       -6.926069    1.277042    1.917508
 ---------------------------------------------------------------------

 SCF Done:  E(RHF) =  -669.535323769     A.U. after   15 cycles
 E2 =    -0.2091973196D+01 EUMP2 =    -0.67162729696532D+03

 The electronic state is 1-A.
 Alpha  occ. eigenvalues --  -20.60830 -20.60824 -15.85866 -11.31169 -11.27752
 Alpha  occ. eigenvalues --  -11.27687 -11.27487 -11.26752 -11.26725 -11.21421
 Alpha  occ. eigenvalues --  -11.21369 -11.21173 -11.21125 -11.21107 -11.20849
 Alpha  occ. eigenvalues --   -1.59897  -1.39452  -1.19350  -1.08757  -1.08216
 Alpha  occ. eigenvalues --   -1.04743  -1.03364  -0.95861  -0.95587  -0.86895
 Alpha  occ. eigenvalues --   -0.86135  -0.82427  -0.79450  -0.78027  -0.77473
 Alpha  occ. eigenvalues --   -0.72086  -0.71218  -0.70467  -0.65002  -0.64874
 Alpha  occ. eigenvalues --   -0.64713  -0.62126  -0.60725  -0.59219  -0.57450
 Alpha  occ. eigenvalues --   -0.55332  -0.55063  -0.53122  -0.52890  -0.52513
 Alpha  occ. eigenvalues --   -0.52218  -0.49756  -0.48844  -0.48838  -0.47755
 Alpha  occ. eigenvalues --   -0.46433  -0.45579  -0.45473  -0.44836  -0.43626
 Alpha  occ. eigenvalues --   -0.37333  -0.36308
 Alpha virt. eigenvalues --    0.05023   0.11233   0.16517   0.21216   0.23115
 Alpha virt. eigenvalues --    0.24358   0.26589   0.26895   0.27745   0.27964
 Alpha virt. eigenvalues --    0.29014   0.30867   0.31586   0.31680   0.32095

 Mulliken charges:
               1
     1  C   -0.170573
     2  C   -0.220229
     3  C   -0.171245
     4  C    0.157305
     5  C   -0.170811
     6  C   -0.218705
     7  H    0.225535
     8  H    0.224112
     9  H    0.280864
    10  H    0.275340
    11  H    0.223293
    12  N    0.488354
    13  O   -0.459891
    14  O   -0.461495
    15  C   -0.299275
    16  C   -0.298691
    17  C   -0.483002
    18  H    0.153847
    19  H    0.146463
    20  H    0.160053
    21  H    0.149885
    22  H    0.150904
    23  H    0.162842
    24  H    0.154370
    25  C   -0.298757
    26  C   -0.299815
    27  C   -0.475736
    28  H    0.152658
    29  H    0.148201
    30  H    0.153684
    31  H    0.150171
    32  H    0.154228
    33  H    0.156463
    34  H    0.159653
 Sum of Mulliken charges =  -0.00000

 Dipole moment (field-independent basis, Debye):
    X=              2.2154    Y=             -4.0915    Z=              2.1714  Tot=              5.1345
 Quadrupole moment (field-independent basis, Debye-Ang):
   XX=            -82.7718   YY=            -97.3338   ZZ=            -93.2174
   XY=             -8.8871   XZ=              8.0642   YZ=              3.3708

 Normal termination of Gaussian 16 at Wed May  5 19:12:52 2021.
