 Gaussian 16, Revision A.03,
 Gaussian 16:  EM64L-G16RevA.03 25-Dec-2016

 -------------
 #p 6-31g* mp2
 -------------

 ------------------------------------------------------
 Input file generated by CHIRIPA (05-May-2021 14:53:16)
 ------------------------------------------------------
 Symbolic Z-matrix:
 Charge =  0 Multiplicity = 1

                         Standard orientation:
 ---------------------------------------------------------------------
 Center     Atomic      Atomic             Coordinates (Angstroms)
 Number     Number       Type             X           Y           Z
 ---------------------------------------------------------------------
      1          6           0        3.179160   -0.601971    0.129035
      2          6           0        2.589629   -1.795815   -0.622746
      3          6           0        1.194268   -2.176253   -0.126734
      4          1           0        3.220993   -0.836480    1.201509
      5          1           0        2.504168    0.258618    0.023356
      6          1           0        3.266215   -2.653504   -0.516835
      7          1           0        2.549372   -1.558510   -1.693578
      8          1           0        0.500569   -1.337957   -0.247744
      9          1           0        1.221485   -2.439174    0.935685
     10          1           0        0.791772   -3.031939   -0.677785
     11          6           0        4.573811   -0.209644   -0.355481
     12          6           0        5.163341    0.984200    0.396300
     13          6           0        6.558703    1.364638   -0.099712
     14          1           0        5.248803   -1.070233   -0.249802
     15          1           0        4.531978    0.024865   -1.427955
     16          1           0        5.203599    0.746895    1.467132
     17          1           0        4.486756    1.841889    0.290390
     18          1           0        6.531486    1.627559   -1.162130
     19          1           0        7.252402    0.526343    0.021298
     20          1           0        6.961198    2.220324    0.451340
     21          6           0       -3.354958   -2.180007    0.243767
     22          6           0       -2.249230   -1.579281    0.854515
     23          6           0       -2.058287   -0.196617    0.774938
     24          6           0       -2.996944    0.558442    0.073440
     25          6           0       -4.108721   -0.010693   -0.545695
     26          6           0       -4.279544   -1.395180   -0.453160
     27          1           0       -3.495472   -3.254801    0.310617
     28          1           0       -1.529568   -2.186301    1.396417
     29          1           0       -1.211192    0.294373    1.238378
     30          1           0       -4.809091    0.620615   -1.078939
     31          1           0       -5.139203   -1.858995   -0.928458
     32          7           0       -2.805452    2.023171   -0.017663
     33          8           0       -3.646782    2.666260   -0.641552
     34          8           0       -1.817654    2.500402    0.536544
 ---------------------------------------------------------------------

 SCF Done:  E(RHF) =  -669.534914920     A.U. after   15 cycles
 E2 =    -0.2092221701D+01 EUMP2 =    -0.67162713662147D+03

 The electronic state is 1-A.
 Alpha  occ. eigenvalues --  -20.60768 -20.60763 -15.85820 -11.31175 -11.27719
 Alpha  occ. eigenvalues --  -11.27701 -11.27443 -11.26753 -11.26690 -11.21944
 Alpha  occ. eigenvalues --  -11.21671 -11.21591 -11.21577 -11.21453 -11.21029
 Alpha  occ. eigenvalues --   -1.59844  -1.39397  -1.19338  -1.08733  -1.08601
 Alpha  occ. eigenvalues --   -1.04743  -1.03737  -0.96221  -0.95571  -0.87261
 Alpha  occ. eigenvalues --   -0.86122  -0.82406  -0.79827  -0.78392  -0.77441
 Alpha  occ. eigenvalues --   -0.72038  -0.71167  -0.70439  -0.65231  -0.64984
 Alpha  occ. eigenvalues --   -0.64727  -0.62097  -0.61134  -0.59594  -0.57812
 Alpha  occ. eigenvalues --   -0.55534  -0.55230  -0.53258  -0.52941  -0.52774
 Alpha  occ. eigenvalues --   -0.52478  -0.50151  -0.48795  -0.48794  -0.48126
 Alpha  occ. eigenvalues --   -0.46829  -0.45943  -0.45832  -0.44805  -0.43981
 Alpha  occ. eigenvalues --   -0.37315  -0.36261
 Alpha virt. eigenvalues --    0.05044   0.11253   0.16492   0.20884   0.22751
 Alpha virt. eigenvalues --    0.24067   0.25849   0.26332   0.27362   0.28257
 Alpha virt. eigenvalues --    0.29345   0.29689   0.31403   0.31631   0.32275

 Mulliken charges:
               1
     1  C   -0.300406
     2  C   -0.299601
     3  C   -0.482668
     4  H    0.147844
     5  H    0.153769
     6  H    0.152110
     7  H    0.154995
     8  H    0.161017
     9  H    0.147325
    10  H    0.159552
    11  C   -0.298424
    12  C   -0.300556
    13  C   -0.475926
    14  H    0.148847
    15  H    0.151023
    16  H    0.151352
    17  H    0.155717
    18  H    0.155849
    19  H    0.154278
    20  H    0.161319
    21  C   -0.172790
    22  C   -0.214034
    23  C   -0.174511
    24  C    0.158019
    25  C   -0.171757
    26  C   -0.218124
    27  H    0.225552
    28  H    0.228639
    29  H    0.276001
    30  H    0.275355
    31  H    0.223289
    32  N    0.488099
    33  O   -0.460378
    34  O   -0.460775
 Sum of Mulliken charges =  -0.00000

 Dipole moment (field-independent basis, Debye):
    X=             -0.6266    Y=             -5.1204    Z=              0.2774  Tot=              5.1661
 Quadrupole moment (field-independent basis, Debye-Ang):
   XX=            -88.0490   YY=           -101.0330   ZZ=            -93.4787
   XY=             14.5406   XZ=              2.0179   YZ=             -0.7402

 Normal termination of Gaussian 16 at Thu May  6 07:30:25 2021.
