 Gaussian 16, Revision A.03,
 Gaussian 16:  EM64L-G16RevA.03 25-Dec-2016

 -------------
 #p 6-31g* mp2
 -------------

 ------------------------------------------------------
 Input file generated by CHIRIPA (05-May-2021 14:57:25)
 ------------------------------------------------------
 Symbolic Z-matrix:
 Charge =  0 Multiplicity = 1

                         Standard orientation:
 ---------------------------------------------------------------------
 Center     Atomic      Atomic             Coordinates (Angstroms)
 Number     Number       Type             X           Y           Z
 ---------------------------------------------------------------------
      1          6           0        3.071497   -2.368076   -0.385480
      2          6           0        4.128435   -1.651821    0.185817
      3          6           0        4.088679   -0.255691    0.247373
      4          6           0        2.971584    0.394884   -0.274298
      5          6           0        1.902802   -0.290588   -0.849732
      6          6           0        1.964006   -1.686375   -0.900523
      7          1           0        3.110711   -3.452490   -0.429117
      8          1           0        4.989792   -2.178591    0.586595
      9          1           0        4.893048    0.323649    0.684150
     10          1           0        1.057487    0.262416   -1.240943
     11          1           0        1.141719   -2.240024   -1.344777
     12          7           0        2.918144    1.872723   -0.214830
     13          8           0        1.922730    2.422331   -0.681434
     14          8           0        3.872682    2.453461    0.297259
     15          6           0       -1.318768   -0.690072    2.104724
     16          6           0       -2.330335    0.248018    2.335462
     17          6           0       -3.256472    0.554348    1.333974
     18          6           0       -3.141032   -0.099233    0.108088
     19          6           0       -2.144425   -1.038519   -0.152312
     20          6           0       -1.229200   -1.329220    0.863761
     21          1           0       -0.603561   -0.921966    2.888369
     22          1           0       -2.402318    0.745941    3.298238
     23          1           0       -4.049512    1.276489    1.485683
     24          1           0       -2.098202   -1.518517   -1.122303
     25          1           0       -0.444643   -2.058182    0.681744
     26          7           0       -4.115715    0.216792   -0.959863
     27          8           0       -3.992455   -0.372823   -2.031217
     28          8           0       -4.984477    1.048123   -0.705348
 ---------------------------------------------------------------------

 SCF Done:  E(RHF) =  -868.336361978     A.U. after   16 cycles
 E2 =    -0.2601818713D+01 EUMP2 =    -0.87093818069120D+03

 The electronic state is 1-A.
 Alpha  occ. eigenvalues --  -20.61226 -20.61212 -20.60932 -20.60913 -15.86283
 Alpha  occ. eigenvalues --  -15.85981 -11.31800 -11.31427 -11.28411 -11.28408
 Alpha  occ. eigenvalues --  -11.28231 -11.28066 -11.27921 -11.27696 -11.27510
 Alpha  occ. eigenvalues --  -11.27424 -11.27040 -11.26952  -1.60298  -1.59997
 Alpha  occ. eigenvalues --   -1.39844  -1.39550  -1.20030  -1.19586  -1.09395
 Alpha  occ. eigenvalues --   -1.08957  -1.05479  -1.05002  -0.96186  -0.95788
 Alpha  occ. eigenvalues --   -0.86853  -0.86395  -0.83044  -0.82617  -0.78065
 Alpha  occ. eigenvalues --   -0.77650  -0.72495  -0.72199  -0.71629  -0.71317
 Alpha  occ. eigenvalues --   -0.71109  -0.70686  -0.65681  -0.65556  -0.65240
 Alpha  occ. eigenvalues --   -0.64971  -0.62861  -0.62287  -0.55947  -0.55483
 Alpha  occ. eigenvalues --   -0.53917  -0.53593  -0.53244  -0.52974  -0.49272
 Alpha  occ. eigenvalues --   -0.49238  -0.48964  -0.48948  -0.45214  -0.44941
 Alpha  occ. eigenvalues --   -0.38039  -0.37680  -0.37176  -0.36320
 Alpha virt. eigenvalues --    0.04465   0.04886   0.10414   0.11042   0.15781
 Alpha virt. eigenvalues --    0.16464   0.19579   0.21861   0.25126   0.27487
 Alpha virt. eigenvalues --    0.28049   0.28642   0.30510   0.31019   0.32183

 Mulliken charges:
               1
     1  C   -0.173109
     2  C   -0.219436
     3  C   -0.170272
     4  C    0.156342
     5  C   -0.165299
     6  C   -0.228029
     7  H    0.226930
     8  H    0.225385
     9  H    0.277559
    10  H    0.280857
    11  H    0.219975
    12  N    0.487765
    13  O   -0.456703
    14  O   -0.459846
    15  C   -0.171267
    16  C   -0.216114
    17  C   -0.168940
    18  C    0.161490
    19  C   -0.178944
    20  C   -0.217919
    21  H    0.226823
    22  H    0.226086
    23  H    0.277774
    24  H    0.269758
    25  H    0.220519
    26  N    0.488399
    27  O   -0.462188
    28  O   -0.457597
 Sum of Mulliken charges =  -0.00000

 Dipole moment (field-independent basis, Debye):
    X=              3.6549    Y=             -6.0768    Z=              3.6697  Tot=              7.9845
 Quadrupole moment (field-independent basis, Debye-Ang):
   XX=           -120.2221   YY=           -107.8615   ZZ=           -101.8833
   XY=            -14.2532   XZ=            -11.7363   YZ=              3.1640

 Normal termination of Gaussian 16 at Fri May  7 08:07:44 2021.
