 Gaussian 16, Revision A.03,
 Gaussian 16:  EM64L-G16RevA.03 25-Dec-2016

 -------------
 #p 6-31g* mp2
 -------------

 ------------------------------------------------------
 Input file generated by CHIRIPA (05-May-2021 14:57:25)
 ------------------------------------------------------
 Symbolic Z-matrix:
 Charge =  0 Multiplicity = 1

                         Standard orientation:
 ---------------------------------------------------------------------
 Center     Atomic      Atomic             Coordinates (Angstroms)
 Number     Number       Type             X           Y           Z
 ---------------------------------------------------------------------
      1          6           0        3.215875   -1.867619    0.107860
      2          6           0        2.819258   -1.197036    1.269554
      3          6           0        2.381585    0.129376    1.209360
      4          6           0        2.353106    0.757562   -0.034770
      5          6           0        2.741825    0.116325   -1.209931
      6          6           0        3.175963   -1.209958   -1.126000
      7          1           0        3.554497   -2.897958    0.163840
      8          1           0        2.849210   -1.705281    2.229155
      9          1           0        2.068853    0.672240    2.093055
     10          1           0        2.700967    0.649340   -2.152080
     11          1           0        3.483385   -1.728256   -2.029827
     12          7           0        1.891632    2.161706   -0.111060
     13          8           0        1.875829    2.692876   -1.219322
     14          8           0        1.554470    2.704518    0.938852
     15          6           0       -4.327531    1.134841   -0.034869
     16          6           0       -3.982682    0.425959   -1.190328
     17          6           0       -2.932626   -0.496825   -1.170316
     18          6           0       -2.245635   -0.686720    0.027714
     19          6           0       -2.565358    0.004213    1.195481
     20          6           0       -3.619018    0.922081    1.152254
     21          1           0       -5.144639    1.849772   -0.059432
     22          1           0       -4.531172    0.589149   -2.113677
     23          1           0       -2.644602   -1.059158   -2.050226
     24          1           0       -2.000158   -0.179985    2.101040
     25          1           0       -3.884626    1.471189    2.051131
     26          7           0       -1.132081   -1.661028    0.061188
     27          8           0       -0.542408   -1.810154    1.129216
     28          8           0       -0.870035   -2.257114   -0.981237
 ---------------------------------------------------------------------

 SCF Done:  E(RHF) =  -868.339100522     A.U. after   16 cycles
 E2 =    -0.2600950917D+01 EUMP2 =    -0.87094005143991D+03

 The electronic state is 1-A.
 Alpha  occ. eigenvalues --  -20.60954 -20.60929 -20.60173 -20.60162 -15.85966
 Alpha  occ. eigenvalues --  -15.85209 -11.31103 -11.30173 -11.27652 -11.27646
 Alpha  occ. eigenvalues --  -11.27334 -11.26699 -11.26661 -11.26612 -11.26588
 Alpha  occ. eigenvalues --  -11.26293 -11.25633 -11.25558  -1.60003  -1.59256
 Alpha  occ. eigenvalues --   -1.39570  -1.38820  -1.19249  -1.18282  -1.08688
 Alpha  occ. eigenvalues --   -1.07746  -1.04619  -1.03625  -0.95568  -0.94661
 Alpha  occ. eigenvalues --   -0.86034  -0.85060  -0.82418  -0.81518  -0.77491
 Alpha  occ. eigenvalues --   -0.76623  -0.72225  -0.71443  -0.71326  -0.70569
 Alpha  occ. eigenvalues --   -0.70366  -0.69409  -0.64913  -0.64628  -0.63945
 Alpha  occ. eigenvalues --   -0.63658  -0.61982  -0.61024  -0.55134  -0.54148
 Alpha  occ. eigenvalues --   -0.52959  -0.52719  -0.51961  -0.51752  -0.48977
 Alpha  occ. eigenvalues --   -0.48914  -0.48213  -0.48157  -0.45046  -0.44312
 Alpha  occ. eigenvalues --   -0.37217  -0.36205  -0.36176  -0.35079
 Alpha virt. eigenvalues --    0.04970   0.05955   0.11447   0.12498   0.16535
 Alpha virt. eigenvalues --    0.17580   0.21562   0.22482   0.27449   0.28195
 Alpha virt. eigenvalues --    0.28560   0.29332   0.31131   0.32008   0.32562

 Mulliken charges:
               1
     1  C   -0.163835
     2  C   -0.199172
     3  C   -0.167874
     4  C    0.151292
     5  C   -0.173154
     6  C   -0.212770
     7  H    0.224495
     8  H    0.222090
     9  H    0.268887
    10  H    0.270450
    11  H    0.220669
    12  N    0.488155
    13  O   -0.464249
    14  O   -0.466130
    15  C   -0.169028
    16  C   -0.217459
    17  C   -0.170099
    18  C    0.157502
    19  C   -0.168274
    20  C   -0.216120
    21  H    0.226728
    22  H    0.223707
    23  H    0.273941
    24  H    0.272924
    25  H    0.224931
    26  N    0.489296
    27  O   -0.464329
    28  O   -0.462576
 Sum of Mulliken charges =  -0.00000

 Dipole moment (field-independent basis, Debye):
    X=             -2.4344    Y=             -1.7554    Z=              0.2344  Tot=              3.0104
 Quadrupole moment (field-independent basis, Debye-Ang):
   XX=            -80.4274   YY=           -118.4008   ZZ=            -95.3774
   XY=            -16.6725   XZ=              0.9550   YZ=              1.6772

 Normal termination of Gaussian 16 at Fri May  7 03:31:52 2021.
