 Gaussian 16, Revision A.03,
 Gaussian 16:  EM64L-G16RevA.03 25-Dec-2016

 -------------
 #p 6-31g* mp2
 -------------

 ------------------------------------------------------
 Input file generated by CHIRIPA (05-May-2021 14:51:11)
 ------------------------------------------------------
 Symbolic Z-matrix:
 Charge =  0 Multiplicity = 1

                         Standard orientation:
 ---------------------------------------------------------------------
 Center     Atomic      Atomic             Coordinates (Angstroms)
 Number     Number       Type             X           Y           Z
 ---------------------------------------------------------------------
      1          6           0        2.623192   -0.778129    0.542403
      2          6           0        1.718718   -1.935624    0.118002
      3          6           0        0.505752   -2.104366    1.033444
      4          1           0        2.961210   -0.944642    1.574373
      5          1           0        2.037392    0.151468    0.551522
      6          1           0        2.306389   -2.862535    0.108349
      7          1           0        1.382968   -1.766431   -0.913144
      8          1           0       -0.104628   -1.195504    1.035644
      9          1           0        0.824040   -2.297835    2.062941
     10          1           0       -0.127174   -2.937322    0.711809
     11          6           0        3.840124   -0.596768   -0.363086
     12          6           0        4.744598    0.560727    0.061315
     13          6           0        5.957563    0.729470   -0.854127
     14          1           0        4.425924   -1.526365   -0.372205
     15          1           0        3.502106   -0.430255   -1.395056
     16          1           0        5.080348    0.391535    1.092461
     17          1           0        4.156926    1.487638    0.070968
     18          1           0        5.639276    0.922938   -1.883624
     19          1           0        6.567944   -0.179393   -0.856327
     20          1           0        6.590489    1.562425   -0.532492
     21          6           0       -2.526065    0.964098   -0.184714
     22          6           0       -2.305374    2.311740    0.503138
     23          6           0       -0.889050    2.852224    0.303895
     24          1           0       -1.797409    0.238540    0.202031
     25          1           0       -2.321029    1.070683   -1.258957
     26          1           0       -2.512105    2.202976    1.575541
     27          1           0       -3.034763    3.034123    0.114849
     28          1           0       -0.675226    2.989117   -0.761065
     29          1           0       -0.149597    2.153248    0.707926
     30          1           0       -0.753219    3.816301    0.803860
     31          6           0       -3.937251    0.410799    0.005398
     32          6           0       -4.157942   -0.936843   -0.682455
     33          6           0       -5.574266   -1.477327   -0.483212
     34          1           0       -4.142286    0.304214    1.079639
     35          1           0       -4.665906    1.136356   -0.381348
     36          1           0       -3.428552   -1.659226   -0.294166
     37          1           0       -3.951211   -0.828080   -1.754858
     38          1           0       -6.313719   -0.778352   -0.887243
     39          1           0       -5.788091   -1.614220    0.581749
     40          1           0       -5.710097   -2.441405   -0.983178
 ---------------------------------------------------------------------

 SCF Done:  E(RHF) =  -470.733377540     A.U. after   11 cycles
 E2 =    -0.1583213304D+01 EUMP2 =    -0.47231659084444D+03

 The electronic state is 1-A.
 Alpha  occ. eigenvalues --  -11.21631 -11.21622 -11.21589 -11.21586 -11.21415
 Alpha  occ. eigenvalues --  -11.21408 -11.21352 -11.21348 -11.21132 -11.21116
 Alpha  occ. eigenvalues --  -11.21059 -11.21059  -1.08452  -1.08428  -1.03551
 Alpha  occ. eigenvalues --   -1.03533  -0.96016  -0.95975  -0.87037  -0.86989
 Alpha  occ. eigenvalues --   -0.79632  -0.79579  -0.78296  -0.78211  -0.65173
 Alpha  occ. eigenvalues --   -0.64981  -0.61013  -0.60869  -0.59386  -0.59335
 Alpha  occ. eigenvalues --   -0.57654  -0.57563  -0.55438  -0.55150  -0.52701
 Alpha  occ. eigenvalues --   -0.52677  -0.52502  -0.52344  -0.50081  -0.49806
 Alpha  occ. eigenvalues --   -0.48022  -0.47862  -0.46793  -0.46567  -0.45923
 Alpha  occ. eigenvalues --   -0.45761  -0.45746  -0.45403  -0.43799  -0.43791
 Alpha virt. eigenvalues --    0.19928   0.23024   0.23764   0.24393   0.25708
 Alpha virt. eigenvalues --    0.26195   0.27027   0.27254   0.28592   0.29583
 Alpha virt. eigenvalues --    0.30328   0.31354   0.31752   0.31802   0.31964

 Mulliken charges:
               1
     1  C   -0.301651
     2  C   -0.299174
     3  C   -0.483168
     4  H    0.149632
     5  H    0.152209
     6  H    0.152158
     7  H    0.152707
     8  H    0.160798
     9  H    0.155491
    10  H    0.160390
    11  C   -0.298196
    12  C   -0.299874
    13  C   -0.475716
    14  H    0.149538
    15  H    0.149929
    16  H    0.151823
    17  H    0.152517
    18  H    0.155236
    19  H    0.155081
    20  H    0.160290
    21  C   -0.307943
    22  C   -0.299032
    23  C   -0.478906
    24  H    0.158480
    25  H    0.149323
    26  H    0.152144
    27  H    0.152254
    28  H    0.155188
    29  H    0.156709
    30  H    0.160822
    31  C   -0.297527
    32  C   -0.300305
    33  C   -0.475730
    34  H    0.149641
    35  H    0.149624
    36  H    0.152977
    37  H    0.151681
    38  H    0.155074
    39  H    0.155302
    40  H    0.160206
 Sum of Mulliken charges =  -0.00000

 Dipole moment (field-independent basis, Debye):
    X=              0.0034    Y=             -0.0019    Z=             -0.0014  Tot=              0.0041
 Quadrupole moment (field-independent basis, Debye-Ang):
   XX=            -86.2176   YY=            -84.4716   ZZ=            -84.0303
   XY=             -1.2417   XZ=              1.1345   YZ=             -0.6220

 Normal termination of Gaussian 16 at Wed May  5 16:43:59 2021.
