 Gaussian 16, Revision A.03,
 Gaussian 16:  EM64L-G16RevA.03 25-Dec-2016

 -------------
 #p 6-31g* mp2
 -------------

 ------------------------------------------------------
 Input file generated by CHIRIPA (05-May-2021 14:53:11)
 ------------------------------------------------------
 Symbolic Z-matrix:
 Charge =  0 Multiplicity = 1

                         Standard orientation:
 ---------------------------------------------------------------------
 Center     Atomic      Atomic             Coordinates (Angstroms)
 Number     Number       Type             X           Y           Z
 ---------------------------------------------------------------------
      1          6           0        5.261880   -0.580942    0.106600
      2          6           0        6.788421   -0.597959    0.020762
      3          6           0        7.386596   -1.953791    0.397190
      4          1           0        4.955375   -0.847895    1.127255
      5          1           0        4.855688   -1.358415   -0.555170
      6          1           0        7.191562    0.180236    0.681447
      7          1           0        7.091332   -0.330748   -0.999757
      8          1           0        7.012313   -2.738192   -0.268564
      9          1           0        7.113113   -2.224304    1.422193
     10          1           0        8.478887   -1.943565    0.328962
     11          6           0        4.649111    0.767700   -0.266773
     12          6           0        3.122570    0.784716   -0.180935
     13          6           0        2.524395    2.140549   -0.557364
     14          1           0        5.055303    1.545173    0.394997
     15          1           0        4.955616    1.034652   -1.287428
     16          1           0        2.819659    0.517505    0.839584
     17          1           0        2.719429    0.006521   -0.841621
     18          1           0        2.797878    2.411062   -1.582366
     19          1           0        2.898678    2.924950    0.108390
     20          1           0        1.432104    2.130323   -0.489135
     21          6           0       -1.581664    0.932440    0.397008
     22          6           0       -1.961755    0.460831   -0.863801
     23          6           0       -3.227979   -0.098151   -1.060683
     24          6           0       -4.092851   -0.170150    0.030235
     25          6           0       -3.743424    0.291015    1.298509
     26          6           0       -2.472142    0.846178    1.472242
     27          1           0       -0.596066    1.365187    0.540960
     28          1           0       -1.272265    0.526533   -1.700658
     29          1           0       -3.548057   -0.470940   -2.026083
     30          1           0       -4.452507    0.211930    2.113594
     31          1           0       -2.179664    1.211631    2.452522
     32          7           0       -5.436024   -0.759898   -0.165942
     33          8           0       -6.179603   -0.811855    0.811313
     34          8           0       -5.719791   -1.159017   -1.293247
 ---------------------------------------------------------------------

 SCF Done:  E(RHF) =  -669.535472605     A.U. after   15 cycles
 E2 =    -0.2090802797D+01 EUMP2 =    -0.67162627540181D+03

 The electronic state is 1-A.
 Alpha  occ. eigenvalues --  -20.60734 -20.60729 -15.85788 -11.31148 -11.27719
 Alpha  occ. eigenvalues --  -11.27716 -11.27440 -11.26731 -11.26721 -11.22634
 Alpha  occ. eigenvalues --  -11.22328 -11.22173 -11.22113 -11.21994 -11.21490
 Alpha  occ. eigenvalues --   -1.59810  -1.39363  -1.19321  -1.09184  -1.08715
 Alpha  occ. eigenvalues --   -1.04725  -1.04320  -0.96775  -0.95552  -0.87789
 Alpha  occ. eigenvalues --   -0.86121  -0.82387  -0.80388  -0.78947  -0.77433
 Alpha  occ. eigenvalues --   -0.72006  -0.71133  -0.70455  -0.65806  -0.64974
 Alpha  occ. eigenvalues --   -0.64735  -0.62075  -0.61703  -0.60226  -0.58391
 Alpha  occ. eigenvalues --   -0.56037  -0.55250  -0.53465  -0.53167  -0.53052
 Alpha  occ. eigenvalues --   -0.52816  -0.50692  -0.48768  -0.48761  -0.48697
 Alpha  occ. eigenvalues --   -0.47409  -0.46498  -0.46392  -0.44770  -0.44563
 Alpha  occ. eigenvalues --   -0.37297  -0.36330
 Alpha virt. eigenvalues --    0.05102   0.11323   0.16592   0.19174   0.22446
 Alpha virt. eigenvalues --    0.23823   0.25880   0.25951   0.26830   0.27290
 Alpha virt. eigenvalues --    0.28735   0.30297   0.30677   0.31360   0.31777

 Mulliken charges:
               1
     1  C   -0.298890
     2  C   -0.300258
     3  C   -0.476115
     4  H    0.150254
     5  H    0.150537
     6  H    0.152575
     7  H    0.152782
     8  H    0.155971
     9  H    0.155725
    10  H    0.161818
    11  C   -0.298774
    12  C   -0.300918
    13  C   -0.479831
    14  H    0.151129
    15  H    0.151587
    16  H    0.151112
    17  H    0.152283
    18  H    0.160680
    19  H    0.159994
    20  H    0.149157
    21  C   -0.176598
    22  C   -0.220827
    23  C   -0.170927
    24  C    0.158255
    25  C   -0.170712
    26  C   -0.219529
    27  H    0.234627
    28  H    0.223273
    29  H    0.275479
    30  H    0.275408
    31  H    0.223777
    32  N    0.488036
    33  O   -0.460521
    34  O   -0.460560
 Sum of Mulliken charges =  -0.00000

 Dipole moment (field-independent basis, Debye):
    X=              4.9903    Y=              2.0642    Z=              0.6836  Tot=              5.4434
 Quadrupole moment (field-independent basis, Debye-Ang):
   XX=           -133.3014   YY=            -96.8799   ZZ=            -89.1396
   XY=             -8.9442   XZ=             -4.0345   YZ=              1.3655

 Normal termination of Gaussian 16 at Wed May  5 18:27:33 2021.
