 Gaussian 16, Revision A.03,
 Gaussian 16:  EM64L-G16RevA.03 25-Dec-2016

 -------------
 #p 6-31g* mp2
 -------------

 ------------------------------------------------------
 Input file generated by CHIRIPA (05-May-2021 14:57:26)
 ------------------------------------------------------
 Symbolic Z-matrix:
 Charge =  0 Multiplicity = 1

                         Standard orientation:
 ---------------------------------------------------------------------
 Center     Atomic      Atomic             Coordinates (Angstroms)
 Number     Number       Type             X           Y           Z
 ---------------------------------------------------------------------
      1          6           0        5.695255    1.025858   -0.897282
      2          6           0        4.424513    1.583229   -1.073557
      3          6           0        3.301176    0.987897   -0.491970
      4          6           0        3.485845   -0.169317    0.263042
      5          6           0        4.738888   -0.748597    0.456972
      6          6           0        5.848117   -0.136227   -0.133926
      7          1           0        6.562411    1.494944   -1.352689
      8          1           0        4.302804    2.485664   -1.665877
      9          1           0        2.305913    1.398255   -0.612286
     10          1           0        4.828668   -1.648774    1.052824
     11          1           0        6.833788   -0.571304    0.004664
     12          7           0        2.304086   -0.808587    0.883670
     13          8           0        2.493412   -1.827600    1.544279
     14          8           0        1.210874   -0.278529    0.697758
     15          6           0       -4.007821    2.435409    0.636162
     16          6           0       -2.753569    2.017122    0.179643
     17          6           0       -2.560738    0.705512   -0.264249
     18          6           0       -3.648980   -0.165306   -0.237798
     19          6           0       -4.910741    0.221469    0.211262
     20          6           0       -5.080512    1.537831    0.650489
     21          1           0       -4.148659    3.456145    0.979176
     22          1           0       -1.918699    2.712024    0.167391
     23          1           0       -1.600431    0.355239   -0.622771
     24          1           0       -5.723984   -0.494109    0.211609
     25          1           0       -6.055701    1.859905    1.004493
     26          7           0       -3.457045   -1.556363   -0.705258
     27          8           0       -4.431824   -2.304248   -0.671934
     28          8           0       -2.335461   -1.872451   -1.096123
 ---------------------------------------------------------------------

 SCF Done:  E(RHF) =  -868.337850851     A.U. after   16 cycles
 E2 =    -0.2599131527D+01 EUMP2 =    -0.87093698237791D+03

 The electronic state is 1-A.
 Alpha  occ. eigenvalues --  -20.60927 -20.60884 -20.59875 -20.59828 -15.85966
 Alpha  occ. eigenvalues --  -15.84910 -11.31340 -11.30313 -11.27960 -11.27875
 Alpha  occ. eigenvalues --  -11.27642 -11.26975 -11.26948 -11.26899 -11.26816
 Alpha  occ. eigenvalues --  -11.26759 -11.26011 -11.25952  -1.59960  -1.58929
 Alpha  occ. eigenvalues --   -1.39523  -1.38478  -1.19508  -1.18524  -1.08895
 Alpha  occ. eigenvalues --   -1.07929  -1.04921  -1.03934  -0.95734  -0.94743
 Alpha  occ. eigenvalues --   -0.86318  -0.85339  -0.82577  -0.81574  -0.77627
 Alpha  occ. eigenvalues --   -0.76590  -0.72195  -0.71272  -0.71133  -0.70625
 Alpha  occ. eigenvalues --   -0.70250  -0.69648  -0.65169  -0.64926  -0.64186
 Alpha  occ. eigenvalues --   -0.63962  -0.62279  -0.61264  -0.55414  -0.54486
 Alpha  occ. eigenvalues --   -0.53237  -0.53019  -0.52269  -0.52037  -0.48944
 Alpha  occ. eigenvalues --   -0.48912  -0.47908  -0.47869  -0.44920  -0.43873
 Alpha  occ. eigenvalues --   -0.37479  -0.36546  -0.36522  -0.35532
 Alpha virt. eigenvalues --    0.04922   0.05945   0.11134   0.12114   0.16403
 Alpha virt. eigenvalues --    0.17395   0.21071   0.22160   0.26781   0.27522
 Alpha virt. eigenvalues --    0.28456   0.29186   0.30941   0.31664   0.32293

 Mulliken charges:
               1
     1  C   -0.170715
     2  C   -0.217995
     3  C   -0.169324
     4  C    0.159831
     5  C   -0.170280
     6  C   -0.218203
     7  H    0.226085
     8  H    0.222517
     9  H    0.268706
    10  H    0.277132
    11  H    0.224466
    12  N    0.492542
    13  O   -0.454735
    14  O   -0.468499
    15  C   -0.171053
    16  C   -0.219211
    17  C   -0.167621
    18  C    0.156620
    19  C   -0.171048
    20  C   -0.219548
    21  H    0.221750
    22  H    0.219042
    23  H    0.288028
    24  H    0.273491
    25  H    0.220153
    26  N    0.487870
    27  O   -0.465035
    28  O   -0.454966
 Sum of Mulliken charges =  -0.00000

 Dipole moment (field-independent basis, Debye):
    X=              3.8483    Y=              6.9742    Z=             -0.5196  Tot=              7.9824
 Quadrupole moment (field-independent basis, Debye-Ang):
   XX=            -65.5637   YY=           -105.7684   ZZ=           -107.3727
   XY=            -11.9816   XZ=            -12.2649   YZ=             -2.4643

 Normal termination of Gaussian 16 at Fri May  7 03:32:36 2021.
