 Gaussian 16, Revision A.03,
 Gaussian 16:  EM64L-G16RevA.03 25-Dec-2016

 -------------
 #p 6-31g* mp2
 -------------

 ------------------------------------------------------
 Input file generated by CHIRIPA (05-May-2021 14:53:13)
 ------------------------------------------------------
 Symbolic Z-matrix:
 Charge =  0 Multiplicity = 1

                         Standard orientation:
 ---------------------------------------------------------------------
 Center     Atomic      Atomic             Coordinates (Angstroms)
 Number     Number       Type             X           Y           Z
 ---------------------------------------------------------------------
      1          6           0        4.103543    0.702505   -0.261260
      2          6           0        4.191493    1.776108    0.823925
      3          6           0        4.638174    3.132831    0.278425
      4          1           0        5.083783    0.599497   -0.746506
      5          1           0        3.402739    1.034485   -1.039756
      6          1           0        4.890872    1.441590    1.600832
      7          1           0        3.210979    1.876437    1.306774
      8          1           0        3.937055    3.492153   -0.481787
      9          1           0        5.626492    3.054836   -0.186058
     10          1           0        4.694260    3.885488    1.071029
     11          6           0        3.658268   -0.659381    0.268576
     12          6           0        3.570319   -1.732984   -0.816609
     13          6           0        3.123638   -3.089707   -0.271108
     14          1           0        4.359073   -0.991361    1.047073
     15          1           0        2.678029   -0.556373    0.753823
     16          1           0        4.550832   -1.833313   -1.299457
     17          1           0        2.870940   -1.398466   -1.593515
     18          1           0        2.135319   -3.011712    0.193375
     19          1           0        3.824757   -3.449029    0.489103
     20          1           0        3.067551   -3.842364   -1.063712
     21          6           0       -0.751460   -1.090496    0.109064
     22          6           0       -0.948009    0.056052   -0.667672
     23          6           0       -2.207277    0.659355   -0.737075
     24          6           0       -3.252427    0.086951   -0.013678
     25          6           0       -3.088220   -1.054815    0.769071
     26          6           0       -1.820309   -1.641299    0.823697
     27          1           0        0.230127   -1.552624    0.157239
     28          1           0       -0.119754    0.485997   -1.223718
     29          1           0       -2.387337    1.547475   -1.330572
     30          1           0       -3.933132   -1.460381    1.312265
     31          1           0       -1.670591   -2.531670    1.427739
     32          7           0       -4.590134    0.716739   -0.079330
     33          8           0       -5.494647    0.193011    0.567355
     34          8           0       -4.708785    1.722169   -0.776231
 ---------------------------------------------------------------------

 SCF Done:  E(RHF) =  -669.535335631     A.U. after   15 cycles
 E2 =    -0.2091820629D+01 EUMP2 =    -0.67162715625944D+03

 The electronic state is 1-A.
 Alpha  occ. eigenvalues --  -20.60756 -20.60751 -15.85810 -11.31180 -11.27751
 Alpha  occ. eigenvalues --  -11.27745 -11.27465 -11.26770 -11.26753 -11.22783
 Alpha  occ. eigenvalues --  -11.22504 -11.22356 -11.22345 -11.22295 -11.21673
 Alpha  occ. eigenvalues --   -1.59832  -1.39385  -1.19352  -1.09450  -1.08744
 Alpha  occ. eigenvalues --   -1.04756  -1.04500  -0.96950  -0.95581  -0.87962
 Alpha  occ. eigenvalues --   -0.86153  -0.82417  -0.80564  -0.79226  -0.77460
 Alpha  occ. eigenvalues --   -0.72028  -0.71155  -0.70507  -0.66106  -0.65002
 Alpha  occ. eigenvalues --   -0.64748  -0.62105  -0.61915  -0.60323  -0.58540
 Alpha  occ. eigenvalues --   -0.56314  -0.55211  -0.53613  -0.53358  -0.53081
 Alpha  occ. eigenvalues --   -0.52848  -0.50914  -0.48869  -0.48783  -0.48781
 Alpha  occ. eigenvalues --   -0.47613  -0.46756  -0.46686  -0.44790  -0.44748
 Alpha  occ. eigenvalues --   -0.37326  -0.36362
 Alpha virt. eigenvalues --    0.05062   0.11278   0.16512   0.17869   0.22425
 Alpha virt. eigenvalues --    0.23662   0.24833   0.25489   0.26837   0.28334
 Alpha virt. eigenvalues --    0.29179   0.30649   0.30782   0.31122   0.32014

 Mulliken charges:
               1
     1  C   -0.297827
     2  C   -0.300757
     3  C   -0.476069
     4  H    0.153402
     5  H    0.145278
     6  H    0.154112
     7  H    0.152578
     8  H    0.154919
     9  H    0.156626
    10  H    0.163305
    11  C   -0.301514
    12  C   -0.302488
    13  C   -0.477789
    14  H    0.154498
    15  H    0.143738
    16  H    0.158625
    17  H    0.148065
    18  H    0.144662
    19  H    0.161275
    20  H    0.166043
    21  C   -0.179499
    22  C   -0.222468
    23  C   -0.170558
    24  C    0.158335
    25  C   -0.170596
    26  C   -0.221538
    27  H    0.239957
    28  H    0.223713
    29  H    0.275520
    30  H    0.275640
    31  H    0.223707
    32  N    0.487967
    33  O   -0.460394
    34  O   -0.460467
 Sum of Mulliken charges =  -0.00000

 Dipole moment (field-independent basis, Debye):
    X=              4.9818    Y=             -2.2145    Z=              0.2457  Tot=              5.4574
 Quadrupole moment (field-independent basis, Debye-Ang):
   XX=           -123.1963   YY=            -93.6958   ZZ=            -93.4275
   XY=              8.4357   XZ=             -1.8502   YZ=             -2.1758

 Normal termination of Gaussian 16 at Thu May  6 05:48:10 2021.
