 Gaussian 16, Revision A.03,
 Gaussian 16:  EM64L-G16RevA.03 25-Dec-2016

 -------------
 #p 6-31g* mp2
 -------------

 ------------------------------------------------------
 Input file generated by CHIRIPA (05-May-2021 14:51:10)
 ------------------------------------------------------
 Symbolic Z-matrix:
 Charge =  0 Multiplicity = 1

                         Standard orientation:
 ---------------------------------------------------------------------
 Center     Atomic      Atomic             Coordinates (Angstroms)
 Number     Number       Type             X           Y           Z
 ---------------------------------------------------------------------
      1          6           0       -3.782230   -0.108964   -0.379860
      2          6           0       -5.072239    0.592827    0.045993
      3          6           0       -5.926649    1.032052   -1.143485
      4          1           0       -3.199960    0.565950   -1.022042
      5          1           0       -4.034843   -0.984312   -0.994146
      6          1           0       -4.817317    1.465799    0.660444
      7          1           0       -5.651416   -0.083766    0.687392
      8          1           0       -6.209714    0.168615   -1.754182
      9          1           0       -5.370876    1.726984   -1.781283
     10          1           0       -6.843901    1.531481   -0.816252
     11          6           0       -2.917389   -0.554004    0.798155
     12          6           0       -1.627380   -1.255795    0.372302
     13          6           0       -0.772970   -1.695020    1.561780
     14          1           0       -2.664776    0.321344    1.412441
     15          1           0       -3.499659   -1.228918    1.440336
     16          1           0       -1.048203   -0.579202   -0.269097
     17          1           0       -1.882302   -2.128767   -0.242149
     18          1           0       -1.328743   -2.389952    2.199578
     19          1           0       -0.489905   -0.831583    2.172477
     20          1           0        0.144282   -2.194448    1.234547
     21          6           0        3.772973   -0.300216   -0.282079
     22          6           0        2.951661   -1.544338   -0.622068
     23          6           0        3.812285   -2.800032   -0.764732
     24          1           0        4.528020   -0.142056   -1.064278
     25          1           0        4.323305   -0.476800    0.652451
     26          1           0        2.401965   -1.364947   -1.554951
     27          1           0        2.198357   -1.699445    0.160934
     28          1           0        4.349605   -3.006646    0.166503
     29          1           0        4.554370   -2.670248   -1.559130
     30          1           0        3.204975   -3.677487   -1.007850
     31          6           0        2.926645    0.963184   -0.136216
     32          6           0        3.747958    2.207306    0.203773
     33          6           0        2.887334    3.463000    0.346438
     34          1           0        2.376313    1.139768   -1.070746
     35          1           0        2.171599    0.805024    0.645983
     36          1           0        4.501263    2.362412   -0.579228
     37          1           0        4.297654    2.027916    1.136655
     38          1           0        2.145250    3.333216    1.140835
     39          1           0        2.350014    3.669614   -0.584797
     40          1           0        3.494644    4.340455    0.589554
 ---------------------------------------------------------------------

 SCF Done:  E(RHF) =  -470.733337622     A.U. after   11 cycles
 E2 =    -0.1582795459D+01 EUMP2 =    -0.47231613308185D+03

 The electronic state is 1-A.
 Alpha  occ. eigenvalues --  -11.21615 -11.21594 -11.21584 -11.21577 -11.21411
 Alpha  occ. eigenvalues --  -11.21396 -11.21351 -11.21336 -11.21094 -11.21080
 Alpha  occ. eigenvalues --  -11.21071 -11.21065  -1.08442  -1.08415  -1.03552
 Alpha  occ. eigenvalues --   -1.03510  -0.95991  -0.95976  -0.87021  -0.86981
 Alpha  occ. eigenvalues --   -0.79623  -0.79564  -0.78258  -0.78225  -0.65095
 Alpha  occ. eigenvalues --   -0.65029  -0.60972  -0.60910  -0.59468  -0.59244
 Alpha  occ. eigenvalues --   -0.57660  -0.57525  -0.55285  -0.55256  -0.52741
 Alpha  occ. eigenvalues --   -0.52650  -0.52446  -0.52366  -0.49927  -0.49917
 Alpha  occ. eigenvalues --   -0.48004  -0.47822  -0.46630  -0.46601  -0.45818
 Alpha  occ. eigenvalues --   -0.45752  -0.45706  -0.45677  -0.43802  -0.43735
 Alpha virt. eigenvalues --    0.21035   0.23185   0.23672   0.24425   0.26304
 Alpha virt. eigenvalues --    0.26406   0.26966   0.27696   0.27853   0.29480
 Alpha virt. eigenvalues --    0.29815   0.31498   0.31574   0.31893   0.32024

 Mulliken charges:
               1
     1  C   -0.298277
     2  C   -0.299654
     3  C   -0.475704
     4  H    0.149778
     5  H    0.149473
     6  H    0.151966
     7  H    0.151893
     8  H    0.155144
     9  H    0.155194
    10  H    0.160235
    11  C   -0.298339
    12  C   -0.300134
    13  C   -0.481061
    14  H    0.149439
    15  H    0.149551
    16  H    0.153675
    17  H    0.151820
    18  H    0.155262
    19  H    0.154391
    20  H    0.165284
    21  C   -0.297595
    22  C   -0.308163
    23  C   -0.475408
    24  H    0.149639
    25  H    0.149522
    26  H    0.151932
    27  H    0.160065
    28  H    0.155137
    29  H    0.155273
    30  H    0.160050
    31  C   -0.299392
    32  C   -0.299655
    33  C   -0.475678
    34  H    0.149159
    35  H    0.150711
    36  H    0.152063
    37  H    0.152085
    38  H    0.154907
    39  H    0.155028
    40  H    0.160384
 Sum of Mulliken charges =  -0.00000

 Dipole moment (field-independent basis, Debye):
    X=              0.0037    Y=             -0.0043    Z=             -0.0016  Tot=              0.0059
 Quadrupole moment (field-independent basis, Debye-Ang):
   XX=            -85.3374   YY=            -85.0682   ZZ=            -84.3964
   XY=              1.2370   XZ=             -0.5775   YZ=             -0.0685

 Normal termination of Gaussian 16 at Thu May  6 03:48:44 2021.
