 Gaussian 16, Revision A.03,
 Gaussian 16:  EM64L-G16RevA.03 25-Dec-2016

 -------------
 #p 6-31g* mp2
 -------------

 ------------------------------------------------------
 Input file generated by CHIRIPA (05-May-2021 14:53:13)
 ------------------------------------------------------
 Symbolic Z-matrix:
 Charge =  0 Multiplicity = 1

                         Standard orientation:
 ---------------------------------------------------------------------
 Center     Atomic      Atomic             Coordinates (Angstroms)
 Number     Number       Type             X           Y           Z
 ---------------------------------------------------------------------
      1          6           0       -3.584812   -0.568542    0.095984
      2          6           0       -4.770164   -1.532665    0.154235
      3          6           0       -4.345438   -2.975894    0.427167
      4          1           0       -2.887859   -0.901166   -0.685401
      5          1           0       -3.035084   -0.616500    1.046192
      6          1           0       -5.318296   -1.481882   -0.795285
      7          1           0       -5.464470   -1.197598    0.935442
      8          1           0       -3.817431   -3.047773    1.383537
      9          1           0       -3.670426   -3.333672   -0.357024
     10          1           0       -5.208361   -3.648065    0.464695
     11          6           0       -3.993360    0.878097   -0.176142
     12          6           0       -2.808008    1.842220   -0.234393
     13          6           0       -3.232734    3.285449   -0.507325
     14          1           0       -4.543088    0.926055   -1.126349
     15          1           0       -4.690313    1.210722    0.605243
     16          1           0       -2.113702    1.507153   -1.015600
     17          1           0       -2.259876    1.791437    0.715127
     18          1           0       -3.907746    3.643227    0.276866
     19          1           0       -3.760741    3.357328   -1.463695
     20          1           0       -2.369811    3.957621   -0.544852
     21          6           0        0.440261   -0.046146    0.131913
     22          6           0        1.082339   -1.059361   -0.587568
     23          6           0        2.478047   -1.110627   -0.650163
     24          6           0        3.203845   -0.128149    0.021586
     25          6           0        2.593293    0.893981    0.746684
     26          6           0        1.196454    0.925578    0.795573
     27          1           0       -0.644398   -0.013962    0.175214
     28          1           0        0.497623   -1.815340   -1.103949
     29          1           0        3.000858   -1.883870   -1.199872
     30          1           0        3.203082    1.633618    1.251177
     31          1           0        0.700506    1.713623    1.355095
     32          7           0        4.682016   -0.172010   -0.037426
     33          8           0        5.298721    0.705340    0.563048
     34          8           0        5.195914   -1.082908   -0.683035
 ---------------------------------------------------------------------

 SCF Done:  E(RHF) =  -669.534566576     A.U. after   15 cycles
 E2 =    -0.2093090200D+01 EUMP2 =    -0.67162765677629D+03

 The electronic state is 1-A.
 Alpha  occ. eigenvalues --  -20.60654 -20.60648 -15.85708 -11.31031 -11.27612
 Alpha  occ. eigenvalues --  -11.27609 -11.27168 -11.26585 -11.26573 -11.22969
 Alpha  occ. eigenvalues --  -11.22781 -11.22631 -11.22578 -11.22101 -11.21978
 Alpha  occ. eigenvalues --   -1.59731  -1.39286  -1.19198  -1.09694  -1.08580
 Alpha  occ. eigenvalues --   -1.04666  -1.04600  -0.97085  -0.95433  -0.88100
 Alpha  occ. eigenvalues --   -0.85995  -0.82301  -0.80771  -0.79595  -0.77336
 Alpha  occ. eigenvalues --   -0.71925  -0.71055  -0.70262  -0.66297  -0.64841
 Alpha  occ. eigenvalues --   -0.64616  -0.62054  -0.61952  -0.60466  -0.58732
 Alpha  occ. eigenvalues --   -0.56352  -0.55158  -0.53688  -0.53515  -0.52927
 Alpha  occ. eigenvalues --   -0.52690  -0.51017  -0.49054  -0.48684  -0.48682
 Alpha  occ. eigenvalues --   -0.47788  -0.46987  -0.46925  -0.44941  -0.44701
 Alpha  occ. eigenvalues --   -0.37137  -0.36223
 Alpha virt. eigenvalues --    0.05183   0.11426   0.16603   0.19985   0.22341
 Alpha virt. eigenvalues --    0.22841   0.24458   0.25640   0.26571   0.27757
 Alpha virt. eigenvalues --    0.29502   0.30515   0.30900   0.31127   0.31455

 Mulliken charges:
               1
     1  C   -0.307298
     2  C   -0.299115
     3  C   -0.476732
     4  H    0.144282
     5  H    0.148284
     6  H    0.155411
     7  H    0.155838
     8  H    0.156562
     9  H    0.153567
    10  H    0.164769
    11  C   -0.295994
    12  C   -0.310263
    13  C   -0.475188
    14  H    0.154590
    15  H    0.154302
    16  H    0.153965
    17  H    0.144928
    18  H    0.158318
    19  H    0.159636
    20  H    0.162724
    21  C   -0.178456
    22  C   -0.224335
    23  C   -0.170488
    24  C    0.157608
    25  C   -0.170511
    26  C   -0.225100
    27  H    0.247607
    28  H    0.222355
    29  H    0.274845
    30  H    0.274838
    31  H    0.223009
    32  N    0.488022
    33  O   -0.461003
    34  O   -0.460976
 Sum of Mulliken charges =  -0.00000

 Dipole moment (field-independent basis, Debye):
    X=             -5.6220    Y=              0.2050    Z=              0.1776  Tot=              5.6286
 Quadrupole moment (field-independent basis, Debye-Ang):
   XX=           -127.4931   YY=            -92.3281   ZZ=            -92.7141
   XY=              1.4679   XZ=              0.6760   YZ=              2.9107

 Normal termination of Gaussian 16 at Thu May  6 10:28:34 2021.
