 Gaussian 16, Revision A.03,
 Gaussian 16:  EM64L-G16RevA.03 25-Dec-2016

 -------------
 #p 6-31g* mp2
 -------------

 ------------------------------------------------------
 Input file generated by CHIRIPA (05-May-2021 14:51:10)
 ------------------------------------------------------
 Symbolic Z-matrix:
 Charge =  0 Multiplicity = 1

                         Standard orientation:
 ---------------------------------------------------------------------
 Center     Atomic      Atomic             Coordinates (Angstroms)
 Number     Number       Type             X           Y           Z
 ---------------------------------------------------------------------
      1          6           0        3.368144   -0.243208    0.061727
      2          6           0        3.804576   -0.106746   -1.397344
      3          6           0        5.080479    0.720360   -1.557847
      4          1           0        3.213679    0.758001    0.486774
      5          1           0        4.181009   -0.705675    0.638590
      6          1           0        2.990603    0.354061   -1.971558
      7          1           0        3.957834   -1.108402   -1.819023
      8          1           0        5.909158    0.260544   -1.009705
      9          1           0        4.936431    1.731316   -1.163107
     10          1           0        5.374415    0.805158   -2.608690
     11          6           0        2.094090   -1.067402    0.238420
     12          6           0        1.657658   -1.203865    1.697491
     13          6           0        0.381755   -2.030971    1.857994
     14          1           0        1.281225   -0.604936   -0.338443
     15          1           0        2.248555   -2.068612   -0.186627
     16          1           0        1.504400   -0.202209    2.119170
     17          1           0        2.471631   -1.664671    2.271705
     18          1           0        0.525803   -3.041927    1.463254
     19          1           0       -0.446924   -1.571155    1.309852
     20          1           0        0.087819   -2.115769    2.908837
     21          6           0       -2.901699    0.105744   -0.652384
     22          6           0       -4.337274   -0.405627   -0.527453
     23          6           0       -4.663426   -1.504758   -1.539050
     24          1           0       -2.741281    0.483884   -1.671317
     25          1           0       -2.207313   -0.735209   -0.518140
     26          1           0       -5.028714    0.436289   -0.660519
     27          1           0       -4.494352   -0.782416    0.491356
     28          1           0       -3.997100   -2.362848   -1.403809
     29          1           0       -4.534497   -1.137219   -2.562229
     30          1           0       -5.694554   -1.855737   -1.432048
     31          6           0       -2.560535    1.204867    0.352238
     32          6           0       -1.124959    1.716237    0.227306
     33          6           0       -0.798808    2.815369    1.238903
     34          1           0       -3.254922    2.045819    0.217993
     35          1           0       -2.720954    0.826727    1.371170
     36          1           0       -0.967882    2.093026   -0.791503
     37          1           0       -0.433521    0.874321    0.360372
     38          1           0       -0.927737    2.447829    2.262081
     39          1           0       -1.465135    3.673459    1.103661
     40          1           0        0.232320    3.166348    1.131900
 ---------------------------------------------------------------------

 SCF Done:  E(RHF) =  -470.732837085     A.U. after   11 cycles
 E2 =    -0.1584472928D+01 EUMP2 =    -0.47231731001209D+03

 The electronic state is 1-A.
 Alpha  occ. eigenvalues --  -11.21641 -11.21635 -11.21618 -11.21597 -11.21446
 Alpha  occ. eigenvalues --  -11.21408 -11.21387 -11.21348 -11.21140 -11.21135
 Alpha  occ. eigenvalues --  -11.21073 -11.21069  -1.08508  -1.08419  -1.03604
 Alpha  occ. eigenvalues --   -1.03523  -0.96028  -0.95996  -0.87039  -0.87018
 Alpha  occ. eigenvalues --   -0.79652  -0.79609  -0.78368  -0.78186  -0.65419
 Alpha  occ. eigenvalues --   -0.64845  -0.61206  -0.60703  -0.59402  -0.59348
 Alpha  occ. eigenvalues --   -0.57658  -0.57589  -0.55393  -0.55214  -0.52711
 Alpha  occ. eigenvalues --   -0.52701  -0.52475  -0.52399  -0.50014  -0.49906
 Alpha  occ. eigenvalues --   -0.48035  -0.47898  -0.46791  -0.46635  -0.46106
 Alpha  occ. eigenvalues --   -0.45794  -0.45760  -0.45216  -0.43819  -0.43805
 Alpha virt. eigenvalues --    0.19549   0.22505   0.24097   0.24543   0.25650
 Alpha virt. eigenvalues --    0.26375   0.26715   0.27977   0.28829   0.29378
 Alpha virt. eigenvalues --    0.31006   0.31505   0.31642   0.32079   0.32153

 Mulliken charges:
               1
     1  C   -0.298085
     2  C   -0.299836
     3  C   -0.475715
     4  H    0.149655
     5  H    0.149594
     6  H    0.152462
     7  H    0.151913
     8  H    0.155145
     9  H    0.155142
    10  H    0.160266
    11  C   -0.303617
    12  C   -0.301434
    13  C   -0.481976
    14  H    0.153772
    15  H    0.149960
    16  H    0.153133
    17  H    0.152926
    18  H    0.155715
    19  H    0.159496
    20  H    0.160553
    21  C   -0.303139
    22  C   -0.299462
    23  C   -0.475872
    24  H    0.149861
    25  H    0.152642
    26  H    0.152050
    27  H    0.152315
    28  H    0.155631
    29  H    0.155123
    30  H    0.160351
    31  C   -0.297740
    32  C   -0.311156
    33  C   -0.475300
    34  H    0.149933
    35  H    0.150171
    36  H    0.151553
    37  H    0.163295
    38  H    0.155456
    39  H    0.155622
    40  H    0.159598
 Sum of Mulliken charges =  -0.00000

 Dipole moment (field-independent basis, Debye):
    X=             -0.0072    Y=             -0.0043    Z=             -0.0021  Tot=              0.0087
 Quadrupole moment (field-independent basis, Debye-Ang):
   XX=            -85.3173   YY=            -84.5372   ZZ=            -84.8478
   XY=             -1.5394   XZ=              0.2514   YZ=             -0.9258

 Normal termination of Gaussian 16 at Thu May  6 06:58:46 2021.
