 Gaussian 16, Revision A.03,
 Gaussian 16:  EM64L-G16RevA.03 25-Dec-2016

 -------------
 #p 6-31g* mp2
 -------------

 ------------------------------------------------------
 Input file generated by CHIRIPA (05-May-2021 14:57:23)
 ------------------------------------------------------
 Symbolic Z-matrix:
 Charge =  0 Multiplicity = 1

                         Standard orientation:
 ---------------------------------------------------------------------
 Center     Atomic      Atomic             Coordinates (Angstroms)
 Number     Number       Type             X           Y           Z
 ---------------------------------------------------------------------
      1          6           0       -3.190260    2.246884    1.054991
      2          6           0       -4.240243    1.845450    0.222580
      3          6           0       -4.239534    0.573686   -0.358078
      4          6           0       -3.168155   -0.274902   -0.083603
      5          6           0       -2.107465    0.095936    0.741446
      6          6           0       -2.129093    1.372388    1.311316
      7          1           0       -3.198936    3.236642    1.501870
      8          1           0       -5.065664    2.522496    0.021749
      9          1           0       -5.039542    0.237213   -1.006299
     10          1           0       -1.298398   -0.601095    0.923038
     11          1           0       -1.312316    1.681453    1.957379
     12          7           0       -3.156332   -1.623743   -0.692608
     13          8           0       -2.200834   -2.352676   -0.435086
     14          8           0       -4.102786   -1.926491   -1.415938
     15          6           0        3.194703    2.377854   -0.995797
     16          6           0        4.333857    1.570591   -1.080491
     17          6           0        4.331583    0.280594   -0.541557
     18          6           0        3.167725   -0.172200    0.077880
     19          6           0        2.016912    0.608100    0.178133
     20          6           0        2.041899    1.894883   -0.367863
     21          1           0        3.205291    3.378707   -1.417197
     22          1           0        5.230556    1.943046   -1.567580
     23          1           0        5.199499   -0.365535   -0.593119
     24          1           0        1.137942    0.209139    0.669721
     25          1           0        1.155749    2.519595   -0.300620
     26          7           0        3.153297   -1.536162    0.652163
     27          8           0        2.115356   -1.911707    1.192795
     28          8           0        4.180201   -2.203863    0.550782
 ---------------------------------------------------------------------

 SCF Done:  E(RHF) =  -868.336487737     A.U. after   16 cycles
 E2 =    -0.2600816437D+01 EUMP2 =    -0.87093730417407D+03

 The electronic state is 1-A.
 Alpha  occ. eigenvalues --  -20.60868 -20.60854 -20.60789 -20.60749 -15.85917
 Alpha  occ. eigenvalues --  -15.85834 -11.31464 -11.31422 -11.28089 -11.28086
 Alpha  occ. eigenvalues --  -11.28064 -11.27956 -11.27888 -11.27747 -11.27207
 Alpha  occ. eigenvalues --  -11.27115 -11.27080 -11.27002  -1.59926  -1.59850
 Alpha  occ. eigenvalues --   -1.39480  -1.39391  -1.19679  -1.19597  -1.09021
 Alpha  occ. eigenvalues --   -1.08960  -1.05146  -1.05019  -0.95815  -0.95773
 Alpha  occ. eigenvalues --   -0.86512  -0.86415  -0.82667  -0.82590  -0.77734
 Alpha  occ. eigenvalues --   -0.77557  -0.72136  -0.72038  -0.71245  -0.71185
 Alpha  occ. eigenvalues --   -0.70845  -0.70652  -0.65335  -0.65257  -0.65172
 Alpha  occ. eigenvalues --   -0.64996  -0.62671  -0.62184  -0.55629  -0.55498
 Alpha  occ. eigenvalues --   -0.53437  -0.53340  -0.53280  -0.53054  -0.48900
 Alpha  occ. eigenvalues --   -0.48884  -0.48833  -0.48780  -0.44850  -0.44740
 Alpha  occ. eigenvalues --   -0.37671  -0.37564  -0.36769  -0.36612
 Alpha virt. eigenvalues --    0.04832   0.04943   0.10832   0.11051   0.16190
 Alpha virt. eigenvalues --    0.16376   0.19155   0.22025   0.24831   0.26938
 Alpha virt. eigenvalues --    0.27849   0.29229   0.30512   0.31066   0.31675

 Mulliken charges:
               1
     1  C   -0.171584
     2  C   -0.218578
     3  C   -0.169895
     4  C    0.160206
     5  C   -0.181712
     6  C   -0.225123
     7  H    0.225318
     8  H    0.224456
     9  H    0.277310
    10  H    0.287273
    11  H    0.220914
    12  N    0.486939
    13  O   -0.452554
    14  O   -0.461055
    15  C   -0.170536
    16  C   -0.218194
    17  C   -0.169498
    18  C    0.159891
    19  C   -0.171522
    20  C   -0.220494
    21  H    0.225660
    22  H    0.224615
    23  H    0.277255
    24  H    0.270601
    25  H    0.220716
    26  N    0.488249
    27  O   -0.460494
    28  O   -0.458166
 Sum of Mulliken charges =  -0.00000

 Dipole moment (field-independent basis, Debye):
    X=              0.0270    Y=              9.3722    Z=              0.0318  Tot=              9.3723
 Quadrupole moment (field-independent basis, Debye-Ang):
   XX=            -95.1245   YY=           -109.9406   ZZ=           -105.5141
   XY=             -1.5289   XZ=            -12.8079   YZ=             -0.6895

 Normal termination of Gaussian 16 at Thu May  6 06:34:39 2021.
