 Gaussian 16, Revision A.03,
 Gaussian 16:  EM64L-G16RevA.03 25-Dec-2016

 -------------
 #p 6-31g* mp2
 -------------

 ------------------------------------------------------
 Input file generated by CHIRIPA (05-May-2021 14:53:11)
 ------------------------------------------------------
 Symbolic Z-matrix:
 Charge =  0 Multiplicity = 1

                         Standard orientation:
 ---------------------------------------------------------------------
 Center     Atomic      Atomic             Coordinates (Angstroms)
 Number     Number       Type             X           Y           Z
 ---------------------------------------------------------------------
      1          6           0       -3.880130    1.025454    0.407872
      2          6           0       -2.359473    1.171851    0.343418
      3          6           0       -1.855657    2.426936    1.056667
      4          1           0       -4.346928    1.914517   -0.037788
      5          1           0       -4.194923    1.001514    1.460358
      6          1           0       -2.047509    1.194117   -0.708627
      7          1           0       -1.896240    0.282250    0.789110
      8          1           0       -2.138463    2.408806    2.114161
      9          1           0       -2.290592    3.325854    0.607914
     10          1           0       -0.766047    2.511800    0.998286
     11          6           0       -4.398984   -0.224503   -0.300736
     12          6           0       -5.919642   -0.370899   -0.236283
     13          6           0       -6.423457   -1.625985   -0.949532
     14          1           0       -4.084192   -0.200562   -1.353223
     15          1           0       -3.932186   -1.113565    0.144923
     16          1           0       -6.382875    0.518702   -0.681974
     17          1           0       -6.231605   -0.393166    0.815762
     18          1           0       -5.988523   -2.524903   -0.500779
     19          1           0       -6.140651   -1.607855   -2.007026
     20          1           0       -7.513067   -1.710849   -0.891151
     21          6           0        0.918640   -1.066222    0.619482
     22          6           0        2.041457   -1.647940    1.217316
     23          6           0        3.329140   -1.238356    0.858624
     24          6           0        3.457872   -0.240041   -0.105785
     25          6           0        2.358742    0.358770   -0.719486
     26          6           0        1.080580   -0.066485   -0.345310
     27          1           0       -0.077966   -1.390483    0.904137
     28          1           0        1.918708   -2.424557    1.966879
     29          1           0        4.215648   -1.671736    1.305507
     30          1           0        2.512889    1.130744   -1.463605
     31          1           0        0.210395    0.387064   -0.811266
     32          7           0        4.816045    0.201863   -0.493713
     33          8           0        4.902623    1.083234   -1.345960
     34          8           0        5.768286   -0.341512    0.061823
 ---------------------------------------------------------------------

 SCF Done:  E(RHF) =  -669.534745309     A.U. after   15 cycles
 E2 =    -0.2092663608D+01 EUMP2 =    -0.67162740891718D+03

 The electronic state is 1-A.
 Alpha  occ. eigenvalues --  -20.60716 -20.60711 -15.85768 -11.31122 -11.27691
 Alpha  occ. eigenvalues --  -11.27670 -11.27406 -11.26706 -11.26610 -11.22916
 Alpha  occ. eigenvalues --  -11.22365 -11.22321 -11.22257 -11.22005 -11.21682
 Alpha  occ. eigenvalues --   -1.59792  -1.39346  -1.19289  -1.09394  -1.08683
 Alpha  occ. eigenvalues --   -1.04704  -1.04433  -0.96840  -0.95526  -0.87854
 Alpha  occ. eigenvalues --   -0.86094  -0.82358  -0.80587  -0.79213  -0.77395
 Alpha  occ. eigenvalues --   -0.71987  -0.71115  -0.70419  -0.66020  -0.64938
 Alpha  occ. eigenvalues --   -0.64726  -0.62098  -0.61839  -0.60173  -0.58448
 Alpha  occ. eigenvalues --   -0.56111  -0.55203  -0.53545  -0.53277  -0.52982
 Alpha  occ. eigenvalues --   -0.52766  -0.50774  -0.48871  -0.48745  -0.48704
 Alpha  occ. eigenvalues --   -0.47596  -0.46714  -0.46633  -0.44754  -0.44686
 Alpha  occ. eigenvalues --   -0.37259  -0.36284
 Alpha virt. eigenvalues --    0.05112   0.11275   0.16563   0.19927   0.22407
 Alpha virt. eigenvalues --    0.23725   0.24287   0.25695   0.26842   0.28070
 Alpha virt. eigenvalues --    0.29250   0.29607   0.30985   0.31514   0.31695

 Mulliken charges:
               1
     1  C   -0.297231
     2  C   -0.308585
     3  C   -0.477813
     4  H    0.153983
     5  H    0.152541
     6  H    0.147817
     7  H    0.146059
     8  H    0.159135
     9  H    0.159557
    10  H    0.163436
    11  C   -0.298610
    12  C   -0.300325
    13  C   -0.476205
    14  H    0.150000
    15  H    0.145504
    16  H    0.154167
    17  H    0.153213
    18  H    0.154864
    19  H    0.156166
    20  H    0.162794
    21  C   -0.175849
    22  C   -0.218500
    23  C   -0.171153
    24  C    0.158751
    25  C   -0.173504
    26  C   -0.222086
    27  H    0.227319
    28  H    0.223034
    29  H    0.275280
    30  H    0.275567
    31  H    0.233868
    32  N    0.488059
    33  O   -0.460581
    34  O   -0.460672
 Sum of Mulliken charges =  -0.00000

 Dipole moment (field-independent basis, Debye):
    X=             -5.0338    Y=             -1.4656    Z=              1.3958  Tot=              5.4255
 Quadrupole moment (field-independent basis, Debye-Ang):
   XX=           -127.0250   YY=            -92.5370   ZZ=            -92.8591
   XY=             -6.4658   XZ=              6.5470   YZ=             -3.4037

 Normal termination of Gaussian 16 at Wed May  5 18:28:02 2021.
