 Gaussian 16, Revision A.03,
 Gaussian 16:  EM64L-G16RevA.03 25-Dec-2016

 -------------
 #p 6-31g* mp2
 -------------

 ------------------------------------------------------
 Input file generated by CHIRIPA (05-May-2021 14:51:14)
 ------------------------------------------------------
 Symbolic Z-matrix:
 Charge =  0 Multiplicity = 1

                         Standard orientation:
 ---------------------------------------------------------------------
 Center     Atomic      Atomic             Coordinates (Angstroms)
 Number     Number       Type             X           Y           Z
 ---------------------------------------------------------------------
      1          6           0       -4.198965    0.045257   -0.065298
      2          6           0       -4.398533    1.538222    0.197787
      3          6           0       -5.863096    1.965649    0.097010
      4          1           0       -4.585973   -0.199538   -1.063920
      5          1           0       -4.800001   -0.529990    0.652505
      6          1           0       -3.796222    2.110469   -0.519409
      7          1           0       -4.010832    1.779529    1.195823
      8          1           0       -6.474378    1.420447    0.823432
      9          1           0       -6.258549    1.753267   -0.901545
     10          1           0       -5.982874    3.036532    0.288641
     11          6           0       -2.740051   -0.397300    0.031854
     12          6           0       -2.540483   -1.890265   -0.231232
     13          6           0       -1.075920   -2.317692   -0.130454
     14          1           0       -2.139015    0.177947   -0.685950
     15          1           0       -2.353043   -0.152505    1.030475
     16          1           0       -2.928185   -2.131572   -1.229267
     17          1           0       -3.142794   -2.462512    0.485965
     18          1           0       -0.680467   -2.105310    0.868101
     19          1           0       -0.464638   -1.772490   -0.856877
     20          1           0       -0.956142   -3.388575   -0.322086
     21          6           0        3.320255    0.896087   -0.189825
     22          6           0        4.419934    1.881287    0.207755
     23          6           0        4.106860    3.317723   -0.212278
     24          1           0        3.175057    0.938051   -1.277990
     25          1           0        2.371470    1.213445    0.264581
     26          1           0        5.366646    1.561390   -0.246138
     27          1           0        4.562662    1.836833    1.295077
     28          1           0        3.176415    3.660660    0.251692
     29          1           0        3.984966    3.383651   -1.298279
     30          1           0        4.906070    4.005227    0.081765
     31          6           0        3.618761   -0.544044    0.223270
     32          6           0        2.519083   -1.529244   -0.174311
     33          6           0        2.832157   -2.965681    0.245723
     34          1           0        4.567546   -0.861403   -0.231137
     35          1           0        3.763958   -0.586008    1.311434
     36          1           0        2.376354   -1.484791   -1.261633
     37          1           0        1.572371   -1.209347    0.279582
     38          1           0        2.954049   -3.031609    1.331723
     39          1           0        3.762601   -3.308616   -0.218248
     40          1           0        2.032945   -3.653184   -0.048321
 ---------------------------------------------------------------------

 SCF Done:  E(RHF) =  -470.732127051     A.U. after   11 cycles
 E2 =    -0.1583412672D+01 EUMP2 =    -0.47231553972313D+03

 The electronic state is 1-A.
 Alpha  occ. eigenvalues --  -11.21612 -11.21592 -11.21562 -11.21419 -11.21404
 Alpha  occ. eigenvalues --  -11.21360 -11.21335 -11.21256 -11.21079 -11.21044
 Alpha  occ. eigenvalues --  -11.21033 -11.20949  -1.08446  -1.08347  -1.03572
 Alpha  occ. eigenvalues --   -1.03417  -0.96035  -0.95863  -0.87021  -0.86918
 Alpha  occ. eigenvalues --   -0.79740  -0.79415  -0.78302  -0.78106  -0.65072
 Alpha  occ. eigenvalues --   -0.64988  -0.60951  -0.60852  -0.59387  -0.59271
 Alpha  occ. eigenvalues --   -0.57714  -0.57418  -0.55292  -0.55182  -0.52768
 Alpha  occ. eigenvalues --   -0.52555  -0.52416  -0.52287  -0.49940  -0.49848
 Alpha  occ. eigenvalues --   -0.48203  -0.47619  -0.46641  -0.46507  -0.45916
 Alpha  occ. eigenvalues --   -0.45746  -0.45644  -0.45380  -0.43810  -0.43672
 Alpha virt. eigenvalues --    0.22125   0.23039   0.23539   0.24825   0.26277
 Alpha virt. eigenvalues --    0.26566   0.26934   0.27188   0.27983   0.29262
 Alpha virt. eigenvalues --    0.30009   0.30541   0.31515   0.31757   0.32600

 Mulliken charges:
               1
     1  C   -0.298168
     2  C   -0.299656
     3  C   -0.475714
     4  H    0.149748
     5  H    0.149568
     6  H    0.152018
     7  H    0.151795
     8  H    0.155185
     9  H    0.155226
    10  H    0.160287
    11  C   -0.298493
    12  C   -0.300548
    13  C   -0.478158
    14  H    0.149701
    15  H    0.148974
    16  H    0.151800
    17  H    0.151611
    18  H    0.155484
    19  H    0.161062
    20  H    0.159658
    21  C   -0.298278
    22  C   -0.299480
    23  C   -0.475666
    24  H    0.149071
    25  H    0.149340
    26  H    0.151883
    27  H    0.151820
    28  H    0.155104
    29  H    0.154990
    30  H    0.160112
    31  C   -0.297595
    32  C   -0.303547
    33  C   -0.477500
    34  H    0.148703
    35  H    0.148935
    36  H    0.149700
    37  H    0.159607
    38  H    0.154128
    39  H    0.154330
    40  H    0.162959
 Sum of Mulliken charges =  -0.00000

 Dipole moment (field-independent basis, Debye):
    X=             -0.0463    Y=             -0.0147    Z=             -0.0056  Tot=              0.0489
 Quadrupole moment (field-independent basis, Debye-Ang):
   XX=            -85.9090   YY=            -86.1735   ZZ=            -83.0241
   XY=              0.5083   XZ=             -0.5892   YZ=              0.2414

 Normal termination of Gaussian 16 at Wed May  5 23:16:40 2021.
