 Gaussian 16, Revision A.03,
 Gaussian 16:  EM64L-G16RevA.03 25-Dec-2016

 -------------
 #p 6-31g* mp2
 -------------

 ------------------------------------------------------
 Input file generated by CHIRIPA (05-May-2021 14:51:13)
 ------------------------------------------------------
 Symbolic Z-matrix:
 Charge =  0 Multiplicity = 1

                         Standard orientation:
 ---------------------------------------------------------------------
 Center     Atomic      Atomic             Coordinates (Angstroms)
 Number     Number       Type             X           Y           Z
 ---------------------------------------------------------------------
      1          6           0        4.290252    0.229209   -0.288751
      2          6           0        4.982905   -0.841724    0.554647
      3          6           0        6.212525   -1.433558   -0.134964
      4          1           0        3.997158   -0.206021   -1.253953
      5          1           0        5.007774    1.030815   -0.512325
      6          1           0        4.263904   -1.640402    0.777727
      7          1           0        5.274214   -0.403944    1.518028
      8          1           0        6.950766   -0.652377   -0.343189
      9          1           0        5.934715   -1.895860   -1.087696
     10          1           0        6.692231   -2.196987    0.485454
     11          6           0        3.059233    0.830343    0.387237
     12          6           0        2.366580    1.901275   -0.456161
     13          6           0        1.136961    2.493109    0.233449
     14          1           0        2.341711    0.028737    0.610810
     15          1           0        3.352328    1.265573    1.352439
     16          1           0        2.075272    1.463496   -1.419543
     17          1           0        3.085582    2.699954   -0.679242
     18          1           0        1.414770    2.955412    1.186182
     19          1           0        0.398720    1.711928    0.441674
     20          1           0        0.657254    3.256539   -0.386968
     21          6           0       -3.129386   -1.044656    0.095382
     22          6           0       -1.755714   -0.639705   -0.440365
     23          6           0       -0.675177   -1.679871   -0.143231
     24          1           0       -3.060376   -1.204161    1.180159
     25          1           0       -3.417017   -2.009514   -0.344747
     26          1           0       -1.471373    0.324771   -0.000420
     27          1           0       -1.828045   -0.480960   -1.523962
     28          1           0       -0.932526   -2.642842   -0.596067
     29          1           0       -0.573828   -1.832533    0.936132
     30          1           0        0.298728   -1.370211   -0.534994
     31          6           0       -4.220100   -0.014895   -0.193867
     32          6           0       -5.593772   -0.419846    0.341879
     33          6           0       -6.674309    0.620320    0.044745
     34          1           0       -3.932469    0.949963    0.246260
     35          1           0       -4.289109    0.144609   -1.278644
     36          1           0       -5.521440   -0.578592    1.425477
     37          1           0       -5.878113   -1.384323   -0.098065
     38          1           0       -6.775658    0.772981   -1.034618
     39          1           0       -6.416959    1.583290    0.497582
     40          1           0       -7.648213    0.310658    0.436509
 ---------------------------------------------------------------------

 SCF Done:  E(RHF) =  -470.733165764     A.U. after   11 cycles
 E2 =    -0.1583223820D+01 EUMP2 =    -0.47231638958439D+03

 The electronic state is 1-A.
 Alpha  occ. eigenvalues --  -11.21640 -11.21610 -11.21588 -11.21581 -11.21427
 Alpha  occ. eigenvalues --  -11.21383 -11.21365 -11.21321 -11.21158 -11.21075
 Alpha  occ. eigenvalues --  -11.21054 -11.21037  -1.08463  -1.08408  -1.03583
 Alpha  occ. eigenvalues --   -1.03497  -0.96020  -0.95960  -0.87047  -0.86968
 Alpha  occ. eigenvalues --   -0.79653  -0.79555  -0.78275  -0.78219  -0.65154
 Alpha  occ. eigenvalues --   -0.65004  -0.61112  -0.60807  -0.59392  -0.59300
 Alpha  occ. eigenvalues --   -0.57636  -0.57557  -0.55349  -0.55218  -0.52723
 Alpha  occ. eigenvalues --   -0.52656  -0.52455  -0.52379  -0.50068  -0.49835
 Alpha  occ. eigenvalues --   -0.47976  -0.47854  -0.46776  -0.46480  -0.45827
 Alpha  occ. eigenvalues --   -0.45774  -0.45729  -0.45588  -0.43808  -0.43765
 Alpha virt. eigenvalues --    0.20131   0.22996   0.23686   0.25193   0.25984
 Alpha virt. eigenvalues --    0.26291   0.27029   0.27388   0.28326   0.29110
 Alpha virt. eigenvalues --    0.30577   0.31453   0.31723   0.31745   0.32122

 Mulliken charges:
               1
     1  C   -0.298166
     2  C   -0.299746
     3  C   -0.475688
     4  H    0.149281
     5  H    0.149519
     6  H    0.152306
     7  H    0.151865
     8  H    0.155095
     9  H    0.155178
    10  H    0.160239
    11  C   -0.302855
    12  C   -0.299050
    13  C   -0.482742
    14  H    0.153754
    15  H    0.149587
    16  H    0.151749
    17  H    0.151965
    18  H    0.154907
    19  H    0.162143
    20  H    0.160155
    21  C   -0.297679
    22  C   -0.306292
    23  C   -0.479204
    24  H    0.149722
    25  H    0.149559
    26  H    0.157889
    27  H    0.152257
    28  H    0.155810
    29  H    0.155472
    30  H    0.162490
    31  C   -0.298498
    32  C   -0.299686
    33  C   -0.475746
    34  H    0.150010
    35  H    0.149703
    36  H    0.152003
    37  H    0.151899
    38  H    0.155182
    39  H    0.155332
    40  H    0.160279
 Sum of Mulliken charges =  -0.00000

 Dipole moment (field-independent basis, Debye):
    X=             -0.0279    Y=             -0.0092    Z=              0.0038  Tot=              0.0296
 Quadrupole moment (field-independent basis, Debye-Ang):
   XX=            -86.0453   YY=            -84.7841   ZZ=            -83.9555
   XY=              1.5514   XZ=              0.6688   YZ=              0.6403

 Normal termination of Gaussian 16 at Thu May  6 07:08:11 2021.
