 Gaussian 16, Revision A.03,
 Gaussian 16:  EM64L-G16RevA.03 25-Dec-2016

 -------------
 #p 6-31g* mp2
 -------------

 ------------------------------------------------------
 Input file generated by CHIRIPA (05-May-2021 14:51:08)
 ------------------------------------------------------
 Symbolic Z-matrix:
 Charge =  0 Multiplicity = 1

                         Standard orientation:
 ---------------------------------------------------------------------
 Center     Atomic      Atomic             Coordinates (Angstroms)
 Number     Number       Type             X           Y           Z
 ---------------------------------------------------------------------
      1          6           0        2.196058   -0.400770    0.834138
      2          6           0        1.734789    0.473092    2.001005
      3          6           0        0.559389   -0.135266    2.766597
      4          1           0        1.352929   -0.560240    0.148100
      5          1           0        2.479533   -1.391140    1.216505
      6          1           0        1.453579    1.461966    1.616732
      7          1           0        2.579164    0.630658    2.684246
      8          1           0        0.831724   -1.112940    3.177191
      9          1           0       -0.300256   -0.276909    2.103612
     10          1           0        0.245850    0.505799    3.596409
     11          6           0        3.370446    0.194052    0.059072
     12          6           0        3.831716   -0.679811   -1.107796
     13          6           0        5.007116   -0.071453   -1.873387
     14          1           0        3.086971    1.184421   -0.323296
     15          1           0        4.213575    0.353521    0.745110
     16          1           0        2.987340   -0.837377   -1.791037
     17          1           0        4.112925   -1.668685   -0.723523
     18          1           0        5.866761    0.070190   -1.210402
     19          1           0        4.734780    0.906221   -2.283981
     20          1           0        5.320654   -0.712518   -2.703200
     21          6           0       -2.323713    0.712573   -0.413218
     22          6           0       -3.064797    2.040549   -0.572147
     23          6           0       -2.131967    3.250037   -0.503138
     24          1           0       -1.789164    0.710859    0.546574
     25          1           0       -1.558298    0.631675   -1.197431
     26          1           0       -3.829514    2.118299    0.211292
     27          1           0       -3.597798    2.039026   -1.531586
     28          1           0       -1.376722    3.199677   -1.294133
     29          1           0       -1.609755    3.279401    0.458649
     30          1           0       -2.682547    4.188806   -0.619037
     31          6           0       -3.242791   -0.505854   -0.479992
     32          6           0       -2.501708   -1.833831   -0.321063
     33          6           0       -3.434538   -3.043318   -0.390070
     34          1           0       -4.008207   -0.424956    0.304221
     35          1           0       -3.777340   -0.504140   -1.439783
     36          1           0       -1.968706   -1.832306    0.638376
     37          1           0       -1.736990   -1.911579   -1.104502
     38          1           0       -3.956749   -3.072681   -1.351858
     39          1           0       -4.189782   -2.992958    0.400923
     40          1           0       -2.883957   -3.982088   -0.274172
 ---------------------------------------------------------------------

 SCF Done:  E(RHF) =  -470.733253140     A.U. after   11 cycles
 E2 =    -0.1583612957D+01 EUMP2 =    -0.47231686609705D+03

 The electronic state is 1-A.
 Alpha  occ. eigenvalues --  -11.21649 -11.21634 -11.21586 -11.21585 -11.21452
 Alpha  occ. eigenvalues --  -11.21392 -11.21370 -11.21308 -11.21120 -11.21089
 Alpha  occ. eigenvalues --  -11.21063 -11.21060  -1.08487  -1.08399  -1.03567
 Alpha  occ. eigenvalues --   -1.03518  -0.96025  -0.95964  -0.87036  -0.86986
 Alpha  occ. eigenvalues --   -0.79635  -0.79585  -0.78346  -0.78169  -0.65187
 Alpha  occ. eigenvalues --   -0.64979  -0.60972  -0.60914  -0.59393  -0.59326
 Alpha  occ. eigenvalues --   -0.57648  -0.57563  -0.55410  -0.55171  -0.52714
 Alpha  occ. eigenvalues --   -0.52665  -0.52451  -0.52391  -0.50026  -0.49874
 Alpha  occ. eigenvalues --   -0.47969  -0.47922  -0.46714  -0.46663  -0.46008
 Alpha  occ. eigenvalues --   -0.45749  -0.45693  -0.45349  -0.43824  -0.43767
 Alpha virt. eigenvalues --    0.20396   0.23223   0.23824   0.23939   0.25548
 Alpha virt. eigenvalues --    0.25932   0.26872   0.28058   0.28463   0.29607
 Alpha virt. eigenvalues --    0.30560   0.31453   0.31708   0.31836   0.32216

 Mulliken charges:
               1
     1  C   -0.299873
     2  C   -0.299313
     3  C   -0.485238
     4  H    0.151991
     5  H    0.149201
     6  H    0.152236
     7  H    0.151946
     8  H    0.155382
     9  H    0.163467
    10  H    0.159685
    11  C   -0.298390
    12  C   -0.299534
    13  C   -0.475688
    14  H    0.149683
    15  H    0.149502
    16  H    0.151657
    17  H    0.151904
    18  H    0.155194
    19  H    0.155135
    20  H    0.160131
    21  C   -0.306565
    22  C   -0.299084
    23  C   -0.476068
    24  H    0.157285
    25  H    0.149027
    26  H    0.152278
    27  H    0.152181
    28  H    0.154856
    29  H    0.155381
    30  H    0.160618
    31  C   -0.297875
    32  C   -0.304236
    33  C   -0.475623
    34  H    0.149709
    35  H    0.149870
    36  H    0.156105
    37  H    0.151824
    38  H    0.155239
    39  H    0.155391
    40  H    0.160610
 Sum of Mulliken charges =  -0.00000

 Dipole moment (field-independent basis, Debye):
    X=             -0.0295    Y=             -0.0036    Z=             -0.0040  Tot=              0.0300
 Quadrupole moment (field-independent basis, Debye-Ang):
   XX=            -85.3154   YY=            -85.5615   ZZ=            -83.8595
   XY=             -1.1136   XZ=              0.7918   YZ=             -0.0877

 Normal termination of Gaussian 16 at Thu May  6 14:51:35 2021.
