 Gaussian 16, Revision A.03,
 Gaussian 16:  EM64L-G16RevA.03 25-Dec-2016

 -------------
 #p 6-31g* mp2
 -------------

 ------------------------------------------------------
 Input file generated by CHIRIPA (05-May-2021 14:55:19)
 ------------------------------------------------------
 Symbolic Z-matrix:
 Charge =  0 Multiplicity = 1

                         Standard orientation:
 ---------------------------------------------------------------------
 Center     Atomic      Atomic             Coordinates (Angstroms)
 Number     Number       Type             X           Y           Z
 ---------------------------------------------------------------------
      1          6           0        0.446066    0.023722    0.628626
      2          6           0        1.398246   -0.015570    1.652507
      3          6           0        2.761670   -0.087524    1.351768
      4          6           0        3.139321   -0.118629    0.010238
      5          6           0        2.214631   -0.080899   -1.032267
      6          6           0        0.856574   -0.009010   -0.708136
      7          1           0       -0.610990    0.079593    0.871333
      8          1           0        1.082339    0.009711    2.691549
      9          1           0        3.519985   -0.119194    2.124668
     10          1           0        2.560093   -0.107569   -2.058601
     11          1           0        0.119317    0.021373   -1.505365
     12          7           0        4.579876   -0.194769   -0.320523
     13          8           0        4.886793   -0.220933   -1.510378
     14          8           0        5.374790   -0.226842    0.616344
     15          6           0       -3.518321   -0.595998    0.014436
     16          6           0       -4.673865   -1.569680   -0.219328
     17          6           0       -4.265906   -3.029810   -0.020877
     18          1           0       -2.694342   -0.844052   -0.668552
     19          1           0       -3.131882   -0.734421    1.033700
     20          1           0       -5.058911   -1.428503   -1.237377
     21          1           0       -5.495263   -1.319159    0.464164
     22          1           0       -3.901334   -3.192807    0.998495
     23          1           0       -3.462503   -3.302772   -0.712714
     24          1           0       -5.107029   -3.708605   -0.192959
     25          6           0       -3.910542    0.867563   -0.180199
     26          6           0       -2.754998    1.841246    0.053565
     27          6           0       -3.162958    3.301376   -0.144885
     28          1           0       -4.296981    1.005986   -1.199463
     29          1           0       -4.734521    1.115617    0.502789
     30          1           0       -1.933600    1.590723   -0.629927
     31          1           0       -2.369953    1.700068    1.071614
     32          1           0       -3.966360    3.574337    0.546951
     33          1           0       -3.527529    3.464372   -1.164258
     34          1           0       -2.321835    3.980169    0.027196
 ---------------------------------------------------------------------

 SCF Done:  E(RHF) =  -669.534305614     A.U. after   15 cycles
 E2 =    -0.2093336767D+01 EUMP2 =    -0.67162764238169D+03

 The electronic state is 1-A.
 Alpha  occ. eigenvalues --  -20.60672 -20.60667 -15.85727 -11.31055 -11.27650
 Alpha  occ. eigenvalues --  -11.27641 -11.27223 -11.26621 -11.26600 -11.22920
 Alpha  occ. eigenvalues --  -11.22719 -11.22565 -11.22530 -11.22031 -11.21873
 Alpha  occ. eigenvalues --   -1.59749  -1.39304  -1.19229  -1.09638  -1.08609
 Alpha  occ. eigenvalues --   -1.04642  -1.04588  -0.97010  -0.95461  -0.88026
 Alpha  occ. eigenvalues --   -0.86035  -0.82323  -0.80705  -0.79523  -0.77362
 Alpha  occ. eigenvalues --   -0.71944  -0.71074  -0.70293  -0.66268  -0.64871
 Alpha  occ. eigenvalues --   -0.64649  -0.62055  -0.61924  -0.60391  -0.58650
 Alpha  occ. eigenvalues --   -0.56284  -0.55175  -0.53628  -0.53443  -0.52947
 Alpha  occ. eigenvalues --   -0.52730  -0.50950  -0.48975  -0.48706  -0.48701
 Alpha  occ. eigenvalues --   -0.47729  -0.46925  -0.46877  -0.44873  -0.44718
 Alpha  occ. eigenvalues --   -0.37159  -0.36253
 Alpha virt. eigenvalues --    0.05175   0.11311   0.16640   0.19489   0.22507
 Alpha virt. eigenvalues --    0.23404   0.23494   0.25427   0.26948   0.28158
 Alpha virt. eigenvalues --    0.29949   0.30526   0.30912   0.31109   0.31621

 Mulliken charges:
               1
     1  C   -0.172998
     2  C   -0.222846
     3  C   -0.170274
     4  C    0.157529
     5  C   -0.170700
     6  C   -0.226181
     7  H    0.242025
     8  H    0.222593
     9  H    0.274996
    10  H    0.274972
    11  H    0.222540
    12  N    0.488100
    13  O   -0.460987
    14  O   -0.460879
    15  C   -0.304849
    16  C   -0.299761
    17  C   -0.476665
    18  H    0.145574
    19  H    0.145839
    20  H    0.155025
    21  H    0.155215
    22  H    0.155596
    23  H    0.156180
    24  H    0.164131
    25  C   -0.296972
    26  C   -0.308267
    27  C   -0.475438
    28  H    0.153593
    29  H    0.154242
    30  H    0.149987
    31  H    0.147481
    32  H    0.158372
    33  H    0.158330
    34  H    0.164497
 Sum of Mulliken charges =  -0.00000

 Dipole moment (field-independent basis, Debye):
    X=             -5.4258    Y=              0.3172    Z=              1.1459  Tot=              5.5546
 Quadrupole moment (field-independent basis, Debye-Ang):
   XX=           -125.9112   YY=            -96.2380   ZZ=            -89.0699
   XY=              1.5267   XZ=              4.7354   YZ=              0.0178

 Normal termination of Gaussian 16 at Wed May  5 17:21:01 2021.
