 Gaussian 16, Revision A.03,
 Gaussian 16:  EM64L-G16RevA.03 25-Dec-2016

 -------------
 #p 6-31g* mp2
 -------------

 ------------------------------------------------------
 Input file generated by CHIRIPA (05-May-2021 14:51:12)
 ------------------------------------------------------
 Symbolic Z-matrix:
 Charge =  0 Multiplicity = 1

                         Standard orientation:
 ---------------------------------------------------------------------
 Center     Atomic      Atomic             Coordinates (Angstroms)
 Number     Number       Type             X           Y           Z
 ---------------------------------------------------------------------
      1          6           0       -3.552142   -0.545083    0.518831
      2          6           0       -2.201358   -0.013272    0.038681
      3          6           0       -1.030197   -0.537771    0.869991
      4          1           0       -3.694917   -0.267448    1.572149
      5          1           0       -3.539350   -1.643272    0.484018
      6          1           0       -2.217176    1.083625    0.073078
      7          1           0       -2.061867   -0.292040   -1.013672
      8          1           0       -0.986042   -1.630829    0.826686
      9          1           0       -1.142234   -0.247348    1.919611
     10          1           0       -0.074323   -0.145073    0.509500
     11          6           0       -4.732719   -0.029662   -0.302333
     12          6           0       -6.083503   -0.561473    0.177818
     13          6           0       -7.254664   -0.036974   -0.653492
     14          1           0       -4.745511    1.068527   -0.267519
     15          1           0       -4.589944   -0.307296   -1.355651
     16          1           0       -6.222994   -0.282705    1.230171
     17          1           0       -6.067684   -1.658369    0.143420
     18          1           0       -7.142627   -0.327397   -1.703113
     19          1           0       -7.298819    1.056084   -0.610188
     20          1           0       -8.210538   -0.429671   -0.293002
     21          6           0        4.230210   -0.434119   -0.343147
     22          6           0        5.530290   -1.075983    0.142433
     23          6           0        5.691522   -2.519325   -0.335648
     24          1           0        3.379333   -1.034836    0.006271
     25          1           0        4.203104   -0.462823   -1.441253
     26          1           0        5.555567   -1.044832    1.239249
     27          1           0        6.378163   -0.473562   -0.208020
     28          1           0        5.692259   -2.565020   -1.429500
     29          1           0        4.864989   -3.139536    0.025992
     30          1           0        6.627556   -2.958812    0.022898
     31          6           0        4.054652    1.008864    0.126648
     32          6           0        2.754571    1.650728   -0.358931
     33          6           0        2.593338    3.094070    0.119149
     34          1           0        4.081757    1.037567    1.224754
     35          1           0        4.905528    1.609582   -0.222769
     36          1           0        1.906698    1.048306   -0.008478
     37          1           0        2.729294    1.619576   -1.455747
     38          1           0        3.419871    3.714281   -0.242491
     39          1           0        2.592602    3.139764    1.213001
     40          1           0        1.657306    3.533556   -0.239396
 ---------------------------------------------------------------------

 SCF Done:  E(RHF) =  -470.733376045     A.U. after   11 cycles
 E2 =    -0.1582451865D+01 EUMP2 =    -0.47231582790988D+03

 The electronic state is 1-A.
 Alpha  occ. eigenvalues --  -11.21615 -11.21606 -11.21600 -11.21589 -11.21413
 Alpha  occ. eigenvalues --  -11.21396 -11.21353 -11.21336 -11.21092 -11.21074
 Alpha  occ. eigenvalues --  -11.21072 -11.21058  -1.08441  -1.08422  -1.03549
 Alpha  occ. eigenvalues --   -1.03517  -0.95997  -0.95968  -0.87022  -0.86978
 Alpha  occ. eigenvalues --   -0.79634  -0.79562  -0.78252  -0.78237  -0.65070
 Alpha  occ. eigenvalues --   -0.65061  -0.60958  -0.60928  -0.59446  -0.59261
 Alpha  occ. eigenvalues --   -0.57650  -0.57535  -0.55281  -0.55252  -0.52748
 Alpha  occ. eigenvalues --   -0.52644  -0.52439  -0.52373  -0.49934  -0.49906
 Alpha  occ. eigenvalues --   -0.48017  -0.47825  -0.46637  -0.46606  -0.45804
 Alpha  occ. eigenvalues --   -0.45767  -0.45716  -0.45698  -0.43797  -0.43733
 Alpha virt. eigenvalues --    0.21432   0.23024   0.23665   0.24752   0.25888
 Alpha virt. eigenvalues --    0.26647   0.27081   0.27500   0.28010   0.28727
 Alpha virt. eigenvalues --    0.30506   0.31390   0.31661   0.31814   0.32079

 Mulliken charges:
               1
     1  C   -0.298570
     2  C   -0.298616
     3  C   -0.484989
     4  H    0.149637
     5  H    0.149551
     6  H    0.152020
     7  H    0.152191
     8  H    0.155311
     9  H    0.155186
    10  H    0.167971
    11  C   -0.298257
    12  C   -0.299658
    13  C   -0.475713
    14  H    0.149559
    15  H    0.149703
    16  H    0.151943
    17  H    0.151936
    18  H    0.155198
    19  H    0.155200
    20  H    0.160268
    21  C   -0.298804
    22  C   -0.299646
    23  C   -0.475740
    24  H    0.150044
    25  H    0.149429
    26  H    0.152040
    27  H    0.151906
    28  H    0.155099
    29  H    0.155339
    30  H    0.160205
    31  C   -0.297458
    32  C   -0.309760
    33  C   -0.475055
    34  H    0.149616
    35  H    0.149686
    36  H    0.160564
    37  H    0.152015
    38  H    0.155252
    39  H    0.155230
    40  H    0.160165
 Sum of Mulliken charges =  -0.00000

 Dipole moment (field-independent basis, Debye):
    X=             -0.0022    Y=              0.0013    Z=             -0.0011  Tot=              0.0028
 Quadrupole moment (field-independent basis, Debye-Ang):
   XX=            -85.5282   YY=            -85.2267   ZZ=            -83.9976
   XY=              0.6343   XZ=             -0.8572   YZ=              0.1096

 Normal termination of Gaussian 16 at Wed May  5 19:53:01 2021.
