 Gaussian 16, Revision A.03,
 Gaussian 16:  EM64L-G16RevA.03 25-Dec-2016

 -------------
 #p 6-31g* mp2
 -------------

 ------------------------------------------------------
 Input file generated by CHIRIPA (05-May-2021 14:51:10)
 ------------------------------------------------------
 Symbolic Z-matrix:
 Charge =  0 Multiplicity = 1

                         Standard orientation:
 ---------------------------------------------------------------------
 Center     Atomic      Atomic             Coordinates (Angstroms)
 Number     Number       Type             X           Y           Z
 ---------------------------------------------------------------------
      1          6           0       -4.204553   -0.440329    0.014343
      2          6           0       -4.890765    0.925760    0.044351
      3          6           0       -6.409118    0.821509    0.191084
      4          1           0       -4.614852   -1.031507   -0.815783
      5          1           0       -4.448143   -0.985584    0.936707
      6          1           0       -4.644828    1.468826   -0.877175
      7          1           0       -4.478648    1.513825    0.874384
      8          1           0       -6.671784    0.302551    1.118603
      9          1           0       -6.838909    0.257296   -0.642909
     10          1           0       -6.879379    1.809610    0.210316
     11          6           0       -2.686450   -0.352623   -0.131942
     12          6           0       -2.000238   -1.718712   -0.161950
     13          6           0       -0.481886   -1.614461   -0.308683
     14          1           0       -2.442860    0.192631   -1.054306
     15          1           0       -2.276151    0.238555    0.698184
     16          1           0       -2.412355   -2.306777   -0.991983
     17          1           0       -2.246175   -2.261778    0.759576
     18          1           0       -0.052094   -1.050248    0.525310
     19          1           0       -0.219219   -1.095503   -1.236201
     20          1           0       -0.011624   -2.602563   -0.327914
     21          6           0        3.323584   -0.287756    0.375650
     22          6           0        4.100462   -1.416944   -0.302127
     23          6           0        3.846155   -2.779629    0.343016
     24          1           0        3.598384   -0.248801    1.438623
     25          1           0        2.249650   -0.517305    0.338648
     26          1           0        5.172511   -1.184666   -0.265082
     27          1           0        3.823923   -1.453092   -1.363652
     28          1           0        2.783271   -3.037248    0.292901
     29          1           0        4.139522   -2.767297    1.397713
     30          1           0        4.411314   -3.572321   -0.157077
     31          6           0        3.567419    1.080708   -0.258051
     32          6           0        2.790541    2.209896    0.419726
     33          6           0        3.044849    3.572581   -0.225418
     34          1           0        4.641352    1.310258   -0.221049
     35          1           0        3.292619    1.041753   -1.321024
     36          1           0        3.067080    2.246044    1.481251
     37          1           0        1.718491    1.977618    0.382681
     38          1           0        2.751481    3.560250   -1.280114
     39          1           0        4.107732    3.830200   -0.175302
     40          1           0        2.479689    4.365274    0.274676
 ---------------------------------------------------------------------

 SCF Done:  E(RHF) =  -470.733047179     A.U. after   11 cycles
 E2 =    -0.1583163015D+01 EUMP2 =    -0.47231621019408D+03

 The electronic state is 1-A.
 Alpha  occ. eigenvalues --  -11.21682 -11.21636 -11.21548 -11.21501 -11.21464
 Alpha  occ. eigenvalues --  -11.21401 -11.21300 -11.21199 -11.21193 -11.21097
 Alpha  occ. eigenvalues --  -11.21032 -11.20985  -1.08492  -1.08335  -1.03601
 Alpha  occ. eigenvalues --   -1.03450  -0.96059  -0.95897  -0.87085  -0.86913
 Alpha  occ. eigenvalues --   -0.79695  -0.79501  -0.78321  -0.78124  -0.65128
 Alpha  occ. eigenvalues --   -0.64966  -0.61002  -0.60851  -0.59429  -0.59258
 Alpha  occ. eigenvalues --   -0.57714  -0.57478  -0.55370  -0.55172  -0.52762
 Alpha  occ. eigenvalues --   -0.52611  -0.52550  -0.52262  -0.50034  -0.49821
 Alpha  occ. eigenvalues --   -0.48014  -0.47827  -0.46741  -0.46532  -0.45962
 Alpha  occ. eigenvalues --   -0.45771  -0.45675  -0.45360  -0.43831  -0.43696
 Alpha virt. eigenvalues --    0.21325   0.22932   0.23864   0.24382   0.25582
 Alpha virt. eigenvalues --    0.26607   0.26913   0.27265   0.27897   0.29480
 Alpha virt. eigenvalues --    0.30044   0.31320   0.31735   0.31947   0.32171

 Mulliken charges:
               1
     1  C   -0.298314
     2  C   -0.299708
     3  C   -0.475750
     4  H    0.149787
     5  H    0.149738
     6  H    0.151968
     7  H    0.152078
     8  H    0.155270
     9  H    0.155226
    10  H    0.160398
    11  C   -0.298638
    12  C   -0.300120
    13  C   -0.480481
    14  H    0.149467
    15  H    0.149844
    16  H    0.152259
    17  H    0.152532
    18  H    0.157845
    19  H    0.155277
    20  H    0.162229
    21  C   -0.309299
    22  C   -0.298331
    23  C   -0.478309
    24  H    0.148231
    25  H    0.163243
    26  H    0.151290
    27  H    0.151519
    28  H    0.157562
    29  H    0.154714
    30  H    0.159660
    31  C   -0.297335
    32  C   -0.300095
    33  C   -0.475550
    34  H    0.149041
    35  H    0.149121
    36  H    0.151569
    37  H    0.151940
    38  H    0.155037
    39  H    0.155122
    40  H    0.159965
 Sum of Mulliken charges =  -0.00000

 Dipole moment (field-independent basis, Debye):
    X=             -0.0750    Y=             -0.0164    Z=             -0.0004  Tot=              0.0768
 Quadrupole moment (field-independent basis, Debye-Ang):
   XX=            -85.6179   YY=            -85.9554   ZZ=            -83.4701
   XY=              0.1660   XZ=              0.7257   YZ=              0.4956

 Normal termination of Gaussian 16 at Wed May  5 16:42:43 2021.
