 Gaussian 16, Revision A.03,
 Gaussian 16:  EM64L-G16RevA.03 25-Dec-2016

 -------------
 #p 6-31g* mp2
 -------------

 ------------------------------------------------------
 Input file generated by CHIRIPA (05-May-2021 14:57:23)
 ------------------------------------------------------
 Symbolic Z-matrix:
 Charge =  0 Multiplicity = 1

                         Standard orientation:
 ---------------------------------------------------------------------
 Center     Atomic      Atomic             Coordinates (Angstroms)
 Number     Number       Type             X           Y           Z
 ---------------------------------------------------------------------
      1          6           0        4.971187    1.565013    0.198134
      2          6           0        3.663380    1.877151   -0.187521
      3          6           0        2.717899    0.864670   -0.375925
      4          6           0        3.116285   -0.455091   -0.169024
      5          6           0        4.411621   -0.798019    0.215418
      6          6           0        5.340483    0.230776    0.398021
      7          1           0        5.699205    2.357869    0.342238
      8          1           0        3.373764    2.912452   -0.343472
      9          1           0        1.698674    1.078137   -0.674305
     10          1           0        4.670651   -1.839386    0.363326
     11          1           0        6.355435   -0.014588    0.697544
     12          7           0        2.124144   -1.535595   -0.365408
     13          8           0        2.500175   -2.690432   -0.176752
     14          8           0        0.989259   -1.207199   -0.704272
     15          6           0       -4.124680   -2.099971    0.182059
     16          6           0       -4.912482   -1.087581   -0.375576
     17          6           0       -4.454476    0.232967   -0.406132
     18          6           0       -3.198122    0.506809    0.132269
     19          6           0       -2.389811   -0.479873    0.694745
     20          6           0       -2.868075   -1.793426    0.714501
     21          1           0       -4.488338   -3.123087    0.201601
     22          1           0       -5.888782   -1.322727   -0.789809
     23          1           0       -5.043714    1.036127   -0.831751
     24          1           0       -1.420843   -0.214696    1.099960
     25          1           0       -2.254093   -2.577629    1.148204
     26          7           0       -2.702530    1.901112    0.105637
     27          8           0       -1.592087    2.116387    0.586482
     28          8           0       -3.433910    2.752289   -0.395577
 ---------------------------------------------------------------------

 SCF Done:  E(RHF) =  -868.340736936     A.U. after   16 cycles
 E2 =    -0.2598440604D+01 EUMP2 =    -0.87093917753984D+03

 The electronic state is 1-A.
 Alpha  occ. eigenvalues --  -20.60995 -20.60968 -20.60406 -20.60374 -15.86008
 Alpha  occ. eigenvalues --  -15.85428 -11.31050 -11.30423 -11.27643 -11.27494
 Alpha  occ. eigenvalues --  -11.27307 -11.27036 -11.26878 -11.26691 -11.26595
 Alpha  occ. eigenvalues --  -11.26472 -11.25996 -11.25821  -1.60059  -1.59464
 Alpha  occ. eigenvalues --   -1.39617  -1.39028  -1.19207  -1.18580  -1.08672
 Alpha  occ. eigenvalues --   -1.08057  -1.04548  -1.03917  -0.95552  -0.94945
 Alpha  occ. eigenvalues --   -0.85969  -0.85351  -0.82388  -0.81788  -0.77463
 Alpha  occ. eigenvalues --   -0.76859  -0.72245  -0.71669  -0.71370  -0.70767
 Alpha  occ. eigenvalues --   -0.70312  -0.69708  -0.64860  -0.64546  -0.64242
 Alpha  occ. eigenvalues --   -0.63931  -0.61881  -0.61269  -0.55087  -0.54484
 Alpha  occ. eigenvalues --   -0.52917  -0.52627  -0.52275  -0.52017  -0.49003
 Alpha  occ. eigenvalues --   -0.48974  -0.48425  -0.48386  -0.45090  -0.44515
 Alpha  occ. eigenvalues --   -0.37197  -0.36571  -0.36138  -0.35474
 Alpha virt. eigenvalues --    0.04986   0.05648   0.11509   0.12157   0.16543
 Alpha virt. eigenvalues --    0.17190   0.21624   0.22285   0.27517   0.28012
 Alpha virt. eigenvalues --    0.28490   0.29238   0.31142   0.31743   0.32442

 Mulliken charges:
               1
     1  C   -0.170195
     2  C   -0.219262
     3  C   -0.171467
     4  C    0.155527
     5  C   -0.171518
     6  C   -0.219173
     7  H    0.226039
     8  H    0.229118
     9  H    0.285253
    10  H    0.273512
    11  H    0.222505
    12  N    0.488374
    13  O   -0.462064
    14  O   -0.465635
    15  C   -0.170640
    16  C   -0.219372
    17  C   -0.172005
    18  C    0.154964
    19  C   -0.159566
    20  C   -0.215591
    21  H    0.224232
    22  H    0.220296
    23  H    0.272029
    24  H    0.277172
    25  H    0.228789
    26  N    0.489209
    27  O   -0.467987
    28  O   -0.462541
 Sum of Mulliken charges =  -0.00000

 Dipole moment (field-independent basis, Debye):
    X=              1.9242    Y=             -1.1278    Z=              0.7905  Tot=              2.3663
 Quadrupole moment (field-independent basis, Debye-Ang):
   XX=            -67.2199   YY=           -111.4081   ZZ=           -105.2907
   XY=             22.1796   XZ=              4.1588   YZ=             -3.4225

 Normal termination of Gaussian 16 at Wed May  5 16:18:19 2021.
