 Gaussian 16, Revision A.03,
 Gaussian 16:  EM64L-G16RevA.03 25-Dec-2016

 -------------
 #p 6-31g* mp2
 -------------

 ------------------------------------------------------
 Input file generated by CHIRIPA (05-May-2021 14:55:22)
 ------------------------------------------------------
 Symbolic Z-matrix:
 Charge =  0 Multiplicity = 1

                         Standard orientation:
 ---------------------------------------------------------------------
 Center     Atomic      Atomic             Coordinates (Angstroms)
 Number     Number       Type             X           Y           Z
 ---------------------------------------------------------------------
      1          6           0       -1.338205   -2.368768   -0.213067
      2          6           0       -2.710141   -2.603786   -0.074938
      3          6           0       -3.605142   -1.536156    0.042051
      4          6           0       -3.091433   -0.240486    0.016917
      5          6           0       -1.729940    0.026040   -0.119428
      6          6           0       -0.853338   -1.056918   -0.234832
      7          1           0       -0.650093   -3.204082   -0.303331
      8          1           0       -3.089527   -3.621536   -0.057715
      9          1           0       -4.672014   -1.689535    0.150113
     10          1           0       -1.381594    1.051654   -0.133235
     11          1           0        0.211626   -0.871406   -0.341987
     12          7           0       -4.029192    0.897880    0.139929
     13          8           0       -3.551417    2.030021    0.114948
     14          8           0       -5.224226    0.636435    0.258998
     15          6           0        4.316668    0.152108    0.344827
     16          6           0        4.585181   -1.203204   -0.310167
     17          6           0        5.703057   -1.983331    0.382327
     18          1           0        5.240680    0.746291    0.335310
     19          1           0        4.056303   -0.004006    1.400873
     20          1           0        4.843612   -1.044677   -1.365013
     21          1           0        3.660372   -1.794156   -0.299263
     22          1           0        5.449715   -2.170678    1.430812
     23          1           0        6.639678   -1.416940    0.359005
     24          1           0        5.878373   -2.948965   -0.102104
     25          6           0        3.201744    0.943834   -0.336232
     26          6           0        2.933230    2.299145    0.318762
     27          6           0        1.815354    3.079272   -0.373732
     28          1           0        3.462108    1.099948   -1.392279
     29          1           0        2.277731    0.349650   -0.326716
     30          1           0        3.858039    2.890097    0.307857
     31          1           0        2.674800    2.140618    1.373607
     32          1           0        0.878733    2.512882   -0.350411
     33          1           0        2.068696    3.266619   -1.422217
     34          1           0        1.640038    4.044907    0.110698
 ---------------------------------------------------------------------

 SCF Done:  E(RHF) =  -669.535299224     A.U. after   15 cycles
 E2 =    -0.2091896124D+01 EUMP2 =    -0.67162719534756D+03

 The electronic state is 1-A.
 Alpha  occ. eigenvalues --  -20.60737 -20.60731 -15.85789 -11.31160 -11.27730
 Alpha  occ. eigenvalues --  -11.27726 -11.27473 -11.26748 -11.26722 -11.22379
 Alpha  occ. eigenvalues --  -11.22299 -11.22219 -11.22107 -11.21701 -11.21655
 Alpha  occ. eigenvalues --   -1.59812  -1.39365  -1.19332  -1.09191  -1.08727
 Alpha  occ. eigenvalues --   -1.04739  -1.04212  -0.96657  -0.95561  -0.87668
 Alpha  occ. eigenvalues --   -0.86137  -0.82398  -0.80274  -0.79030  -0.77438
 Alpha  occ. eigenvalues --   -0.72008  -0.71135  -0.70447  -0.65865  -0.64985
 Alpha  occ. eigenvalues --   -0.64738  -0.62139  -0.61563  -0.60015  -0.58269
 Alpha  occ. eigenvalues --   -0.55968  -0.55243  -0.53309  -0.53164  -0.53065
 Alpha  occ. eigenvalues --   -0.52758  -0.50589  -0.48773  -0.48763  -0.48584
 Alpha  occ. eigenvalues --   -0.47319  -0.46559  -0.46459  -0.44770  -0.44484
 Alpha  occ. eigenvalues --   -0.37314  -0.36339
 Alpha virt. eigenvalues --    0.05096   0.11313   0.16585   0.18232   0.22599
 Alpha virt. eigenvalues --    0.23271   0.24544   0.25401   0.26495   0.28405
 Alpha virt. eigenvalues --    0.29129   0.30824   0.31190   0.31369   0.31565

 Mulliken charges:
               1
     1  C   -0.172818
     2  C   -0.218753
     3  C   -0.170484
     4  C    0.159370
     5  C   -0.180808
     6  C   -0.228178
     7  H    0.226221
     8  H    0.223329
     9  H    0.275528
    10  H    0.282396
    11  H    0.235585
    12  N    0.487728
    13  O   -0.460063
    14  O   -0.460647
    15  C   -0.298536
    16  C   -0.298604
    17  C   -0.476155
    18  H    0.153668
    19  H    0.150869
    20  H    0.154057
    21  H    0.143893
    22  H    0.156020
    23  H    0.157857
    24  H    0.161101
    25  C   -0.304306
    26  C   -0.301012
    27  C   -0.476996
    28  H    0.153247
    29  H    0.141957
    30  H    0.155885
    31  H    0.153976
    32  H    0.148939
    33  H    0.158121
    34  H    0.167612
 Sum of Mulliken charges =  -0.00000

 Dipole moment (field-independent basis, Debye):
    X=              3.5214    Y=             -3.8825    Z=             -0.4159  Tot=              5.2580
 Quadrupole moment (field-independent basis, Debye-Ang):
   XX=           -111.6572   YY=            -90.8562   ZZ=            -95.3968
   XY=             15.7119   XZ=              0.4188   YZ=             -0.2141

 Normal termination of Gaussian 16 at Thu May  6 01:27:12 2021.
