 Gaussian 16, Revision A.03,
 Gaussian 16:  EM64L-G16RevA.03 25-Dec-2016

 -------------
 #p 6-31g* mp2
 -------------

 ------------------------------------------------------
 Input file generated by CHIRIPA (05-May-2021 14:57:25)
 ------------------------------------------------------
 Symbolic Z-matrix:
 Charge =  0 Multiplicity = 1

                         Standard orientation:
 ---------------------------------------------------------------------
 Center     Atomic      Atomic             Coordinates (Angstroms)
 Number     Number       Type             X           Y           Z
 ---------------------------------------------------------------------
      1          6           0       -5.035335    1.266994    0.911161
      2          6           0       -4.729109    1.389423   -0.448161
      3          6           0       -3.675083    0.660513   -1.006970
      4          6           0       -2.944781   -0.185313   -0.173587
      5          6           0       -3.225379   -0.328867    1.184333
      6          6           0       -4.283818    0.409751    1.721641
      7          1           0       -5.855842    1.836999    1.336906
      8          1           0       -5.311041    2.054404   -1.079985
      9          1           0       -3.416394    0.736256   -2.056142
     10          1           0       -2.627297   -0.999809    1.788942
     11          1           0       -4.519371    0.312676    2.777641
     12          7           0       -1.826596   -0.962116   -0.753792
     13          8           0       -1.198382   -1.700488    0.001715
     14          8           0       -1.599549   -0.817894   -1.953078
     15          6           0        2.267837   -2.308175    0.247635
     16          6           0        2.924563   -1.722642    1.335009
     17          6           0        3.405901   -0.412676    1.252237
     18          6           0        3.212332    0.285970    0.061558
     19          6           0        2.562048   -0.269798   -1.039141
     20          6           0        2.088990   -1.581166   -0.933887
     21          1           0        1.897137   -3.326333    0.320666
     22          1           0        3.064880   -2.284870    2.253843
     23          1           0        3.917871    0.064988    2.078760
     24          1           0        2.437161    0.315696   -1.941925
     25          1           0        1.579340   -2.033346   -1.779957
     26          7           0        3.717521    1.673515   -0.037969
     27          8           0        3.534334    2.267885   -1.098064
     28          8           0        4.287108    2.140428    0.946002
 ---------------------------------------------------------------------

 SCF Done:  E(RHF) =  -868.340019449     A.U. after   16 cycles
 E2 =    -0.2599893043D+01 EUMP2 =    -0.87093991249120D+03

 The electronic state is 1-A.
 Alpha  occ. eigenvalues --  -20.61521 -20.61506 -20.59884 -20.59871 -15.86517
 Alpha  occ. eigenvalues --  -15.84920 -11.31614 -11.29960 -11.28161 -11.28138
 Alpha  occ. eigenvalues --  -11.27841 -11.27109 -11.27090 -11.26545 -11.26370
 Alpha  occ. eigenvalues --  -11.26061 -11.25505 -11.25210  -1.60568  -1.58964
 Alpha  occ. eigenvalues --   -1.40131  -1.38526  -1.19760  -1.18074  -1.09209
 Alpha  occ. eigenvalues --   -1.07508  -1.05123  -1.03420  -0.96093  -0.94411
 Alpha  occ. eigenvalues --   -0.86535  -0.84824  -0.82937  -0.81259  -0.78013
 Alpha  occ. eigenvalues --   -0.76363  -0.72778  -0.71856  -0.71148  -0.70869
 Alpha  occ. eigenvalues --   -0.70287  -0.69158  -0.65419  -0.65129  -0.63712
 Alpha  occ. eigenvalues --   -0.63401  -0.62476  -0.60782  -0.55638  -0.53894
 Alpha  occ. eigenvalues --   -0.53464  -0.53215  -0.51817  -0.51504  -0.49531
 Alpha  occ. eigenvalues --   -0.49470  -0.47919  -0.47869  -0.45589  -0.44006
 Alpha  occ. eigenvalues --   -0.37725  -0.36710  -0.35944  -0.34977
 Alpha virt. eigenvalues --    0.04502   0.06139   0.10949   0.12682   0.16070
 Alpha virt. eigenvalues --    0.17749   0.21106   0.22788   0.27026   0.27974
 Alpha virt. eigenvalues --    0.28722   0.29594   0.30692   0.32135   0.32374

 Mulliken charges:
               1
     1  C   -0.169600
     2  C   -0.218268
     3  C   -0.169804
     4  C    0.158744
     5  C   -0.169980
     6  C   -0.218305
     7  H    0.227539
     8  H    0.225458
     9  H    0.276201
    10  H    0.274226
    11  H    0.224584
    12  N    0.490457
    13  O   -0.464062
    14  O   -0.464507
    15  C   -0.160060
    16  C   -0.221516
    17  C   -0.174750
    18  C    0.156421
    19  C   -0.177906
    20  C   -0.203867
    21  H    0.225648
    22  H    0.217083
    23  H    0.269552
    24  H    0.273479
    25  H    0.233989
    26  N    0.488064
    27  O   -0.463374
    28  O   -0.465446
 Sum of Mulliken charges =  -0.00000

 Dipole moment (field-independent basis, Debye):
    X=             -6.2280    Y=             -2.3318    Z=              2.2513  Tot=              7.0210
 Quadrupole moment (field-independent basis, Debye-Ang):
   XX=            -94.4186   YY=           -108.9825   ZZ=            -97.4018
   XY=            -25.1977   XZ=             -2.2248   YZ=             -3.2458

 Normal termination of Gaussian 16 at Thu May  6 21:18:17 2021.
