 Gaussian 16, Revision A.03,
 Gaussian 16:  EM64L-G16RevA.03 25-Dec-2016

 -------------
 #p 6-31g* mp2
 -------------

 ------------------------------------------------------
 Input file generated by CHIRIPA (05-May-2021 14:51:12)
 ------------------------------------------------------
 Symbolic Z-matrix:
 Charge =  0 Multiplicity = 1

                         Standard orientation:
 ---------------------------------------------------------------------
 Center     Atomic      Atomic             Coordinates (Angstroms)
 Number     Number       Type             X           Y           Z
 ---------------------------------------------------------------------
      1          6           0       -3.484805    1.022021    0.051079
      2          6           0       -2.005585    0.643020    0.130155
      3          6           0       -1.092517    1.857436    0.301317
      4          1           0       -3.634598    1.716219   -0.787131
      5          1           0       -3.765621    1.567479    0.962678
      6          1           0       -1.727985    0.097232   -0.780707
      7          1           0       -1.859328   -0.050506    0.968156
      8          1           0       -1.341156    2.400043    1.219118
      9          1           0       -1.209067    2.548621   -0.539682
     10          1           0       -0.039622    1.563618    0.355571
     11          6           0       -4.410196   -0.181343   -0.120075
     12          6           0       -5.889416    0.197657   -0.199151
     13          6           0       -6.802484   -1.016758   -0.370313
     14          1           0       -4.129380   -0.726801   -1.031674
     15          1           0       -4.260403   -0.875541    0.718135
     16          1           0       -6.035673    0.891183   -1.037152
     17          1           0       -6.167015    0.743445    0.711711
     18          1           0       -6.685934   -1.707943    0.470686
     19          1           0       -6.553845   -1.559366   -1.288114
     20          1           0       -7.855379   -0.722941   -0.424567
     21          6           0        4.548801   -0.001864    0.250713
     22          6           0        5.718590   -0.068346   -0.731712
     23          6           0        6.914024    0.773972   -0.285358
     24          1           0        4.237471    1.044938    0.369986
     25          1           0        4.889159   -0.341263    1.238823
     26          1           0        5.375774    0.269766   -1.718005
     27          1           0        6.027046   -1.115131   -0.848807
     28          1           0        7.283442    0.433507    0.687377
     29          1           0        6.628469    1.826273   -0.186759
     30          1           0        7.738809    0.711983   -1.002120
     31          6           0        3.346201   -0.838814   -0.181717
     32          6           0        2.176411   -0.772331    0.800708
     33          6           0        0.980976   -1.614649    0.354354
     34          1           0        3.005842   -0.499415   -1.169827
     35          1           0        3.657529   -1.885615   -0.300990
     36          1           0        1.867955    0.274453    0.917803
     37          1           0        2.519228   -1.110443    1.787000
     38          1           0        1.266531   -2.666950    0.255755
     39          1           0        0.611558   -1.274185   -0.618381
     40          1           0        0.156191   -1.552660    1.071116
 ---------------------------------------------------------------------

 SCF Done:  E(RHF) =  -470.732270528     A.U. after   11 cycles
 E2 =    -0.1583808851D+01 EUMP2 =    -0.47231607937805D+03

 The electronic state is 1-A.
 Alpha  occ. eigenvalues --  -11.21598 -11.21589 -11.21584 -11.21541 -11.21401
 Alpha  occ. eigenvalues --  -11.21374 -11.21342 -11.21312 -11.21066 -11.21056
 Alpha  occ. eigenvalues --  -11.21041 -11.20996  -1.08443  -1.08388  -1.03590
 Alpha  occ. eigenvalues --   -1.03441  -0.96040  -0.95886  -0.87014  -0.86950
 Alpha  occ. eigenvalues --   -0.79719  -0.79448  -0.78260  -0.78191  -0.65084
 Alpha  occ. eigenvalues --   -0.65037  -0.61052  -0.60921  -0.59535  -0.59106
 Alpha  occ. eigenvalues --   -0.57722  -0.57386  -0.55254  -0.55197  -0.52700
 Alpha  occ. eigenvalues --   -0.52622  -0.52393  -0.52378  -0.49946  -0.49888
 Alpha  occ. eigenvalues --   -0.48030  -0.47808  -0.46652  -0.46544  -0.45790
 Alpha  occ. eigenvalues --   -0.45787  -0.45685  -0.45614  -0.43827  -0.43627
 Alpha virt. eigenvalues --    0.20930   0.23067   0.23521   0.25408   0.25817
 Alpha virt. eigenvalues --    0.26342   0.26597   0.27374   0.28048   0.29342
 Alpha virt. eigenvalues --    0.29523   0.30498   0.31115   0.31941   0.32420

 Mulliken charges:
               1
     1  C   -0.298586
     2  C   -0.299145
     3  C   -0.483482
     4  H    0.149255
     5  H    0.149158
     6  H    0.152800
     7  H    0.153422
     8  H    0.155039
     9  H    0.154811
    10  H    0.166733
    11  C   -0.298108
    12  C   -0.299585
    13  C   -0.475681
    14  H    0.149557
    15  H    0.149454
    16  H    0.151867
    17  H    0.151851
    18  H    0.155159
    19  H    0.155187
    20  H    0.160169
    21  C   -0.298339
    22  C   -0.299645
    23  C   -0.475722
    24  H    0.149662
    25  H    0.149561
    26  H    0.151927
    27  H    0.151927
    28  H    0.155172
    29  H    0.155249
    30  H    0.160234
    31  C   -0.298115
    32  C   -0.305997
    33  C   -0.477434
    34  H    0.149385
    35  H    0.149812
    36  H    0.155917
    37  H    0.152131
    38  H    0.154481
    39  H    0.156722
    40  H    0.163198
 Sum of Mulliken charges =  -0.00000

 Dipole moment (field-independent basis, Debye):
    X=              0.0051    Y=             -0.0173    Z=              0.0016  Tot=              0.0181
 Quadrupole moment (field-independent basis, Debye-Ang):
   XX=            -86.3063   YY=            -85.1084   ZZ=            -83.5254
   XY=             -1.3788   XZ=             -0.1629   YZ=             -0.7142

 Normal termination of Gaussian 16 at Wed May  5 21:31:58 2021.
