 Gaussian 16, Revision A.03,
 Gaussian 16:  EM64L-G16RevA.03 25-Dec-2016

 -------------
 #p 6-31g* mp2
 -------------

 ------------------------------------------------------
 Input file generated by CHIRIPA (05-May-2021 14:53:18)
 ------------------------------------------------------
 Symbolic Z-matrix:
 Charge =  0 Multiplicity = 1

                         Standard orientation:
 ---------------------------------------------------------------------
 Center     Atomic      Atomic             Coordinates (Angstroms)
 Number     Number       Type             X           Y           Z
 ---------------------------------------------------------------------
      1          6           0       -2.969714    0.747953    0.240200
      2          6           0       -2.923528    2.270154    0.377151
      3          6           0       -1.530090    2.789729    0.732350
      4          1           0       -2.635507    0.291150    1.181784
      5          1           0       -2.252774    0.434258   -0.531154
      6          1           0       -3.641339    2.581002    1.147045
      7          1           0       -3.258066    2.723387   -0.564805
      8          1           0       -0.805793    2.508093   -0.038803
      9          1           0       -1.191243    2.364899    1.682773
     10          1           0       -1.519878    3.880192    0.825336
     11          6           0       -4.356098    0.213408   -0.114665
     12          6           0       -4.402284   -1.308793   -0.251616
     13          6           0       -5.795722   -1.828367   -0.606815
     14          1           0       -5.073038    0.527104    0.656689
     15          1           0       -4.690305    0.670212   -1.056249
     16          1           0       -4.067745   -1.762026    0.690339
     17          1           0       -3.684473   -1.619641   -1.021510
     18          1           0       -6.134569   -1.403538   -1.557238
     19          1           0       -6.520019   -1.546732    0.164338
     20          1           0       -5.805933   -2.918830   -0.699801
     21          6           0        0.461991   -1.074900    0.295155
     22          6           0        0.785154   -0.149431   -0.702639
     23          6           0        2.111371    0.245327   -0.902293
     24          6           0        3.093635   -0.307919   -0.082312
     25          6           0        2.803351   -1.232043    0.920194
     26          6           0        1.470343   -1.612305    1.101965
     27          1           0       -0.570884   -1.375926    0.443306
     28          1           0        0.004124    0.269573   -1.330711
     29          1           0        2.389516    0.959979   -1.667357
     30          1           0        3.603733   -1.632364    1.530563
     31          1           0        1.222302   -2.331226    1.877641
     32          7           0        4.501236    0.102319   -0.284210
     33          8           0        5.348196   -0.399751    0.451469
     34          8           0        4.730902    0.918166   -1.174315
 ---------------------------------------------------------------------

 SCF Done:  E(RHF) =  -669.534641194     A.U. after   15 cycles
 E2 =    -0.2093220555D+01 EUMP2 =    -0.67162786174973D+03

 The electronic state is 1-A.
 Alpha  occ. eigenvalues --  -20.60704 -20.60699 -15.85758 -11.31108 -11.27688
 Alpha  occ. eigenvalues --  -11.27684 -11.27358 -11.26681 -11.26666 -11.22644
 Alpha  occ. eigenvalues --  -11.22625 -11.22474 -11.22364 -11.21879 -11.21765
 Alpha  occ. eigenvalues --   -1.59780  -1.39334  -1.19282  -1.09473  -1.08667
 Alpha  occ. eigenvalues --   -1.04698  -1.04432  -0.96876  -0.95508  -0.87885
 Alpha  occ. eigenvalues --   -0.86097  -0.82350  -0.80512  -0.79358  -0.77400
 Alpha  occ. eigenvalues --   -0.71977  -0.71104  -0.70364  -0.66152  -0.64931
 Alpha  occ. eigenvalues --   -0.64694  -0.62128  -0.61749  -0.60236  -0.58510
 Alpha  occ. eigenvalues --   -0.56168  -0.55173  -0.53518  -0.53302  -0.52999
 Alpha  occ. eigenvalues --   -0.52804  -0.50821  -0.48818  -0.48733  -0.48725
 Alpha  occ. eigenvalues --   -0.47538  -0.46799  -0.46765  -0.44744  -0.44729
 Alpha  occ. eigenvalues --   -0.37223  -0.36277
 Alpha virt. eigenvalues --    0.05121   0.11282   0.16521   0.19533   0.22690
 Alpha virt. eigenvalues --    0.22980   0.24704   0.25261   0.26812   0.28238
 Alpha virt. eigenvalues --    0.29806   0.30499   0.31016   0.31383   0.31608

 Mulliken charges:
               1
     1  C   -0.303313
     2  C   -0.300979
     3  C   -0.476577
     4  H    0.148848
     5  H    0.140995
     6  H    0.155777
     7  H    0.153784
     8  H    0.152323
     9  H    0.157864
    10  H    0.164428
    11  C   -0.297582
    12  C   -0.301925
    13  C   -0.475926
    14  H    0.153770
    15  H    0.152714
    16  H    0.149491
    17  H    0.148728
    18  H    0.157646
    19  H    0.157743
    20  H    0.162288
    21  C   -0.172728
    22  C   -0.219204
    23  C   -0.171923
    24  C    0.158366
    25  C   -0.170602
    26  C   -0.219799
    27  H    0.230996
    28  H    0.224591
    29  H    0.275246
    30  H    0.275254
    31  H    0.222993
    32  N    0.488075
    33  O   -0.460694
    34  O   -0.460669
 Sum of Mulliken charges =  -0.00000

 Dipole moment (field-independent basis, Debye):
    X=             -5.1964    Y=             -1.3664    Z=              0.7656  Tot=              5.4273
 Quadrupole moment (field-independent basis, Debye-Ang):
   XX=           -125.5908   YY=            -92.5194   ZZ=            -91.5134
   XY=             -4.5363   XZ=              3.3554   YZ=             -2.8405

 Normal termination of Gaussian 16 at Thu May  6 06:02:16 2021.
