 Gaussian 16, Revision A.03,
 Gaussian 16:  EM64L-G16RevA.03 25-Dec-2016

 -------------
 #p 6-31g* mp2
 -------------

 ------------------------------------------------------
 Input file generated by CHIRIPA (05-May-2021 14:57:27)
 ------------------------------------------------------
 Symbolic Z-matrix:
 Charge =  0 Multiplicity = 1

                         Standard orientation:
 ---------------------------------------------------------------------
 Center     Atomic      Atomic             Coordinates (Angstroms)
 Number     Number       Type             X           Y           Z
 ---------------------------------------------------------------------
      1          6           0       -1.346192   -0.296650   -0.703981
      2          6           0       -2.185781   -1.372669   -1.010239
      3          6           0       -3.546735   -1.323707   -0.694081
      4          6           0       -4.036751   -0.178049   -0.069066
      5          6           0       -3.225730    0.910258    0.248932
      6          6           0       -1.867926    0.839377   -0.076479
      7          1           0       -0.290194   -0.343198   -0.953174
      8          1           0       -1.783352   -2.256199   -1.497548
      9          1           0       -4.219202   -2.142392   -0.919824
     10          1           0       -3.655935    1.777550    0.734882
     11          1           0       -1.218247    1.676529    0.162555
     12          7           0       -5.475864   -0.114613    0.270534
     13          8           0       -5.883049    0.906072    0.821024
     14          8           0       -6.169407   -1.086778   -0.020208
     15          6           0        1.956175    1.906673   -0.000375
     16          6           0        2.986732    1.915379   -0.946101
     17          6           0        4.013272    0.968177   -0.886329
     18          6           0        3.977780    0.022398    0.137161
     19          6           0        2.964728   -0.012229    1.094144
     20          6           0        1.948477    0.944593    1.014939
     21          1           0        1.162731    2.646217   -0.054356
     22          1           0        2.995284    2.661363   -1.735710
     23          1           0        4.823198    0.952019   -1.605480
     24          1           0        2.983316   -0.768302    1.869661
     25          1           0        1.149401    0.935430    1.750766
     26          7           0        5.059087   -0.985453    0.210726
     27          8           0        5.004927   -1.808184    1.122218
     28          8           0        5.940299   -0.933593   -0.644501
 ---------------------------------------------------------------------

 SCF Done:  E(RHF) =  -868.336965576     A.U. after   16 cycles
 E2 =    -0.2601186915D+01 EUMP2 =    -0.87093815249037D+03

 The electronic state is 1-A.
 Alpha  occ. eigenvalues --  -20.61589 -20.61584 -20.61191 -20.61181 -15.86647
 Alpha  occ. eigenvalues --  -15.86249 -11.32231 -11.31698 -11.28798 -11.28772
 Alpha  occ. eigenvalues --  -11.28674 -11.28364 -11.28266 -11.27992 -11.27913
 Alpha  occ. eigenvalues --  -11.27866 -11.27442 -11.27235  -1.60660  -1.60264
 Alpha  occ. eigenvalues --   -1.40206  -1.39815  -1.20436  -1.19897  -1.09819
 Alpha  occ. eigenvalues --   -1.09260  -1.05842  -1.05331  -0.96604  -0.96074
 Alpha  occ. eigenvalues --   -0.87250  -0.86715  -0.83404  -0.82921  -0.78399
 Alpha  occ. eigenvalues --   -0.77967  -0.72860  -0.72465  -0.71990  -0.71591
 Alpha  occ. eigenvalues --   -0.71590  -0.70955  -0.66100  -0.65898  -0.65539
 Alpha  occ. eigenvalues --   -0.65288  -0.63156  -0.62672  -0.56422  -0.55806
 Alpha  occ. eigenvalues --   -0.54146  -0.53926  -0.53619  -0.53416  -0.49636
 Alpha  occ. eigenvalues --   -0.49602  -0.49231  -0.49213  -0.45562  -0.45202
 Alpha  occ. eigenvalues --   -0.38480  -0.37914  -0.37389  -0.36941
 Alpha virt. eigenvalues --    0.04076   0.04605   0.10041   0.10730   0.15426
 Alpha virt. eigenvalues --    0.16095   0.18568   0.21864   0.24784   0.26477
 Alpha virt. eigenvalues --    0.27795   0.28663   0.29641   0.31146   0.31606

 Mulliken charges:
               1
     1  C   -0.174249
     2  C   -0.219158
     3  C   -0.169387
     4  C    0.158421
     5  C   -0.170614
     6  C   -0.223728
     7  H    0.232623
     8  H    0.226867
     9  H    0.277791
    10  H    0.275705
    11  H    0.211883
    12  N    0.488078
    13  O   -0.460315
    14  O   -0.458527
    15  C   -0.180610
    16  C   -0.218098
    17  C   -0.170885
    18  C    0.158948
    19  C   -0.171929
    20  C   -0.223416
    21  H    0.224078
    22  H    0.227641
    23  H    0.279140
    24  H    0.279611
    25  H    0.227507
    26  N    0.487782
    27  O   -0.457644
    28  O   -0.457513
 Sum of Mulliken charges =  -0.00000

 Dipole moment (field-independent basis, Debye):
    X=              1.4771    Y=              3.1552    Z=             -1.4984  Tot=              3.7924
 Quadrupole moment (field-independent basis, Debye-Ang):
   XX=           -174.7638   YY=           -100.2358   ZZ=           -101.4953
   XY=             16.0526   XZ=              1.2848   YZ=              0.8520

 Normal termination of Gaussian 16 at Wed May  5 22:52:25 2021.
