 Gaussian 16, Revision A.03,
 Gaussian 16:  EM64L-G16RevA.03 25-Dec-2016

 -------------
 #p 6-31g* mp2
 -------------

 ------------------------------------------------------
 Input file generated by CHIRIPA (05-May-2021 14:57:24)
 ------------------------------------------------------
 Symbolic Z-matrix:
 Charge =  0 Multiplicity = 1

                         Standard orientation:
 ---------------------------------------------------------------------
 Center     Atomic      Atomic             Coordinates (Angstroms)
 Number     Number       Type             X           Y           Z
 ---------------------------------------------------------------------
      1          6           0        3.330243    2.581301   -0.162022
      2          6           0        2.717212    1.758066   -1.112284
      3          6           0        2.810783    0.366729   -1.012414
      4          6           0        3.528451   -0.170016    0.055363
      5          6           0        4.150274    0.623655    1.018022
      6          6           0        4.043560    2.012471    0.898229
      7          1           0        3.252450    3.661146   -0.247342
      8          1           0        2.162596    2.197053   -1.936746
      9          1           0        2.345941   -0.294008   -1.734055
     10          1           0        4.696347    0.156819    1.828754
     11          1           0        4.520670    2.649351    1.637685
     12          7           0        3.634467   -1.641628    0.171636
     13          8           0        4.272470   -2.089823    1.121747
     14          8           0        3.077552   -2.319017   -0.689541
     15          6           0       -1.111544   -0.515540   -0.678367
     16          6           0       -1.556070    0.797992   -0.495190
     17          6           0       -2.883368    1.055259   -0.139326
     18          6           0       -3.742946   -0.029694    0.025883
     19          6           0       -3.330093   -1.349580   -0.149453
     20          6           0       -1.998411   -1.583251   -0.505218
     21          1           0       -0.078764   -0.706226   -0.954773
     22          1           0       -0.869540    1.629148   -0.628984
     23          1           0       -3.254010    2.062283    0.008807
     24          1           0       -4.037879   -2.157491   -0.008962
     25          1           0       -1.655965   -2.604391   -0.646813
     26          7           0       -5.150418    0.230173    0.402569
     27          8           0       -5.887936   -0.743086    0.542109
     28          8           0       -5.489427    1.402195    0.551142
 ---------------------------------------------------------------------

 SCF Done:  E(RHF) =  -868.337953733     A.U. after   16 cycles
 E2 =    -0.2600449613D+01 EUMP2 =    -0.87093840334579D+03

 The electronic state is 1-A.
 Alpha  occ. eigenvalues --  -20.61827 -20.61781 -20.60765 -20.60754 -15.86855
 Alpha  occ. eigenvalues --  -15.85815 -11.32287 -11.31169 -11.28942 -11.28775
 Alpha  occ. eigenvalues --  -11.28540 -11.27928 -11.27780 -11.27776 -11.27692
 Alpha  occ. eigenvalues --  -11.27443 -11.26811 -11.26658  -1.60874  -1.59838
 Alpha  occ. eigenvalues --   -1.40429  -1.39392  -1.20451  -1.19337  -1.09816
 Alpha  occ. eigenvalues --   -1.08731  -1.05868  -1.04739  -0.96650  -0.95570
 Alpha  occ. eigenvalues --   -0.87253  -0.86132  -0.83480  -0.82406  -0.78540
 Alpha  occ. eigenvalues --   -0.77455  -0.73068  -0.72200  -0.72033  -0.71562
 Alpha  occ. eigenvalues --   -0.71161  -0.70430  -0.66096  -0.65846  -0.64987
 Alpha  occ. eigenvalues --   -0.64747  -0.63210  -0.62086  -0.56326  -0.55276
 Alpha  occ. eigenvalues --   -0.54147  -0.53906  -0.53068  -0.52823  -0.49838
 Alpha  occ. eigenvalues --   -0.49817  -0.48791  -0.48788  -0.45818  -0.44800
 Alpha  occ. eigenvalues --   -0.38395  -0.37491  -0.37290  -0.36344
 Alpha virt. eigenvalues --    0.03955   0.05077   0.10031   0.11308   0.15433
 Alpha virt. eigenvalues --    0.16568   0.19381   0.21978   0.25531   0.26004
 Alpha virt. eigenvalues --    0.27624   0.29082   0.29838   0.30840   0.32654

 Mulliken charges:
               1
     1  C   -0.170631
     2  C   -0.222422
     3  C   -0.179678
     4  C    0.161317
     5  C   -0.169259
     6  C   -0.216880
     7  H    0.229514
     8  H    0.224546
     9  H    0.271997
    10  H    0.279325
    11  H    0.228199
    12  N    0.488731
    13  O   -0.454398
    14  O   -0.465275
    15  C   -0.174248
    16  C   -0.220562
    17  C   -0.171192
    18  C    0.158466
    19  C   -0.170789
    20  C   -0.219916
    21  H    0.228923
    22  H    0.216698
    23  H    0.273743
    24  H    0.276498
    25  H    0.230502
    26  N    0.488067
    27  O   -0.459566
    28  O   -0.461707
 Sum of Mulliken charges =  -0.00000

 Dipole moment (field-independent basis, Debye):
    X=              4.9086    Y=              4.2354    Z=             -1.5604  Tot=              6.6685
 Quadrupole moment (field-independent basis, Debye-Ang):
   XX=           -142.9429   YY=           -101.7511   ZZ=           -102.5663
   XY=             23.8205   XZ=              6.8233   YZ=              0.9648

 Normal termination of Gaussian 16 at Wed May  5 19:26:11 2021.
