 Gaussian 16, Revision A.03,
 Gaussian 16:  EM64L-G16RevA.03 25-Dec-2016

 -------------
 #p 6-31g* mp2
 -------------

 ------------------------------------------------------
 Input file generated by CHIRIPA (05-May-2021 14:57:22)
 ------------------------------------------------------
 Symbolic Z-matrix:
 Charge =  0 Multiplicity = 1

                         Standard orientation:
 ---------------------------------------------------------------------
 Center     Atomic      Atomic             Coordinates (Angstroms)
 Number     Number       Type             X           Y           Z
 ---------------------------------------------------------------------
      1          6           0       -3.273806   -2.326379    0.166374
      2          6           0       -4.603823   -1.912782    0.037863
      3          6           0       -4.917820   -0.554693   -0.069598
      4          6           0       -3.872171    0.366879   -0.044847
      5          6           0       -2.537178   -0.013891    0.082041
      6          6           0       -2.246540   -1.377286    0.188015
      7          1           0       -3.038958   -3.383436    0.249275
      8          1           0       -5.403661   -2.647638    0.020762
      9          1           0       -5.938771   -0.206877   -0.170102
     10          1           0       -1.761455    0.742071    0.095980
     11          1           0       -1.212719   -1.695595    0.287711
     12          7           0       -4.192221    1.807435   -0.157824
     13          8           0       -3.252771    2.599568   -0.133394
     14          8           0       -5.376467    2.117134   -0.268667
     15          6           0        5.937018    1.232757   -0.135270
     16          6           0        5.516633    0.460736   -1.223287
     17          6           0        4.344960   -0.297952   -1.145029
     18          6           0        3.614701   -0.261151    0.041840
     19          6           0        4.007413    0.498039    1.143066
     20          6           0        5.182397    1.248916    1.042357
     21          1           0        6.848488    1.819092   -0.204783
     22          1           0        6.100685    0.446273   -2.139103
     23          1           0        3.996456   -0.904445   -1.972150
     24          1           0        3.404161    0.492282    2.042773
     25          1           0        5.506458    1.847555    1.888916
     26          7           0        2.372552   -1.060206    0.136573
     27          8           0        1.746955   -1.010752    1.193370
     28          8           0        2.048070   -1.720830   -0.847767
 ---------------------------------------------------------------------

 SCF Done:  E(RHF) =  -868.341438318     A.U. after   16 cycles
 E2 =    -0.2598433016D+01 EUMP2 =    -0.87093987133388D+03

 The electronic state is 1-A.
 Alpha  occ. eigenvalues --  -20.61794 -20.61788 -20.59990 -20.59985 -15.86768
 Alpha  occ. eigenvalues --  -15.85029 -11.31763 -11.30149 -11.28284 -11.28277
 Alpha  occ. eigenvalues --  -11.27958 -11.27213 -11.27200 -11.26714 -11.26558
 Alpha  occ. eigenvalues --  -11.26301 -11.25722 -11.25338  -1.60839  -1.59069
 Alpha  occ. eigenvalues --   -1.40396  -1.38630  -1.19898  -1.18263  -1.09367
 Alpha  occ. eigenvalues --   -1.07704  -1.05241  -1.03594  -0.96262  -0.94592
 Alpha  occ. eigenvalues --   -0.86658  -0.85005  -0.83105  -0.81410  -0.78194
 Alpha  occ. eigenvalues --   -0.76491  -0.72992  -0.72122  -0.71257  -0.71001
 Alpha  occ. eigenvalues --   -0.70387  -0.69381  -0.65552  -0.65242  -0.63897
 Alpha  occ. eigenvalues --   -0.63542  -0.62591  -0.60922  -0.55761  -0.54119
 Alpha  occ. eigenvalues --   -0.53590  -0.53327  -0.51981  -0.51657  -0.49770
 Alpha  occ. eigenvalues --   -0.49726  -0.48024  -0.47981  -0.45877  -0.44090
 Alpha  occ. eigenvalues --   -0.37855  -0.36823  -0.36248  -0.35192
 Alpha virt. eigenvalues --    0.04299   0.05980   0.10837   0.12452   0.15875
 Alpha virt. eigenvalues --    0.17558   0.21008   0.22715   0.26951   0.27850
 Alpha virt. eigenvalues --    0.28767   0.29387   0.30622   0.32081   0.32376

 Mulliken charges:
               1
     1  C   -0.172811
     2  C   -0.218561
     3  C   -0.173991
     4  C    0.157964
     5  C   -0.173735
     6  C   -0.225660
     7  H    0.225099
     8  H    0.219144
     9  H    0.271376
    10  H    0.274007
    11  H    0.250558
    12  N    0.488206
    13  O   -0.463238
    14  O   -0.463818
    15  C   -0.169214
    16  C   -0.218495
    17  C   -0.170027
    18  C    0.157902
    19  C   -0.169929
    20  C   -0.218365
    21  H    0.228190
    22  H    0.225564
    23  H    0.276045
    24  H    0.276454
    25  H    0.226049
    26  N    0.488734
    27  O   -0.465653
    28  O   -0.461796
 Sum of Mulliken charges =  -0.00000

 Dipole moment (field-independent basis, Debye):
    X=              6.1665    Y=             -2.3071    Z=              0.0748  Tot=              6.5844
 Quadrupole moment (field-independent basis, Debye-Ang):
   XX=            -78.0457   YY=           -110.6618   ZZ=           -101.3599
   XY=             30.9754   XZ=             -3.1925   YZ=              2.4929

 Normal termination of Gaussian 16 at Wed May  5 20:58:33 2021.
