 Gaussian 16, Revision A.03,
 Gaussian 16:  EM64L-G16RevA.03 25-Dec-2016

 -------------
 #p 6-31g* mp2
 -------------

 ------------------------------------------------------
 Input file generated by CHIRIPA (05-May-2021 14:53:15)
 ------------------------------------------------------
 Symbolic Z-matrix:
 Charge =  0 Multiplicity = 1

                         Standard orientation:
 ---------------------------------------------------------------------
 Center     Atomic      Atomic             Coordinates (Angstroms)
 Number     Number       Type             X           Y           Z
 ---------------------------------------------------------------------
      1          6           0       -3.792827   -0.369582   -0.499759
      2          6           0       -4.518552   -1.103321    0.628485
      3          6           0       -5.143994   -2.421154    0.170299
      4          1           0       -4.500429   -0.176456   -1.317651
      5          1           0       -3.011550   -1.024097   -0.910383
      6          1           0       -5.297313   -0.447101    1.037781
      7          1           0       -3.809186   -1.294553    1.443866
      8          1           0       -4.375980   -3.097171   -0.219260
      9          1           0       -5.872562   -2.244905   -0.627652
     10          1           0       -5.657612   -2.929061    0.992544
     11          6           0       -3.162306    0.949649   -0.057266
     12          6           0       -2.436581    1.683388   -1.185510
     13          6           0       -1.811139    3.001221   -0.727324
     14          1           0       -3.943583    1.604164    0.353358
     15          1           0       -2.454704    0.756524    0.760625
     16          1           0       -3.145947    1.874620   -2.000891
     17          1           0       -1.657820    1.027168   -1.594806
     18          1           0       -1.082571    2.824972    0.070627
     19          1           0       -2.579153    3.677238   -0.337766
     20          1           0       -1.297521    3.509128   -1.549569
     21          6           0        0.561670    0.317953    1.411154
     22          6           0        0.538142   -0.434330    0.232155
     23          6           0        1.726136   -0.742009   -0.437584
     24          6           0        2.925203   -0.279233    0.102199
     25          6           0        2.981370    0.472316    1.274934
     26          6           0        1.781059    0.768081    1.927870
     27          1           0       -0.365977    0.552338    1.924897
     28          1           0       -0.407387   -0.785228   -0.171443
     29          1           0        1.736796   -1.322608   -1.352029
     30          1           0        3.939357    0.808170    1.652930
     31          1           0        1.802358    1.352501    2.843318
     32          7           0        4.189400   -0.598652   -0.597930
     33          8           0        5.232746   -0.179179   -0.101839
     34          8           0        4.112992   -1.262440   -1.629523
 ---------------------------------------------------------------------

 SCF Done:  E(RHF) =  -669.534721111     A.U. after   15 cycles
 E2 =    -0.2093810127D+01 EUMP2 =    -0.67162853123788D+03

 The electronic state is 1-A.
 Alpha  occ. eigenvalues --  -20.60785 -20.60780 -15.85839 -11.31224 -11.27789
 Alpha  occ. eigenvalues --  -11.27785 -11.27525 -11.26812 -11.26791 -11.22562
 Alpha  occ. eigenvalues --  -11.22535 -11.22467 -11.22442 -11.21812 -11.21766
 Alpha  occ. eigenvalues --   -1.59860  -1.39413  -1.19398  -1.09467  -1.08786
 Alpha  occ. eigenvalues --   -1.04805  -1.04394  -0.96851  -0.95626  -0.87861
 Alpha  occ. eigenvalues --   -0.86202  -0.82462  -0.80467  -0.79292  -0.77500
 Alpha  occ. eigenvalues --   -0.72058  -0.71183  -0.70548  -0.66305  -0.65043
 Alpha  occ. eigenvalues --   -0.64658  -0.62182  -0.61725  -0.60212  -0.58463
 Alpha  occ. eigenvalues --   -0.56165  -0.55340  -0.53481  -0.53285  -0.53088
 Alpha  occ. eigenvalues --   -0.52886  -0.50800  -0.48821  -0.48811  -0.48767
 Alpha  occ. eigenvalues --   -0.47513  -0.46789  -0.46747  -0.44814  -0.44702
 Alpha  occ. eigenvalues --   -0.37355  -0.36389
 Alpha virt. eigenvalues --    0.05002   0.11160   0.16377   0.18422   0.22771
 Alpha virt. eigenvalues --    0.23802   0.24417   0.25159   0.26844   0.28583
 Alpha virt. eigenvalues --    0.29873   0.30720   0.31039   0.31259   0.31611

 Mulliken charges:
               1
     1  C   -0.300960
     2  C   -0.299580
     3  C   -0.476172
     4  H    0.156019
     5  H    0.144268
     6  H    0.155050
     7  H    0.147901
     8  H    0.155459
     9  H    0.157781
    10  H    0.163104
    11  C   -0.304148
    12  C   -0.300864
    13  C   -0.477285
    14  H    0.155579
    15  H    0.139293
    16  H    0.156507
    17  H    0.150274
    18  H    0.153836
    19  H    0.155850
    20  H    0.165303
    21  C   -0.175638
    22  C   -0.221740
    23  C   -0.172924
    24  C    0.158919
    25  C   -0.170596
    26  C   -0.219039
    27  H    0.229820
    28  H    0.230610
    29  H    0.276013
    30  H    0.275802
    31  H    0.224034
    32  N    0.488050
    33  O   -0.460266
    34  O   -0.460262
 Sum of Mulliken charges =  -0.00000

 Dipole moment (field-independent basis, Debye):
    X=             -4.6065    Y=              1.1656    Z=              2.4048  Tot=              5.3255
 Quadrupole moment (field-independent basis, Debye-Ang):
   XX=           -118.4879   YY=            -95.2132   ZZ=            -92.0648
   XY=              5.1509   XZ=              9.2167   YZ=              1.0489

 Normal termination of Gaussian 16 at Thu May  6 15:28:30 2021.
