 Gaussian 16, Revision A.03,
 Gaussian 16:  EM64L-G16RevA.03 25-Dec-2016

 -------------
 #p 6-31g* mp2
 -------------

 ------------------------------------------------------
 Input file generated by CHIRIPA (05-May-2021 14:57:23)
 ------------------------------------------------------
 Symbolic Z-matrix:
 Charge =  0 Multiplicity = 1

                         Standard orientation:
 ---------------------------------------------------------------------
 Center     Atomic      Atomic             Coordinates (Angstroms)
 Number     Number       Type             X           Y           Z
 ---------------------------------------------------------------------
      1          6           0        1.134987   -2.001848   -0.034508
      2          6           0        1.402261   -1.326049    1.160640
      3          6           0        2.358238   -0.306740    1.201452
      4          6           0        3.031278    0.012364    0.023114
      5          6           0        2.787354   -0.642516   -1.183088
      6          6           0        1.827166   -1.658530   -1.200502
      7          1           0        0.390725   -2.792391   -0.057124
      8          1           0        0.866240   -1.590551    2.067705
      9          1           0        2.584890    0.232708    2.113068
     10          1           0        3.337860   -0.356479   -2.071088
     11          1           0        1.621666   -2.181660   -2.130099
     12          7           0        4.045557    1.089716    0.053935
     13          8           0        4.624850    1.351963   -0.997864
     14          8           0        4.242050    1.651499    1.129309
     15          6           0       -2.343558   -2.291944    0.221556
     16          6           0       -2.508129   -1.496959    1.360606
     17          6           0       -2.796760   -0.134372    1.239798
     18          6           0       -2.914437    0.402743   -0.041198
     19          6           0       -2.756063   -0.363175   -1.195137
     20          6           0       -2.467831   -1.723517   -1.050437
     21          1           0       -2.119498   -3.349564    0.324682
     22          1           0       -2.412185   -1.935705    2.349718
     23          1           0       -2.929099    0.504150    2.104781
     24          1           0       -2.857688    0.102669   -2.167804
     25          1           0       -2.340540   -2.338495   -1.936803
     26          7           0       -3.219787    1.844066   -0.181738
     27          8           0       -3.318410    2.293221   -1.321550
     28          8           0       -3.354715    2.497329    0.850580
 ---------------------------------------------------------------------

 SCF Done:  E(RHF) =  -868.334692961     A.U. after   16 cycles
 E2 =    -0.2603257800D+01 EUMP2 =    -0.87093795076156D+03

 The electronic state is 1-A.
 Alpha  occ. eigenvalues --  -20.61312 -20.61306 -20.60844 -20.60839 -15.86375
 Alpha  occ. eigenvalues --  -15.85906 -11.31994 -11.31358 -11.28613 -11.28593
 Alpha  occ. eigenvalues --  -11.28492 -11.27978 -11.27972 -11.27772 -11.27728
 Alpha  occ. eigenvalues --  -11.27706 -11.27031 -11.27020  -1.60380  -1.59918
 Alpha  occ. eigenvalues --   -1.39927  -1.39469  -1.20220  -1.19569  -1.09620
 Alpha  occ. eigenvalues --   -1.08947  -1.05656  -1.04999  -0.96403  -0.95762
 Alpha  occ. eigenvalues --   -0.87070  -0.86399  -0.83217  -0.82603  -0.78172
 Alpha  occ. eigenvalues --   -0.77625  -0.72593  -0.72124  -0.71703  -0.71532
 Alpha  occ. eigenvalues --   -0.71242  -0.70650  -0.65887  -0.65697  -0.65235
 Alpha  occ. eigenvalues --   -0.65032  -0.62992  -0.62355  -0.56358  -0.55589
 Alpha  occ. eigenvalues --   -0.54064  -0.53767  -0.53134  -0.53072  -0.49370
 Alpha  occ. eigenvalues --   -0.49328  -0.48891  -0.48870  -0.45276  -0.44856
 Alpha  occ. eigenvalues --   -0.38518  -0.37406  -0.37159  -0.36497
 Alpha virt. eigenvalues --    0.04255   0.04993   0.10136   0.11195   0.15543
 Alpha virt. eigenvalues --    0.16488   0.19086   0.22167   0.25197   0.25952
 Alpha virt. eigenvalues --    0.27765   0.29087   0.29737   0.31396   0.32356

 Mulliken charges:
               1
     1  C   -0.158734
     2  C   -0.217314
     3  C   -0.170165
     4  C    0.158605
     5  C   -0.169525
     6  C   -0.221068
     7  H    0.214147
     8  H    0.216848
     9  H    0.276458
    10  H    0.276468
    11  H    0.219569
    12  N    0.488289
    13  O   -0.459697
    14  O   -0.459378
    15  C   -0.181471
    16  C   -0.219750
    17  C   -0.168557
    18  C    0.161341
    19  C   -0.167193
    20  C   -0.216369
    21  H    0.222105
    22  H    0.222593
    23  H    0.278592
    24  H    0.278760
    25  H    0.222508
    26  N    0.487993
    27  O   -0.457439
    28  O   -0.457616
 Sum of Mulliken charges =  -0.00000

 Dipole moment (field-independent basis, Debye):
    X=             -2.6453    Y=             -8.5555    Z=              0.3404  Tot=              8.9616
 Quadrupole moment (field-independent basis, Debye-Ang):
   XX=           -133.6430   YY=           -110.7663   ZZ=            -95.1059
   XY=              3.3273   XZ=             -2.9128   YZ=              1.6982

 Normal termination of Gaussian 16 at Wed May  5 16:21:12 2021.
