 Gaussian 16, Revision A.03,
 Gaussian 16:  EM64L-G16RevA.03 25-Dec-2016

 -------------
 #p 6-31g* mp2
 -------------

 ------------------------------------------------------
 Input file generated by CHIRIPA (05-May-2021 14:57:21)
 ------------------------------------------------------
 Symbolic Z-matrix:
 Charge =  0 Multiplicity = 1

                         Standard orientation:
 ---------------------------------------------------------------------
 Center     Atomic      Atomic             Coordinates (Angstroms)
 Number     Number       Type             X           Y           Z
 ---------------------------------------------------------------------
      1          6           0       -2.618775    1.484920    1.774930
      2          6           0       -2.240530    1.562840    0.430541
      3          6           0       -2.863551    0.760469   -0.529976
      4          6           0       -3.865498   -0.112633   -0.109161
      5          6           0       -4.264584   -0.213229    1.222718
      6          6           0       -3.627816    0.598696    2.166038
      7          1           0       -2.129457    2.111932    2.514403
      8          1           0       -1.457208    2.250180    0.123921
      9          1           0       -2.590343    0.800532   -1.577435
     10          1           0       -5.048737   -0.908017    1.498020
     11          1           0       -3.923622    0.536059    3.209407
     12          7           0       -4.532339   -0.967124   -1.116914
     13          8           0       -5.412270   -1.728212   -0.720550
     14          8           0       -4.162452   -0.859607   -2.284073
     15          6           0        2.794123    2.180734   -0.806675
     16          6           0        4.083905    1.809029   -1.200147
     17          6           0        4.626779    0.587482   -0.790684
     18          6           0        3.848546   -0.241748    0.015554
     19          6           0        2.560441    0.100427    0.424198
     20          6           0        2.037841    1.326752    0.002814
     21          1           0        2.380281    3.131517   -1.129385
     22          1           0        4.673531    2.470244   -1.828782
     23          1           0        5.622581    0.274870   -1.080634
     24          1           0        1.996773   -0.579767    1.051121
     25          1           0        1.035896    1.612819    0.309927
     26          7           0        4.412530   -1.537475    0.455343
     27          8           0        3.706559   -2.250247    1.165412
     28          8           0        5.549875   -1.815759    0.081653
 ---------------------------------------------------------------------

 SCF Done:  E(RHF) =  -868.336706164     A.U. after   16 cycles
 E2 =    -0.2599688196D+01 EUMP2 =    -0.87093639436039D+03

 The electronic state is 1-A.
 Alpha  occ. eigenvalues --  -20.61188 -20.61179 -20.61059 -20.61053 -15.86249
 Alpha  occ. eigenvalues --  -15.86118 -11.31774 -11.31590 -11.28439 -11.28350
 Alpha  occ. eigenvalues --  -11.28207 -11.28205 -11.28162 -11.27999 -11.27560
 Alpha  occ. eigenvalues --  -11.27366 -11.27310 -11.27197  -1.60258  -1.60132
 Alpha  occ. eigenvalues --   -1.39808  -1.39682  -1.19989  -1.19790  -1.09358
 Alpha  occ. eigenvalues --   -1.09175  -1.05429  -1.05213  -0.96155  -0.95984
 Alpha  occ. eigenvalues --   -0.86837  -0.86610  -0.82995  -0.82814  -0.78019
 Alpha  occ. eigenvalues --   -0.77826  -0.72464  -0.72335  -0.71584  -0.71456
 Alpha  occ. eigenvalues --   -0.71093  -0.70914  -0.65651  -0.65609  -0.65450
 Alpha  occ. eigenvalues --   -0.65130  -0.62829  -0.62495  -0.55933  -0.55740
 Alpha  occ. eigenvalues --   -0.53761  -0.53609  -0.53529  -0.53212  -0.49238
 Alpha  occ. eigenvalues --   -0.49207  -0.49102  -0.49081  -0.45177  -0.45064
 Alpha  occ. eigenvalues --   -0.37984  -0.37790  -0.37035  -0.36806
 Alpha virt. eigenvalues --    0.04555   0.04715   0.10459   0.10829   0.15926
 Alpha virt. eigenvalues --    0.16180   0.18813   0.21851   0.24976   0.27560
 Alpha virt. eigenvalues --    0.27811   0.28409   0.29945   0.31247   0.31774

 Mulliken charges:
               1
     1  C   -0.171524
     2  C   -0.223157
     3  C   -0.169342
     4  C    0.158975
     5  C   -0.168621
     6  C   -0.218198
     7  H    0.225906
     8  H    0.215292
     9  H    0.276909
    10  H    0.278666
    11  H    0.226563
    12  N    0.488182
    13  O   -0.457928
    14  O   -0.459230
    15  C   -0.171353
    16  C   -0.218130
    17  C   -0.169957
    18  C    0.159213
    19  C   -0.170894
    20  C   -0.221257
    21  H    0.223476
    22  H    0.225025
    23  H    0.277380
    24  H    0.277301
    25  H    0.217014
    26  N    0.488072
    27  O   -0.459367
    28  O   -0.459016
 Sum of Mulliken charges =  -0.00000

 Dipole moment (field-independent basis, Debye):
    X=              0.2668    Y=              7.3973    Z=              2.0131  Tot=              7.6710
 Quadrupole moment (field-independent basis, Debye-Ang):
   XX=           -132.1288   YY=           -108.2338   ZZ=           -102.5135
   XY=              8.6505   XZ=            -25.2207   YZ=             -2.5796

 Normal termination of Gaussian 16 at Wed May  5 22:33:35 2021.
