 Gaussian 16, Revision A.03,
 Gaussian 16:  EM64L-G16RevA.03 25-Dec-2016

 -------------
 #p 6-31g* mp2
 -------------

 ------------------------------------------------------
 Input file generated by CHIRIPA (05-May-2021 14:53:18)
 ------------------------------------------------------
 Symbolic Z-matrix:
 Charge =  0 Multiplicity = 1

                         Standard orientation:
 ---------------------------------------------------------------------
 Center     Atomic      Atomic             Coordinates (Angstroms)
 Number     Number       Type             X           Y           Z
 ---------------------------------------------------------------------
      1          6           0        1.952386    1.390134    0.221633
      2          6           0        0.772105    1.806966   -0.656531
      3          6           0       -0.234994    2.686407    0.085175
      4          1           0        1.574223    0.853901    1.102765
      5          1           0        2.457359    2.291010    0.596890
      6          1           0        0.270343    0.905569   -1.031142
      7          1           0        1.153134    2.342102   -1.535771
      8          1           0        0.244956    3.602194    0.445151
      9          1           0       -0.642852    2.157499    0.952648
     10          1           0       -1.070482    2.972775   -0.561210
     11          6           0        2.967800    0.510611   -0.505760
     12          6           0        4.148081    0.093778    0.372404
     13          6           0        5.155180   -0.785663   -0.369302
     14          1           0        2.462827   -0.390266   -0.881017
     15          1           0        3.345963    1.046844   -1.386892
     16          1           0        3.767051   -0.441357    1.251644
     17          1           0        4.649843    0.995176    0.747015
     18          1           0        5.563038   -0.256754   -1.236775
     19          1           0        4.675230   -1.701450   -0.729278
     20          1           0        5.990668   -1.072030    0.277083
     21          6           0        0.070246   -2.252581    0.452573
     22          6           0       -0.319580   -1.368512    1.463997
     23          6           0       -1.421811   -0.527177    1.285691
     24          6           0       -2.114545   -0.596487    0.077964
     25          6           0       -1.750811   -1.466611   -0.948618
     26          6           0       -0.645353   -2.298728   -0.748389
     27          1           0        0.927738   -2.902569    0.599601
     28          1           0        0.234291   -1.330516    2.397715
     29          1           0       -1.745359    0.166677    2.052046
     30          1           0       -2.322656   -1.481749   -1.868500
     31          1           0       -0.344890   -2.984318   -1.535620
     32          7           0       -3.283136    0.289317   -0.122406
     33          8           0       -3.876788    0.209057   -1.195612
     34          8           0       -3.583298    1.047096    0.797545
 ---------------------------------------------------------------------

 SCF Done:  E(RHF) =  -669.533423177     A.U. after   15 cycles
 E2 =    -0.2097980155D+01 EUMP2 =    -0.67163140333196D+03

 The electronic state is 1-A.
 Alpha  occ. eigenvalues --  -20.60891 -20.60868 -15.85923 -11.31324 -11.27918
 Alpha  occ. eigenvalues --  -11.27909 -11.27690 -11.26963 -11.26948 -11.22090
 Alpha  occ. eigenvalues --  -11.21677 -11.21600 -11.21500 -11.21439 -11.20802
 Alpha  occ. eigenvalues --   -1.59947  -1.39501  -1.19555  -1.08928  -1.08643
 Alpha  occ. eigenvalues --   -1.04968  -1.03713  -0.96173  -0.95734  -0.87187
 Alpha  occ. eigenvalues --   -0.86337  -0.82577  -0.79805  -0.78462  -0.77596
 Alpha  occ. eigenvalues --   -0.72148  -0.71288  -0.70652  -0.65370  -0.65191
 Alpha  occ. eigenvalues --   -0.64952  -0.62321  -0.61200  -0.59543  -0.57759
 Alpha  occ. eigenvalues --   -0.55580  -0.55374  -0.53172  -0.53063  -0.52822
 Alpha  occ. eigenvalues --   -0.52552  -0.50128  -0.48914  -0.48900  -0.48087
 Alpha  occ. eigenvalues --   -0.46889  -0.46015  -0.45880  -0.44844  -0.43930
 Alpha  occ. eigenvalues --   -0.37458  -0.36449
 Alpha virt. eigenvalues --    0.04869   0.10961   0.16303   0.20286   0.23031
 Alpha virt. eigenvalues --    0.23976   0.25706   0.26527   0.27039   0.28487
 Alpha virt. eigenvalues --    0.28770   0.30349   0.31210   0.31585   0.31791

 Mulliken charges:
               1
     1  C   -0.296165
     2  C   -0.305470
     3  C   -0.480265
     4  H    0.144452
     5  H    0.149126
     6  H    0.155885
     7  H    0.151833
     8  H    0.154671
     9  H    0.153504
    10  H    0.168352
    11  C   -0.299705
    12  C   -0.298634
    13  C   -0.474770
    14  H    0.146332
    15  H    0.151260
    16  H    0.144023
    17  H    0.154619
    18  H    0.157942
    19  H    0.150004
    20  H    0.160792
    21  C   -0.169886
    22  C   -0.217393
    23  C   -0.172635
    24  C    0.165014
    25  C   -0.173716
    26  C   -0.218048
    27  H    0.227065
    28  H    0.224780
    29  H    0.276574
    30  H    0.276572
    31  H    0.224757
    32  N    0.488696
    33  O   -0.460144
    34  O   -0.459419
 Sum of Mulliken charges =  -0.00000

 Dipole moment (field-independent basis, Debye):
    X=              3.9380    Y=             -3.1359    Z=              0.6800  Tot=              5.0798
 Quadrupole moment (field-independent basis, Debye-Ang):
   XX=           -113.3477   YY=            -90.4841   ZZ=            -90.6956
   XY=              5.4239   XZ=             -0.3736   YZ=              0.7969

 Normal termination of Gaussian 16 at Thu May  6 04:26:14 2021.
