 Gaussian 16, Revision A.03,
 Gaussian 16:  EM64L-G16RevA.03 25-Dec-2016

 -------------
 #p 6-31g* mp2
 -------------

 ------------------------------------------------------
 Input file generated by CHIRIPA (05-May-2021 14:53:14)
 ------------------------------------------------------
 Symbolic Z-matrix:
 Charge =  0 Multiplicity = 1

                         Standard orientation:
 ---------------------------------------------------------------------
 Center     Atomic      Atomic             Coordinates (Angstroms)
 Number     Number       Type             X           Y           Z
 ---------------------------------------------------------------------
      1          6           0       -2.244158    0.735479   -0.203230
      2          6           0       -2.213427    2.037907   -1.003681
      3          6           0       -0.871013    2.762738   -0.901994
      4          1           0       -2.023109    0.954744    0.850338
      5          1           0       -1.441799    0.074946   -0.560036
      6          1           0       -3.016481    2.695231   -0.646407
      7          1           0       -2.434763    1.815541   -2.055432
      8          1           0       -0.061352    2.128483   -1.277188
      9          1           0       -0.646375    3.013171    0.139842
     10          1           0       -0.871114    3.691108   -1.481640
     11          6           0       -3.579614   -0.000634   -0.295001
     12          6           0       -3.610346   -1.303062    0.505450
     13          6           0       -4.952759   -2.027893    0.403763
     14          1           0       -4.381973    0.659899    0.061805
     15          1           0       -3.800663   -0.219899   -1.348569
     16          1           0       -3.389009   -1.080697    1.557201
     17          1           0       -2.807291   -1.960386    0.148176
     18          1           0       -5.177397   -2.278327   -0.638073
     19          1           0       -5.762420   -1.393639    0.778957
     20          1           0       -4.952659   -2.956263    0.983409
     21          6           0        2.663628   -2.461995   -1.023751
     22          6           0        2.201451   -2.472084    0.296405
     23          6           0        1.982558   -1.273058    0.981219
     24          6           0        2.237331   -0.076783    0.312409
     25          6           0        2.698243   -0.033892   -1.002510
     26          6           0        2.910114   -1.245076   -1.667859
     27          1           0        2.830942   -3.398151   -1.548171
     28          1           0        2.009176   -3.415663    0.799132
     29          1           0        1.625139   -1.251892    2.003580
     30          1           0        2.880953    0.922473   -1.477271
     31          1           0        3.269087   -1.234205   -2.693074
     32          7           0        2.009316    1.199008    1.027088
     33          8           0        2.241336    2.239622    0.415593
     34          8           0        1.602896    1.134202    2.185216
 ---------------------------------------------------------------------

 SCF Done:  E(RHF) =  -669.535789557     A.U. after   15 cycles
 E2 =    -0.2092943437D+01 EUMP2 =    -0.67162873299450D+03

 The electronic state is 1-A.
 Alpha  occ. eigenvalues --  -20.60860 -20.60843 -15.85864 -11.31258 -11.27818
 Alpha  occ. eigenvalues --  -11.27810 -11.27556 -11.26833 -11.26823 -11.21478
 Alpha  occ. eigenvalues --  -11.21126 -11.21007 -11.21002 -11.20932 -11.20085
 Alpha  occ. eigenvalues --   -1.59905  -1.39462  -1.19421  -1.08813  -1.08077
 Alpha  occ. eigenvalues --   -1.04822  -1.03121  -0.95660  -0.95532  -0.86553
 Alpha  occ. eigenvalues --   -0.86220  -0.82483  -0.79206  -0.77887  -0.77522
 Alpha  occ. eigenvalues --   -0.72102  -0.71214  -0.70525  -0.65075  -0.64826
 Alpha  occ. eigenvalues --   -0.64710  -0.62169  -0.60519  -0.58966  -0.57160
 Alpha  occ. eigenvalues --   -0.55323  -0.54827  -0.53157  -0.52912  -0.52234
 Alpha  occ. eigenvalues --   -0.51967  -0.49520  -0.48868  -0.48832  -0.47534
 Alpha  occ. eigenvalues --   -0.46250  -0.45475  -0.45317  -0.44660  -0.43380
 Alpha  occ. eigenvalues --   -0.37389  -0.36421
 Alpha virt. eigenvalues --    0.04977   0.11155   0.16458   0.21322   0.23136
 Alpha virt. eigenvalues --    0.24548   0.26785   0.27222   0.27561   0.28074
 Alpha virt. eigenvalues --    0.28696   0.30734   0.31544   0.32087   0.32377

 Mulliken charges:
               1
     1  C   -0.301368
     2  C   -0.300398
     3  C   -0.476029
     4  H    0.156135
     5  H    0.144421
     6  H    0.150987
     7  H    0.146712
     8  H    0.149127
     9  H    0.170932
    10  H    0.157570
    11  C   -0.297347
    12  C   -0.299296
    13  C   -0.475320
    14  H    0.150360
    15  H    0.147606
    16  H    0.153253
    17  H    0.147984
    18  H    0.154130
    19  H    0.156212
    20  H    0.158255
    21  C   -0.170873
    22  C   -0.218611
    23  C   -0.170449
    24  C    0.160237
    25  C   -0.172880
    26  C   -0.218698
    27  H    0.225845
    28  H    0.223854
    29  H    0.276021
    30  H    0.276275
    31  H    0.223759
    32  N    0.488865
    33  O   -0.456702
    34  O   -0.460568
 Sum of Mulliken charges =  -0.00000

 Dipole moment (field-independent basis, Debye):
    X=              0.9642    Y=             -4.3946    Z=             -2.3960  Tot=              5.0973
 Quadrupole moment (field-independent basis, Debye-Ang):
   XX=            -92.5144   YY=            -93.1340   ZZ=            -92.7428
   XY=            -10.2446   XZ=             -7.3459   YZ=             -2.8753

 Normal termination of Gaussian 16 at Thu May  6 07:24:36 2021.
