 Gaussian 16, Revision A.03,
 Gaussian 16:  EM64L-G16RevA.03 25-Dec-2016

 -------------
 #p 6-31g* mp2
 -------------

 ------------------------------------------------------
 Input file generated by CHIRIPA (05-May-2021 14:57:27)
 ------------------------------------------------------
 Symbolic Z-matrix:
 Charge =  0 Multiplicity = 1

                         Standard orientation:
 ---------------------------------------------------------------------
 Center     Atomic      Atomic             Coordinates (Angstroms)
 Number     Number       Type             X           Y           Z
 ---------------------------------------------------------------------
      1          6           0       -5.293847   -2.213250    0.278523
      2          6           0       -6.045657   -1.035023    0.334064
      3          6           0       -5.433760    0.207347    0.142628
      4          6           0       -4.061890    0.234756   -0.103363
      5          6           0       -3.285741   -0.921584   -0.164691
      6          6           0       -3.918713   -2.152877    0.029761
      7          1           0       -5.777369   -3.174051    0.428406
      8          1           0       -7.113769   -1.078882    0.527084
      9          1           0       -5.991871    1.134983    0.180340
     10          1           0       -2.222737   -0.845953   -0.358912
     11          1           0       -3.332342   -3.066279   -0.013927
     12          7           0       -3.402947    1.544134   -0.307624
     13          8           0       -2.192855    1.541341   -0.522815
     14          8           0       -4.109036    2.548424   -0.248666
     15          6           0        1.814059    0.838716    0.348175
     16          6           0        2.036640   -0.503308    0.022673
     17          6           0        3.338031   -0.989471   -0.134086
     18          6           0        4.398304   -0.101871    0.042776
     19          6           0        4.208948    1.240556    0.367316
     20          6           0        2.899011    1.704837    0.519155
     21          1           0        0.799789    1.207880    0.468039
     22          1           0        1.195966   -1.178230   -0.110714
     23          1           0        3.538942   -2.023713   -0.385871
     24          1           0        5.067140    1.889318    0.493940
     25          1           0        2.729149    2.747565    0.771966
     26          7           0        5.780552   -0.604968   -0.120574
     27          8           0        6.697627    0.197301    0.040598
     28          8           0        5.920710   -1.792036   -0.406687
 ---------------------------------------------------------------------

 SCF Done:  E(RHF) =  -868.339321995     A.U. after   16 cycles
 E2 =    -0.2598570380D+01 EUMP2 =    -0.87093789237421D+03

 The electronic state is 1-A.
 Alpha  occ. eigenvalues --  -20.61851 -20.61779 -20.60431 -20.60422 -15.86858
 Alpha  occ. eigenvalues --  -15.85483 -11.32040 -11.30728 -11.28651 -11.28538
 Alpha  occ. eigenvalues --  -11.28250 -11.27566 -11.27507 -11.27360 -11.27289
 Alpha  occ. eigenvalues --  -11.26847 -11.26325 -11.26180  -1.60874  -1.59509
 Alpha  occ. eigenvalues --   -1.40439  -1.39066  -1.20184  -1.18890  -1.09603
 Alpha  occ. eigenvalues --   -1.08268  -1.05566  -1.04299  -0.96475  -0.95123
 Alpha  occ. eigenvalues --   -0.86969  -0.85683  -0.83322  -0.81980  -0.78401
 Alpha  occ. eigenvalues --   -0.77080  -0.73091  -0.72180  -0.71701  -0.71288
 Alpha  occ. eigenvalues --   -0.70832  -0.69877  -0.65841  -0.65562  -0.64531
 Alpha  occ. eigenvalues --   -0.64308  -0.62928  -0.61668  -0.56048  -0.54635
 Alpha  occ. eigenvalues --   -0.53891  -0.53657  -0.52611  -0.52390  -0.49852
 Alpha  occ. eigenvalues --   -0.49803  -0.48464  -0.48448  -0.45881  -0.44499
 Alpha  occ. eigenvalues --   -0.38132  -0.37157  -0.36801  -0.35923
 Alpha virt. eigenvalues --    0.04117   0.05487   0.10502   0.11746   0.15642
 Alpha virt. eigenvalues --    0.17022   0.19443   0.21882   0.25360   0.27004
 Alpha virt. eigenvalues --    0.28342   0.28975   0.30747   0.31274   0.32056

 Mulliken charges:
               1
     1  C   -0.169835
     2  C   -0.218113
     3  C   -0.170105
     4  C    0.158751
     5  C   -0.170258
     6  C   -0.217736
     7  H    0.228726
     8  H    0.226448
     9  H    0.277427
    10  H    0.267662
    11  H    0.224458
    12  N    0.491911
    13  O   -0.472740
    14  O   -0.454468
    15  C   -0.175270
    16  C   -0.219426
    17  C   -0.171260
    18  C    0.157255
    19  C   -0.170835
    20  C   -0.220202
    21  H    0.246494
    22  H    0.214030
    23  H    0.272262
    24  H    0.274509
    25  H    0.226054
    26  N    0.488309
    27  O   -0.461189
    28  O   -0.462859
 Sum of Mulliken charges =  -0.00000

 Dipole moment (field-independent basis, Debye):
    X=             -7.6891    Y=             -2.7221    Z=              1.3430  Tot=              8.2665
 Quadrupole moment (field-independent basis, Debye-Ang):
   XX=           -124.0707   YY=           -102.3362   ZZ=           -106.3850
   XY=             26.8021   XZ=             -0.6817   YZ=              2.0860

 Normal termination of Gaussian 16 at Fri May  7 00:31:07 2021.
