 Gaussian 16, Revision A.03,
 Gaussian 16:  EM64L-G16RevA.03 25-Dec-2016

 -------------
 #p 6-31g* mp2
 -------------

 ------------------------------------------------------
 Input file generated by CHIRIPA (05-May-2021 14:53:16)
 ------------------------------------------------------
 Symbolic Z-matrix:
 Charge =  0 Multiplicity = 1

                         Standard orientation:
 ---------------------------------------------------------------------
 Center     Atomic      Atomic             Coordinates (Angstroms)
 Number     Number       Type             X           Y           Z
 ---------------------------------------------------------------------
      1          6           0       -3.314380    0.672953    0.101913
      2          6           0       -3.131611    1.896122   -0.797219
      3          6           0       -2.636726    3.123763   -0.031855
      4          1           0       -4.024539    0.917900    0.903549
      5          1           0       -2.358534    0.440277    0.591418
      6          1           0       -4.087176    2.125586   -1.285949
      7          1           0       -2.421951    1.648175   -1.596919
      8          1           0       -1.671551    2.918751    0.442496
      9          1           0       -3.346238    3.398875    0.755232
     10          1           0       -2.512977    3.986556   -0.693772
     11          6           0       -3.808706   -0.562302   -0.648764
     12          6           0       -3.991475   -1.785471    0.250367
     13          6           0       -4.486360   -3.013111   -0.514997
     14          1           0       -4.764551   -0.329625   -1.138269
     15          1           0       -3.098547   -0.807249   -1.450400
     16          1           0       -4.701135   -1.537523    1.050067
     17          1           0       -3.035910   -2.014935    0.739097
     18          1           0       -3.776848   -3.288223   -1.302084
     19          1           0       -5.451535   -2.808099   -0.989347
     20          1           0       -4.610109   -3.875904    0.146921
     21          6           0        0.870750    0.601132    1.728906
     22          6           0        1.589926   -0.574025    1.970389
     23          6           0        2.651044   -0.940925    1.137347
     24          6           0        2.967272   -0.105518    0.067121
     25          6           0        2.269713    1.071596   -0.199539
     26          6           0        1.212336    1.418750    0.646620
     27          1           0        0.047900    0.878480    2.381127
     28          1           0        1.326875   -1.210920    2.810158
     29          1           0        3.224550   -1.845155    1.301298
     30          1           0        2.555427    1.686218   -1.044538
     31          1           0        0.655569    2.331972    0.456671
     32          7           0        4.088650   -0.483486   -0.821726
     33          8           0        4.347415    0.269619   -1.757948
     34          8           0        4.687589   -1.525687   -0.565353
 ---------------------------------------------------------------------

 SCF Done:  E(RHF) =  -669.535581101     A.U. after   15 cycles
 E2 =    -0.2091859597D+01 EUMP2 =    -0.67162744069786D+03

 The electronic state is 1-A.
 Alpha  occ. eigenvalues --  -20.60797 -20.60792 -15.85850 -11.31233 -11.27797
 Alpha  occ. eigenvalues --  -11.27791 -11.27542 -11.26817 -11.26799 -11.22369
 Alpha  occ. eigenvalues --  -11.22115 -11.22106 -11.22103 -11.21909 -11.21451
 Alpha  occ. eigenvalues --   -1.59872  -1.39425  -1.19405  -1.09081  -1.08796
 Alpha  occ. eigenvalues --   -1.04808  -1.04193  -0.96656  -0.95629  -0.87674
 Alpha  occ. eigenvalues --   -0.86207  -0.82457  -0.80262  -0.78880  -0.77505
 Alpha  occ. eigenvalues --   -0.72069  -0.71195  -0.70508  -0.65739  -0.65054
 Alpha  occ. eigenvalues --   -0.64816  -0.62212  -0.61534  -0.60025  -0.58253
 Alpha  occ. eigenvalues --   -0.55987  -0.55284  -0.53342  -0.53148  -0.53129
 Alpha  occ. eigenvalues --   -0.52837  -0.50586  -0.48830  -0.48823  -0.48570
 Alpha  occ. eigenvalues --   -0.47286  -0.46426  -0.46326  -0.44827  -0.44432
 Alpha  occ. eigenvalues --   -0.37372  -0.36405
 Alpha virt. eigenvalues --    0.05000   0.11159   0.16422   0.19386   0.22693
 Alpha virt. eigenvalues --    0.23807   0.25484   0.26143   0.26594   0.28117
 Alpha virt. eigenvalues --    0.28997   0.29992   0.31050   0.31507   0.31545

 Mulliken charges:
               1
     1  C   -0.300528
     2  C   -0.300113
     3  C   -0.478448
     4  H    0.149479
     5  H    0.145603
     6  H    0.155975
     7  H    0.154575
     8  H    0.143349
     9  H    0.158577
    10  H    0.164237
    11  C   -0.298732
    12  C   -0.299853
    13  C   -0.476186
    14  H    0.151310
    15  H    0.152809
    16  H    0.151455
    17  H    0.150155
    18  H    0.157278
    19  H    0.156262
    20  H    0.160941
    21  C   -0.172661
    22  C   -0.219206
    23  C   -0.171139
    24  C    0.158977
    25  C   -0.171738
    26  C   -0.223078
    27  H    0.227031
    28  H    0.223836
    29  H    0.275794
    30  H    0.276144
    31  H    0.230446
    32  N    0.487933
    33  O   -0.460214
    34  O   -0.460270
 Sum of Mulliken charges =  -0.00000

 Dipole moment (field-independent basis, Debye):
    X=             -4.0650    Y=              1.2912    Z=              3.0504  Tot=              5.2437
 Quadrupole moment (field-independent basis, Debye-Ang):
   XX=           -117.5147   YY=            -92.6471   ZZ=            -93.4230
   XY=              2.9945   XZ=              9.5104   YZ=             -3.2920

 Normal termination of Gaussian 16 at Thu May  6 13:53:20 2021.
