 Gaussian 16, Revision A.03,
 Gaussian 16:  EM64L-G16RevA.03 25-Dec-2016

 -------------
 #p 6-31g* mp2
 -------------

 ------------------------------------------------------
 Input file generated by CHIRIPA (05-May-2021 14:53:13)
 ------------------------------------------------------
 Symbolic Z-matrix:
 Charge =  0 Multiplicity = 1

                         Standard orientation:
 ---------------------------------------------------------------------
 Center     Atomic      Atomic             Coordinates (Angstroms)
 Number     Number       Type             X           Y           Z
 ---------------------------------------------------------------------
      1          6           0        3.112256    1.016527    0.167651
      2          6           0        3.549607    2.317611   -0.506064
      3          6           0        2.901306    3.553582    0.118335
      4          1           0        2.018824    0.929096    0.106779
      5          1           0        3.363097    1.062892    1.236446
      6          1           0        3.299267    2.268244   -1.573541
      7          1           0        4.642143    2.401862   -0.443750
      8          1           0        3.161120    3.630551    1.179077
      9          1           0        1.810613    3.496174    0.042867
     10          1           0        3.227855    4.472494   -0.378481
     11          6           0        3.751910   -0.227924   -0.445466
     12          6           0        3.314559   -1.529007    0.228248
     13          6           0        3.962860   -2.764978   -0.396151
     14          1           0        3.501069   -0.274289   -1.514262
     15          1           0        4.845343   -0.140492   -0.384594
     16          1           0        2.222023   -1.613258    0.165934
     17          1           0        3.564899   -1.479640    1.295726
     18          1           0        5.053553   -2.707570   -0.320682
     19          1           0        3.703046   -2.841947   -1.456893
     20          1           0        3.636311   -3.683890    0.100665
     21          6           0       -0.709788   -1.711868    0.821470
     22          6           0       -1.219356   -0.732944    1.680869
     23          6           0       -2.311379    0.050732    1.296312
     24          6           0       -2.871915   -0.172332    0.039596
     25          6           0       -2.386940   -1.139849   -0.839039
     26          6           0       -1.294176   -1.911843   -0.433530
     27          1           0        0.138811   -2.316109    1.128341
     28          1           0       -0.767521   -0.575437    2.656103
     29          1           0       -2.725919    0.815474    1.941870
     30          1           0       -2.858505   -1.273641   -1.805033
     31          1           0       -0.900539   -2.671366   -1.103022
     32          7           0       -4.028383    0.651127   -0.378608
     33          8           0       -4.504357    0.435005   -1.490983
     34          8           0       -4.436952    1.497086    0.413897
 ---------------------------------------------------------------------

 SCF Done:  E(RHF) =  -669.535514277     A.U. after   15 cycles
 E2 =    -0.2091895712D+01 EUMP2 =    -0.67162740998881D+03

 The electronic state is 1-A.
 Alpha  occ. eigenvalues --  -20.60800 -20.60794 -15.85854 -11.31236 -11.27803
 Alpha  occ. eigenvalues --  -11.27798 -11.27522 -11.26825 -11.26812 -11.22483
 Alpha  occ. eigenvalues --  -11.22016 -11.21961 -11.21911 -11.21854 -11.21335
 Alpha  occ. eigenvalues --   -1.59875  -1.39428  -1.19411  -1.09027  -1.08798
 Alpha  occ. eigenvalues --   -1.04811  -1.04122  -0.96545  -0.95634  -0.87563
 Alpha  occ. eigenvalues --   -0.86205  -0.82467  -0.80222  -0.78819  -0.77506
 Alpha  occ. eigenvalues --   -0.72071  -0.71199  -0.70529  -0.65654  -0.65058
 Alpha  occ. eigenvalues --   -0.64805  -0.62154  -0.61520  -0.59955  -0.58165
 Alpha  occ. eigenvalues --   -0.55828  -0.55312  -0.53269  -0.53133  -0.52966
 Alpha  occ. eigenvalues --   -0.52898  -0.50482  -0.48835  -0.48825  -0.48507
 Alpha  occ. eigenvalues --   -0.47246  -0.46353  -0.46253  -0.44830  -0.44360
 Alpha  occ. eigenvalues --   -0.37351  -0.36416
 Alpha virt. eigenvalues --    0.04983   0.11209   0.16359   0.20581   0.22577
 Alpha virt. eigenvalues --    0.23820   0.25981   0.26408   0.27149   0.27460
 Alpha virt. eigenvalues --    0.28866   0.30377   0.30931   0.31440   0.32304

 Mulliken charges:
               1
     1  C   -0.300871
     2  C   -0.300008
     3  C   -0.476365
     4  H    0.152284
     5  H    0.147629
     6  H    0.153480
     7  H    0.152359
     8  H    0.154292
     9  H    0.157143
    10  H    0.162315
    11  C   -0.297324
    12  C   -0.305914
    13  C   -0.476053
    14  H    0.151153
    15  H    0.151860
    16  H    0.146971
    17  H    0.151184
    18  H    0.159597
    19  H    0.156225
    20  H    0.157036
    21  C   -0.170014
    22  C   -0.219845
    23  C   -0.171280
    24  C    0.158615
    25  C   -0.170913
    26  C   -0.220407
    27  H    0.229215
    28  H    0.224502
    29  H    0.275903
    30  H    0.275751
    31  H    0.223975
    32  N    0.488043
    33  O   -0.460329
    34  O   -0.460206
 Sum of Mulliken charges =  -0.00000

 Dipole moment (field-independent basis, Debye):
    X=              4.1255    Y=             -2.8273    Z=              1.4436  Tot=              5.2055
 Quadrupole moment (field-independent basis, Debye-Ang):
   XX=           -118.2112   YY=            -94.0534   ZZ=            -90.6485
   XY=              8.3208   XZ=             -3.4647   YZ=              1.7930

 Normal termination of Gaussian 16 at Thu May  6 15:24:58 2021.
