 Gaussian 16, Revision A.03,
 Gaussian 16:  EM64L-G16RevA.03 25-Dec-2016

 -------------
 #p 6-31g* mp2
 -------------

 ------------------------------------------------------
 Input file generated by CHIRIPA (05-May-2021 14:57:27)
 ------------------------------------------------------
 Symbolic Z-matrix:
 Charge =  0 Multiplicity = 1

                         Standard orientation:
 ---------------------------------------------------------------------
 Center     Atomic      Atomic             Coordinates (Angstroms)
 Number     Number       Type             X           Y           Z
 ---------------------------------------------------------------------
      1          6           0       -3.122018    2.342250   -0.736865
      2          6           0       -4.313705    1.611319   -0.690564
      3          6           0       -4.297917    0.245834   -0.390982
      4          6           0       -3.067125   -0.359464   -0.141872
      5          6           0       -1.862877    0.341668   -0.180475
      6          6           0       -1.902557    1.706213   -0.482122
      7          1           0       -3.143562    3.402626   -0.970389
      8          1           0       -5.262216    2.102647   -0.887966
      9          1           0       -5.205533   -0.343951   -0.348494
     10          1           0       -0.932765   -0.175791    0.020883
     11          1           0       -0.975511    2.271356   -0.517384
     12          7           0       -3.037765   -1.804544    0.176375
     13          8           0       -1.940425   -2.314445    0.391976
     14          8           0       -4.112647   -2.399935    0.204189
     15          6           0        1.436109    1.474136    1.558043
     16          6           0        1.372238    0.076912    1.572400
     17          6           0        2.273510   -0.682802    0.820675
     18          6           0        3.230113   -0.009490    0.062484
     19          6           0        3.319213    1.381239    0.027479
     20          6           0        2.407680    2.120700    0.786988
     21          1           0        0.731994    2.056434    2.145023
     22          1           0        0.618757   -0.427912    2.170283
     23          1           0        2.246532   -1.765687    0.813526
     24          1           0        4.081428    1.856089   -0.578295
     25          1           0        2.459638    3.205677    0.773923
     26          7           0        4.189681   -0.803045   -0.737454
     27          8           0        5.023070   -0.185893   -1.397168
     28          8           0        4.090231   -2.027159   -0.689583
 ---------------------------------------------------------------------

 SCF Done:  E(RHF) =  -868.337907889     A.U. after   16 cycles
 E2 =    -0.2602073918D+01 EUMP2 =    -0.87093998180662D+03

 The electronic state is 1-A.
 Alpha  occ. eigenvalues --  -20.61276 -20.61243 -20.61030 -20.61006 -15.86308
 Alpha  occ. eigenvalues --  -15.86080 -11.31652 -11.31606 -11.28292 -11.28180
 Alpha  occ. eigenvalues --  -11.28174 -11.28087 -11.28084 -11.27939 -11.27380
 Alpha  occ. eigenvalues --  -11.27206 -11.27187 -11.27170  -1.60330  -1.60093
 Alpha  occ. eigenvalues --   -1.39889  -1.39638  -1.19888  -1.19782  -1.09251
 Alpha  occ. eigenvalues --   -1.09200  -1.05311  -1.05153  -0.96050  -0.96014
 Alpha  occ. eigenvalues --   -0.86725  -0.86535  -0.82886  -0.82812  -0.77974
 Alpha  occ. eigenvalues --   -0.77784  -0.72530  -0.72292  -0.71652  -0.71422
 Alpha  occ. eigenvalues --   -0.70962  -0.70905  -0.65516  -0.65432  -0.65331
 Alpha  occ. eigenvalues --   -0.65111  -0.62681  -0.62433  -0.55797  -0.55723
 Alpha  occ. eigenvalues --   -0.53680  -0.53492  -0.53372  -0.53153  -0.49290
 Alpha  occ. eigenvalues --   -0.49271  -0.49071  -0.49032  -0.45305  -0.44996
 Alpha  occ. eigenvalues --   -0.37960  -0.37790  -0.36943  -0.36680
 Alpha virt. eigenvalues --    0.04484   0.04732   0.10455   0.11022   0.15827
 Alpha virt. eigenvalues --    0.16235   0.20513   0.21578   0.26646   0.26832
 Alpha virt. eigenvalues --    0.28039   0.28266   0.30326   0.30997   0.32090

 Mulliken charges:
               1
     1  C   -0.170505
     2  C   -0.218817
     3  C   -0.169938
     4  C    0.158471
     5  C   -0.180419
     6  C   -0.226559
     7  H    0.225582
     8  H    0.224670
     9  H    0.276663
    10  H    0.283274
    11  H    0.222899
    12  N    0.488106
    13  O   -0.464896
    14  O   -0.457314
    15  C   -0.176087
    16  C   -0.235549
    17  C   -0.169632
    18  C    0.158999
    19  C   -0.169874
    20  C   -0.223403
    21  H    0.227689
    22  H    0.237614
    23  H    0.286183
    24  H    0.277304
    25  H    0.223145
    26  N    0.487923
    27  O   -0.460342
    28  O   -0.455186
 Sum of Mulliken charges =  -0.00000

 Dipole moment (field-independent basis, Debye):
    X=             -3.3340    Y=              7.6947    Z=              1.7185  Tot=              8.5603
 Quadrupole moment (field-independent basis, Debye-Ang):
   XX=           -119.8423   YY=           -105.7598   ZZ=           -104.9188
   XY=             -4.6134   XZ=             12.3091   YZ=             -1.8543

 Normal termination of Gaussian 16 at Thu May  6 03:38:21 2021.
