 Gaussian 16, Revision A.03,
 Gaussian 16:  EM64L-G16RevA.03 25-Dec-2016

 -------------
 #p 6-31g* mp2
 -------------

 ------------------------------------------------------
 Input file generated by CHIRIPA (05-May-2021 14:55:19)
 ------------------------------------------------------
 Symbolic Z-matrix:
 Charge =  0 Multiplicity = 1

                         Standard orientation:
 ---------------------------------------------------------------------
 Center     Atomic      Atomic             Coordinates (Angstroms)
 Number     Number       Type             X           Y           Z
 ---------------------------------------------------------------------
      1          6           0       -4.733588   -1.748415    0.365412
      2          6           0       -3.514462   -1.864362   -0.310463
      3          6           0       -2.723599   -0.736007   -0.546895
      4          6           0       -3.184492    0.498309   -0.091558
      5          6           0       -4.394461    0.646207    0.584749
      6          6           0       -5.168930   -0.495710    0.810077
      7          1           0       -5.341582   -2.630216    0.544764
      8          1           0       -3.173859   -2.835954   -0.656934
      9          1           0       -1.775664   -0.797199   -1.067562
     10          1           0       -4.707529    1.628174    0.918136
     11          1           0       -6.115287   -0.402670    1.335240
     12          7           0       -2.355919    1.700026   -0.335980
     13          8           0       -2.784308    2.776117    0.075297
     14          8           0       -1.293784    1.543086   -0.934207
     15          6           0        3.750216   -0.900344   -0.192097
     16          6           0        2.306725   -0.599233    0.212441
     17          6           0        1.316754   -1.640474   -0.310597
     18          1           0        3.814225   -0.951391   -1.287652
     19          1           0        4.029299   -1.894369    0.183965
     20          1           0        2.030902    0.394506   -0.163085
     21          1           0        2.246183   -0.548708    1.307155
     22          1           0        1.564237   -2.634950    0.074590
     23          1           0        1.347734   -1.686378   -1.404002
     24          1           0        0.290933   -1.405771   -0.009820
     25          6           0        4.751675    0.131701    0.323359
     26          6           0        6.195166   -0.169409   -0.081178
     27          6           0        7.185137    0.871832    0.441860
     28          1           0        4.472592    1.125725   -0.052703
     29          1           0        4.687666    0.182748    1.418915
     30          1           0        6.255708   -0.219935   -1.175891
     31          1           0        6.470988   -1.163149    0.294348
     32          1           0        7.154158    0.917734    1.535265
     33          1           0        6.937655    1.866307    0.056672
     34          1           0        8.210958    0.637129    0.141083
 ---------------------------------------------------------------------

 SCF Done:  E(RHF) =  -669.535718186     A.U. after   15 cycles
 E2 =    -0.2091363141D+01 EUMP2 =    -0.67162708132756D+03

 The electronic state is 1-A.
 Alpha  occ. eigenvalues --  -20.60812 -20.60806 -15.85857 -11.31205 -11.27776
 Alpha  occ. eigenvalues --  -11.27733 -11.27515 -11.26794 -11.26778 -11.21304
 Alpha  occ. eigenvalues --  -11.21181 -11.21060 -11.21018 -11.20994 -11.20783
 Alpha  occ. eigenvalues --   -1.59881  -1.39434  -1.19379  -1.08777  -1.08095
 Alpha  occ. eigenvalues --   -1.04779  -1.03239  -0.95745  -0.95603  -0.86769
 Alpha  occ. eigenvalues --   -0.86172  -0.82444  -0.79299  -0.77892  -0.77495
 Alpha  occ. eigenvalues --   -0.72078  -0.71200  -0.70493  -0.65031  -0.64795
 Alpha  occ. eigenvalues --   -0.64712  -0.62164  -0.60623  -0.59089  -0.57326
 Alpha  occ. eigenvalues --   -0.55287  -0.55015  -0.53135  -0.52951  -0.52345
 Alpha  occ. eigenvalues --   -0.52135  -0.49665  -0.48835  -0.48831  -0.47617
 Alpha  occ. eigenvalues --   -0.46299  -0.45453  -0.45345  -0.44833  -0.43503
 Alpha  occ. eigenvalues --   -0.37360  -0.36370
 Alpha virt. eigenvalues --    0.04991   0.11195   0.16514   0.21106   0.23195
 Alpha virt. eigenvalues --    0.24344   0.26756   0.27054   0.27838   0.27911
 Alpha virt. eigenvalues --    0.29170   0.31040   0.31625   0.31654   0.32208

 Mulliken charges:
               1
     1  C   -0.170664
     2  C   -0.220032
     3  C   -0.174292
     4  C    0.157650
     5  C   -0.170890
     6  C   -0.218388
     7  H    0.225710
     8  H    0.224412
     9  H    0.281736
    10  H    0.275579
    11  H    0.223526
    12  N    0.488346
    13  O   -0.459989
    14  O   -0.461418
    15  C   -0.298764
    16  C   -0.301247
    17  C   -0.478945
    18  H    0.149583
    19  H    0.146466
    20  H    0.167899
    21  H    0.150515
    22  H    0.151576
    23  H    0.154444
    24  H    0.156200
    25  C   -0.298755
    26  C   -0.299441
    27  C   -0.475665
    28  H    0.153297
    29  H    0.149109
    30  H    0.151783
    31  H    0.150350
    32  H    0.154769
    33  H    0.156400
    34  H    0.159138
 Sum of Mulliken charges =  -0.00000

 Dipole moment (field-independent basis, Debye):
    X=             -2.9572    Y=             -4.1166    Z=              0.8470  Tot=              5.1390
 Quadrupole moment (field-independent basis, Debye-Ang):
   XX=            -74.9633   YY=            -98.1799   ZZ=            -93.9522
   XY=              9.7286   XZ=             -4.6189   YZ=              1.6495

 Normal termination of Gaussian 16 at Thu May  6 15:43:57 2021.
