 Gaussian 16, Revision A.03,
 Gaussian 16:  EM64L-G16RevA.03 25-Dec-2016

 -------------
 #p 6-31g* mp2
 -------------

 ------------------------------------------------------
 Input file generated by CHIRIPA (05-May-2021 14:55:21)
 ------------------------------------------------------
 Symbolic Z-matrix:
 Charge =  0 Multiplicity = 1

                         Standard orientation:
 ---------------------------------------------------------------------
 Center     Atomic      Atomic             Coordinates (Angstroms)
 Number     Number       Type             X           Y           Z
 ---------------------------------------------------------------------
      1          6           0       -1.839621    1.853664   -0.949606
      2          6           0       -3.228258    1.959804   -0.819442
      3          6           0       -3.984552    0.872646   -0.371498
      4          6           0       -3.316614   -0.310923   -0.061155
      5          6           0       -1.934467   -0.447793   -0.180427
      6          6           0       -1.198288    0.652322   -0.630246
      7          1           0       -1.259927    2.703227   -1.298308
      8          1           0       -3.729005    2.891547   -1.066736
      9          1           0       -5.060812    0.927358   -0.261542
     10          1           0       -1.463524   -1.389618    0.073731
     11          1           0       -0.119983    0.567014   -0.730370
     12          7           0       -4.106621   -1.468707    0.414056
     13          8           0       -3.494337   -2.500442    0.681016
     14          8           0       -5.323154   -1.322520    0.510568
     15          6           0        4.182688   -0.498359   -0.205362
     16          6           0        5.569912   -1.107912   -0.000325
     17          6           0        5.762902   -2.412079   -0.774726
     18          1           0        3.420018   -1.226235    0.103627
     19          1           0        4.024707   -0.316138   -1.277385
     20          1           0        5.725770   -1.287647    1.071131
     21          1           0        6.329372   -0.378427   -0.309660
     22          1           0        5.634090   -2.244895   -1.848997
     23          1           0        5.027058   -3.159280   -0.460360
     24          1           0        6.761327   -2.830546   -0.613822
     25          6           0        3.974525    0.805830    0.562419
     26          6           0        2.587302    1.415384    0.357381
     27          6           0        2.394312    2.719552    1.131782
     28          1           0        4.132506    0.623610    1.634442
     29          1           0        4.737196    1.533707    0.253429
     30          1           0        1.827841    0.685900    0.666717
     31          1           0        2.431443    1.595120   -0.714075
     32          1           0        3.130156    3.466752    0.817416
     33          1           0        2.523124    2.552367    2.206053
     34          1           0        1.395885    3.138018    0.970879
 ---------------------------------------------------------------------

 SCF Done:  E(RHF) =  -669.535504543     A.U. after   15 cycles
 E2 =    -0.2091497053D+01 EUMP2 =    -0.67162700159528D+03

 The electronic state is 1-A.
 Alpha  occ. eigenvalues --  -20.60725 -20.60720 -15.85777 -11.31132 -11.27697
 Alpha  occ. eigenvalues --  -11.27679 -11.27427 -11.26716 -11.26623 -11.22712
 Alpha  occ. eigenvalues --  -11.22177 -11.22115 -11.22042 -11.22003 -11.21466
 Alpha  occ. eigenvalues --   -1.59801  -1.39355  -1.19296  -1.09197  -1.08692
 Alpha  occ. eigenvalues --   -1.04697  -1.04272  -0.96684  -0.95533  -0.87704
 Alpha  occ. eigenvalues --   -0.86095  -0.82369  -0.80400  -0.79002  -0.77404
 Alpha  occ. eigenvalues --   -0.71996  -0.71123  -0.70409  -0.65823  -0.64945
 Alpha  occ. eigenvalues --   -0.64708  -0.62084  -0.61646  -0.60069  -0.58302
 Alpha  occ. eigenvalues --   -0.55946  -0.55200  -0.53405  -0.53127  -0.53015
 Alpha  occ. eigenvalues --   -0.52781  -0.50619  -0.48807  -0.48752  -0.48596
 Alpha  occ. eigenvalues --   -0.47416  -0.46511  -0.46427  -0.44763  -0.44518
 Alpha  occ. eigenvalues --   -0.37277  -0.36291
 Alpha virt. eigenvalues --    0.05106   0.11295   0.16567   0.20139   0.22468
 Alpha virt. eigenvalues --    0.23879   0.25468   0.25753   0.26715   0.28325
 Alpha virt. eigenvalues --    0.28823   0.30435   0.30665   0.31543   0.32115

 Mulliken charges:
               1
     1  C   -0.173793
     2  C   -0.218325
     3  C   -0.171387
     4  C    0.158981
     5  C   -0.173365
     6  C   -0.224313
     7  H    0.225442
     8  H    0.223091
     9  H    0.275339
    10  H    0.275120
    11  H    0.235123
    12  N    0.488058
    13  O   -0.460648
    14  O   -0.460617
    15  C   -0.299497
    16  C   -0.300203
    17  C   -0.476351
    18  H    0.148884
    19  H    0.148694
    20  H    0.153804
    21  H    0.152908
    22  H    0.155341
    23  H    0.156533
    24  H    0.162335
    25  C   -0.297299
    26  C   -0.307184
    27  C   -0.475125
    28  H    0.153387
    29  H    0.152227
    30  H    0.150503
    31  H    0.146957
    32  H    0.158173
    33  H    0.160722
    34  H    0.156486
 Sum of Mulliken charges =  -0.00000

 Dipole moment (field-independent basis, Debye):
    X=              3.0218    Y=              4.0848    Z=             -1.6068  Tot=              5.3291
 Quadrupole moment (field-independent basis, Debye-Ang):
   XX=           -108.9973   YY=            -96.8062   ZZ=            -94.8966
   XY=            -16.6746   XZ=              5.8965   YZ=             -0.7958

 Normal termination of Gaussian 16 at Thu May  6 04:35:08 2021.
