 Gaussian 16, Revision A.03,
 Gaussian 16:  EM64L-G16RevA.03 25-Dec-2016

 -------------
 #p 6-31g* mp2
 -------------

 ------------------------------------------------------
 Input file generated by CHIRIPA (05-May-2021 14:57:22)
 ------------------------------------------------------
 Symbolic Z-matrix:
 Charge =  0 Multiplicity = 1

                         Standard orientation:
 ---------------------------------------------------------------------
 Center     Atomic      Atomic             Coordinates (Angstroms)
 Number     Number       Type             X           Y           Z
 ---------------------------------------------------------------------
      1          6           0        3.046792    2.190275    0.727594
      2          6           0        1.964603    2.192376   -0.158625
      3          6           0        1.552078    1.009014   -0.778323
      4          6           0        2.247559   -0.163621   -0.487597
      5          6           0        3.329514   -0.198016    0.390743
      6          6           0        3.724598    0.997189    0.998971
      7          1           0        3.360477    3.114139    1.204535
      8          1           0        1.436344    3.117456   -0.371261
      9          1           0        0.717586    0.982139   -1.468482
     10          1           0        3.836455   -1.135839    0.582880
     11          1           0        4.565387    0.992569    1.686793
     12          7           0        1.820068   -1.422662   -1.137572
     13          8           0        2.449380   -2.442538   -0.864700
     14          8           0        0.863785   -1.365784   -1.907587
     15          6           0       -3.398301    1.909107   -0.796273
     16          6           0       -2.254366    2.107569   -0.016179
     17          6           0       -1.647430    1.032783    0.640333
     18          6           0       -2.213576   -0.232691    0.494236
     19          6           0       -3.352604   -0.462485   -0.275895
     20          6           0       -3.942809    0.626974   -0.923417
     21          1           0       -3.863286    2.749727   -1.302775
     22          1           0       -1.829308    3.102187    0.084359
     23          1           0       -0.761213    1.158135    1.250517
     24          1           0       -3.753284   -1.465613   -0.357189
     25          1           0       -4.831139    0.469880   -1.528592
     26          7           0       -1.579896   -1.378287    1.184498
     27          8           0       -2.098122   -2.483340    1.039806
     28          8           0       -0.576990   -1.149459    1.857145
 ---------------------------------------------------------------------

 SCF Done:  E(RHF) =  -868.336864160     A.U. after   16 cycles
 E2 =    -0.2603518621D+01 EUMP2 =    -0.87094038278129D+03

 The electronic state is 1-A.
 Alpha  occ. eigenvalues --  -20.60561 -20.60504 -20.60429 -20.60370 -15.85589
 Alpha  occ. eigenvalues --  -15.85461 -11.31074 -11.30958 -11.27716 -11.27649
 Alpha  occ. eigenvalues --  -11.27634 -11.27530 -11.27523 -11.27432 -11.26847
 Alpha  occ. eigenvalues --  -11.26760 -11.26688 -11.26582  -1.59593  -1.59457
 Alpha  occ. eigenvalues --   -1.39149  -1.39017  -1.19308  -1.19179  -1.08668
 Alpha  occ. eigenvalues --   -1.08557  -1.04808  -1.04584  -0.95485  -0.95357
 Alpha  occ. eigenvalues --   -0.86149  -0.86009  -0.82360  -0.82182  -0.77367
 Alpha  occ. eigenvalues --   -0.77194  -0.71821  -0.71692  -0.71092  -0.70563
 Alpha  occ. eigenvalues --   -0.70447  -0.70293  -0.64972  -0.64856  -0.64791
 Alpha  occ. eigenvalues --   -0.64645  -0.62166  -0.61926  -0.55257  -0.55159
 Alpha  occ. eigenvalues --   -0.53251  -0.52978  -0.52738  -0.52567  -0.48580
 Alpha  occ. eigenvalues --   -0.48550  -0.48455  -0.48423  -0.44542  -0.44401
 Alpha  occ. eigenvalues --   -0.37315  -0.37160  -0.36740  -0.35779
 Alpha virt. eigenvalues --    0.05150   0.05407   0.10805   0.11874   0.16387
 Alpha virt. eigenvalues --    0.16952   0.20567   0.21938   0.25915   0.28153
 Alpha virt. eigenvalues --    0.28345   0.28457   0.30126   0.32021   0.32574

 Mulliken charges:
               1
     1  C   -0.170380
     2  C   -0.226961
     3  C   -0.175512
     4  C    0.168472
     5  C   -0.163973
     6  C   -0.217958
     7  H    0.223873
     8  H    0.215501
     9  H    0.275719
    10  H    0.278556
    11  H    0.224099
    12  N    0.489738
    13  O   -0.454201
    14  O   -0.466290
    15  C   -0.170063
    16  C   -0.225801
    17  C   -0.176180
    18  C    0.164134
    19  C   -0.165282
    20  C   -0.218479
    21  H    0.224495
    22  H    0.215984
    23  H    0.277455
    24  H    0.278695
    25  H    0.224441
    26  N    0.489708
    27  O   -0.453537
    28  O   -0.466253
 Sum of Mulliken charges =  -0.00000

 Dipole moment (field-independent basis, Debye):
    X=             -0.6956    Y=              7.9636    Z=             -0.1054  Tot=              7.9946
 Quadrupole moment (field-independent basis, Debye-Ang):
   XX=            -82.7938   YY=           -106.3729   ZZ=           -109.1046
   XY=              1.7058   XZ=             12.6606   YZ=             -0.0207

 Normal termination of Gaussian 16 at Wed May  5 17:48:54 2021.
