 Gaussian 16, Revision A.03,
 Gaussian 16:  EM64L-G16RevA.03 25-Dec-2016

 -------------
 #p 6-31g* mp2
 -------------

 ------------------------------------------------------
 Input file generated by CHIRIPA (05-May-2021 14:55:19)
 ------------------------------------------------------
 Symbolic Z-matrix:
 Charge =  0 Multiplicity = 1

                         Standard orientation:
 ---------------------------------------------------------------------
 Center     Atomic      Atomic             Coordinates (Angstroms)
 Number     Number       Type             X           Y           Z
 ---------------------------------------------------------------------
      1          6           0        5.225958    0.040122   -0.864488
      2          6           0        4.126931    0.492832   -1.601858
      3          6           0        2.838219    0.435959   -1.062846
      4          6           0        2.684210   -0.081929    0.222208
      5          6           0        3.759280   -0.540798    0.981783
      6          6           0        5.038955   -0.474341    0.422710
      7          1           0        6.223551    0.088026   -1.290998
      8          1           0        4.269173    0.892863   -2.601752
      9          1           0        1.969813    0.779529   -1.611708
     10          1           0        3.586000   -0.934389    1.976006
     11          1           0        5.890632   -0.826645    0.997665
     12          7           0        1.324692   -0.147212    0.803455
     13          8           0        1.215593   -0.607845    1.937717
     14          8           0        0.393943    0.263489    0.113768
     15          6           0       -3.887415    0.747294    0.192697
     16          6           0       -3.103114    1.942825   -0.349117
     17          6           0       -3.443787    3.248350    0.370145
     18          1           0       -4.963147    0.949513    0.098610
     19          1           0       -3.682404    0.639521    1.266824
     20          1           0       -3.308465    2.047469   -1.422196
     21          1           0       -2.029124    1.737656   -0.253906
     22          1           0       -3.221956    3.168397    1.439257
     23          1           0       -4.508567    3.479971    0.264330
     24          1           0       -2.871835    4.089894   -0.033009
     25          6           0       -3.557770   -0.565099   -0.516310
     26          6           0       -4.342071   -1.760630    0.025505
     27          6           0       -4.001397   -3.066155   -0.693758
     28          1           0       -3.762781   -0.457326   -1.590437
     29          1           0       -2.482038   -0.767318   -0.422223
     30          1           0       -5.416061   -1.555461   -0.069707
     31          1           0       -4.136719   -1.865274    1.098583
     32          1           0       -2.936618   -3.297776   -0.587943
     33          1           0       -4.223228   -2.986202   -1.762870
     34          1           0       -4.573349   -3.907699   -0.290604
 ---------------------------------------------------------------------

 SCF Done:  E(RHF) =  -669.536615866     A.U. after   15 cycles
 E2 =    -0.2091388794D+01 EUMP2 =    -0.67162800465987D+03

 The electronic state is 1-A.
 Alpha  occ. eigenvalues --  -20.61104 -20.61099 -15.86126 -11.31381 -11.27935
 Alpha  occ. eigenvalues --  -11.27931 -11.27663 -11.26929 -11.26919 -11.20472
 Alpha  occ. eigenvalues --  -11.20146 -11.20123 -11.20021 -11.19961 -11.19921
 Alpha  occ. eigenvalues --   -1.60156  -1.39715  -1.19543  -1.08960  -1.07100
 Alpha  occ. eigenvalues --   -1.04929  -1.02327  -0.95812  -0.94805  -0.86332
 Alpha  occ. eigenvalues --   -0.85831  -0.82651  -0.78383  -0.77712  -0.76897
 Alpha  occ. eigenvalues --   -0.72352  -0.71461  -0.70651  -0.65202  -0.64932
 Alpha  occ. eigenvalues --   -0.63697  -0.62276  -0.59712  -0.58186  -0.56420
 Alpha  occ. eigenvalues --   -0.55437  -0.54089  -0.53264  -0.53020  -0.51552
 Alpha  occ. eigenvalues --   -0.51246  -0.49128  -0.49105  -0.48745  -0.46723
 Alpha  occ. eigenvalues --   -0.45450  -0.45045  -0.44474  -0.44250  -0.42548
 Alpha  occ. eigenvalues --   -0.37518  -0.36527
 Alpha virt. eigenvalues --    0.04794   0.11129   0.16291   0.21242   0.24212
 Alpha virt. eigenvalues --    0.25429   0.27192   0.27714   0.28190   0.28908
 Alpha virt. eigenvalues --    0.29183   0.30874   0.32279   0.32556   0.32934

 Mulliken charges:
               1
     1  C   -0.170357
     2  C   -0.218562
     3  C   -0.170556
     4  C    0.157002
     5  C   -0.170271
     6  C   -0.218634
     7  H    0.226354
     8  H    0.224245
     9  H    0.276173
    10  H    0.275992
    11  H    0.224114
    12  N    0.494614
    13  O   -0.458099
    14  O   -0.466283
    15  C   -0.294976
    16  C   -0.310601
    17  C   -0.474609
    18  H    0.142205
    19  H    0.152204
    20  H    0.143327
    21  H    0.178342
    22  H    0.155692
    23  H    0.150091
    24  H    0.154634
    25  C   -0.305583
    26  C   -0.298733
    27  C   -0.475054
    28  H    0.141854
    29  H    0.170571
    30  H    0.147113
    31  H    0.153519
    32  H    0.156426
    33  H    0.151520
    34  H    0.156327
 Sum of Mulliken charges =  -0.00000

 Dipole moment (field-independent basis, Debye):
    X=              5.2666    Y=              0.1737    Z=             -1.9499  Tot=              5.6186
 Quadrupole moment (field-independent basis, Debye-Ang):
   XX=            -69.8726   YY=            -96.6505   ZZ=            -92.1820
   XY=             -0.4513   XZ=             -2.5796   YZ=             -2.3965

 Normal termination of Gaussian 16 at Thu May  6 09:13:11 2021.
