 Gaussian 16, Revision A.03,
 Gaussian 16:  EM64L-G16RevA.03 25-Dec-2016

 -------------
 #p 6-31g* mp2
 -------------

 ------------------------------------------------------
 Input file generated by CHIRIPA (05-May-2021 14:51:14)
 ------------------------------------------------------
 Symbolic Z-matrix:
 Charge =  0 Multiplicity = 1

                         Standard orientation:
 ---------------------------------------------------------------------
 Center     Atomic      Atomic             Coordinates (Angstroms)
 Number     Number       Type             X           Y           Z
 ---------------------------------------------------------------------
      1          6           0        3.438693   -0.193425   -0.295721
      2          6           0        4.783247   -0.841370    0.036434
      3          6           0        4.857730   -2.305112   -0.399121
      4          1           0        2.634454   -0.763236    0.189523
      5          1           0        3.262839   -0.264286   -1.378056
      6          1           0        4.957149   -0.768078    1.117638
      7          1           0        5.584393   -0.269838   -0.449500
      8          1           0        4.709793   -2.393330   -1.480293
      9          1           0        4.078985   -2.894400    0.095749
     10          1           0        5.827315   -2.748650   -0.152060
     11          6           0        3.348891    1.269916    0.133576
     12          6           0        2.004337    1.917861   -0.198579
     13          6           0        1.929853    3.381603    0.236976
     14          1           0        3.524744    1.340777    1.215911
     15          1           0        4.153129    1.839727   -0.351668
     16          1           0        1.203190    1.346329    0.287355
     17          1           0        1.830434    1.844569   -1.279783
     18          1           0        2.708598    3.970891   -0.257894
     19          1           0        2.077790    3.469821    1.318148
     20          1           0        0.960269    3.825141   -0.010085
     21          6           0       -2.839013   -0.784782    0.544615
     22          6           0       -1.529360   -1.087027   -0.184386
     23          6           0       -0.429123   -1.579249    0.756352
     24          1           0       -2.653403   -0.029800    1.320821
     25          1           0       -3.178528   -1.691091    1.064932
     26          1           0       -1.193137   -0.180798   -0.704310
     27          1           0       -1.718149   -1.841237   -0.959075
     28          1           0       -0.739909   -2.497193    1.265660
     29          1           0       -0.211914   -0.827320    1.521873
     30          1           0        0.498230   -1.789309    0.214363
     31          6           0       -3.948571   -0.291708   -0.382471
     32          6           0       -5.258223    0.010536    0.346532
     33          6           0       -6.358460    0.502759   -0.594207
     34          1           0       -3.609055    0.614600   -0.902787
     35          1           0       -4.134181   -1.046690   -1.158676
     36          1           0       -5.069434    0.764747    1.121220
     37          1           0       -5.594446   -0.895693    0.866454
     38          1           0       -6.575669   -0.249172   -1.359728
     39          1           0       -6.047675    1.420702   -1.103514
     40          1           0       -7.285812    0.712818   -0.052218
 ---------------------------------------------------------------------

 SCF Done:  E(RHF) =  -470.733089674     A.U. after   11 cycles
 E2 =    -0.1583310683D+01 EUMP2 =    -0.47231640035734D+03

 The electronic state is 1-A.
 Alpha  occ. eigenvalues --  -11.21608 -11.21606 -11.21593 -11.21575 -11.21413
 Alpha  occ. eigenvalues --  -11.21376 -11.21354 -11.21301 -11.21098 -11.21085
 Alpha  occ. eigenvalues --  -11.21075 -11.21059  -1.08449  -1.08403  -1.03548
 Alpha  occ. eigenvalues --   -1.03516  -0.96013  -0.95958  -0.87030  -0.86977
 Alpha  occ. eigenvalues --   -0.79629  -0.79564  -0.78250  -0.78230  -0.65141
 Alpha  occ. eigenvalues --   -0.64990  -0.61020  -0.60846  -0.59389  -0.59331
 Alpha  occ. eigenvalues --   -0.57671  -0.57523  -0.55305  -0.55250  -0.52780
 Alpha  occ. eigenvalues --   -0.52646  -0.52457  -0.52323  -0.49949  -0.49908
 Alpha  occ. eigenvalues --   -0.48018  -0.47814  -0.46642  -0.46609  -0.45813
 Alpha  occ. eigenvalues --   -0.45758  -0.45695  -0.45656  -0.43783  -0.43720
 Alpha virt. eigenvalues --    0.20779   0.23098   0.23830   0.24104   0.26357
 Alpha virt. eigenvalues --    0.26615   0.27054   0.27498   0.28034   0.28946
 Alpha virt. eigenvalues --    0.30343   0.31422   0.31635   0.32061   0.32367

 Mulliken charges:
               1
     1  C   -0.306651
     2  C   -0.298964
     3  C   -0.475977
     4  H    0.158696
     5  H    0.148702
     6  H    0.151874
     7  H    0.151767
     8  H    0.155019
     9  H    0.155046
    10  H    0.160327
    11  C   -0.297445
    12  C   -0.304929
    13  C   -0.475564
    14  H    0.149259
    15  H    0.149554
    16  H    0.157439
    17  H    0.151649
    18  H    0.155367
    19  H    0.155077
    20  H    0.159719
    21  C   -0.298433
    22  C   -0.301432
    23  C   -0.481662
    24  H    0.149420
    25  H    0.149519
    26  H    0.154416
    27  H    0.152125
    28  H    0.155234
    29  H    0.154370
    30  H    0.166280
    31  C   -0.298296
    32  C   -0.299656
    33  C   -0.475710
    34  H    0.149638
    35  H    0.149694
    36  H    0.151942
    37  H    0.151922
    38  H    0.155191
    39  H    0.155204
    40  H    0.160268
 Sum of Mulliken charges =  -0.00000

 Dipole moment (field-independent basis, Debye):
    X=             -0.0127    Y=             -0.0152    Z=             -0.0008  Tot=              0.0198
 Quadrupole moment (field-independent basis, Debye-Ang):
   XX=            -85.5026   YY=            -85.0636   ZZ=            -84.3176
   XY=              0.9406   XZ=             -0.6806   YZ=             -0.1811

 Normal termination of Gaussian 16 at Thu May  6 02:25:45 2021.
