 Gaussian 16, Revision A.03,
 Gaussian 16:  EM64L-G16RevA.03 25-Dec-2016

 -------------
 #p 6-31g* mp2
 -------------

 ------------------------------------------------------
 Input file generated by CHIRIPA (05-May-2021 14:53:16)
 ------------------------------------------------------
 Symbolic Z-matrix:
 Charge =  0 Multiplicity = 1

                         Standard orientation:
 ---------------------------------------------------------------------
 Center     Atomic      Atomic             Coordinates (Angstroms)
 Number     Number       Type             X           Y           Z
 ---------------------------------------------------------------------
      1          6           0        4.048449    0.910328   -0.497400
      2          6           0        2.592957    1.113754   -0.075327
      3          6           0        1.955967    2.343560   -0.723104
      4          1           0        4.628103    1.806100   -0.235600
      5          1           0        4.095986    0.815872   -1.591115
      6          1           0        2.548020    1.206415    1.017381
      7          1           0        2.016740    0.217317   -0.337989
      8          1           0        1.971389    2.255748   -1.814274
      9          1           0        2.505687    3.250465   -0.451203
     10          1           0        0.915620    2.470021   -0.407594
     11          6           0        4.698990   -0.315154    0.141910
     12          6           0        6.154482   -0.518579   -0.280163
     13          6           0        6.791473   -1.748385    0.367614
     14          1           0        4.651453   -0.220697    1.235625
     15          1           0        4.119336   -1.210925   -0.119890
     16          1           0        6.730699    0.377858   -0.017501
     17          1           0        6.199419   -0.611240   -1.372871
     18          1           0        6.241752   -2.655291    0.095713
     19          1           0        6.776051   -1.660573    1.458784
     20          1           0        7.831820   -1.874846    0.052104
     21          6           0       -0.978596   -0.093057    0.771967
     22          6           0       -1.836031    0.976782    1.049045
     23          6           0       -3.188890    0.910509    0.702738
     24          6           0       -3.652702   -0.245970    0.077657
     25          6           0       -2.823433   -1.328506   -0.211686
     26          6           0       -1.474160   -1.240263    0.143594
     27          1           0        0.070944   -0.033041    1.044472
     28          1           0       -1.453938    1.868966    1.536958
     29          1           0       -3.874760    1.724068    0.905522
     30          1           0       -3.233492   -2.204734   -0.699019
     31          1           0       -0.810579   -2.072652   -0.072817
     32          7           0       -5.083014   -0.327760   -0.293712
     33          8           0       -5.467006   -1.357716   -0.843601
     34          8           0       -5.793018    0.639639   -0.027871
 ---------------------------------------------------------------------

 SCF Done:  E(RHF) =  -669.535348018     A.U. after   15 cycles
 E2 =    -0.2091952646D+01 EUMP2 =    -0.67162730066363D+03

 The electronic state is 1-A.
 Alpha  occ. eigenvalues --  -20.60735 -20.60730 -15.85790 -11.31149 -11.27730
 Alpha  occ. eigenvalues --  -11.27727 -11.27386 -11.26727 -11.26715 -11.22815
 Alpha  occ. eigenvalues --  -11.22298 -11.22261 -11.22183 -11.22043 -11.21640
 Alpha  occ. eigenvalues --   -1.59811  -1.39365  -1.19323  -1.09323  -1.08709
 Alpha  occ. eigenvalues --   -1.04729  -1.04401  -0.96808  -0.95545  -0.87821
 Alpha  occ. eigenvalues --   -0.86123  -0.82393  -0.80515  -0.79132  -0.77437
 Alpha  occ. eigenvalues --   -0.72007  -0.71135  -0.70424  -0.65942  -0.64972
 Alpha  occ. eigenvalues --   -0.64742  -0.62083  -0.61785  -0.60219  -0.58456
 Alpha  occ. eigenvalues --   -0.56070  -0.55172  -0.53528  -0.53266  -0.52986
 Alpha  occ. eigenvalues --   -0.52814  -0.50737  -0.48834  -0.48762  -0.48714
 Alpha  occ. eigenvalues --   -0.47537  -0.46647  -0.46563  -0.44772  -0.44642
 Alpha  occ. eigenvalues --   -0.37271  -0.36337
 Alpha virt. eigenvalues --    0.05083   0.11208   0.16520   0.20158   0.22318
 Alpha virt. eigenvalues --    0.23915   0.25365   0.25929   0.26356   0.27750
 Alpha virt. eigenvalues --    0.29101   0.30143   0.30406   0.31366   0.32210

 Mulliken charges:
               1
     1  C   -0.297499
     2  C   -0.306423
     3  C   -0.476887
     4  H    0.152948
     5  H    0.153052
     6  H    0.147785
     7  H    0.147013
     8  H    0.160868
     9  H    0.158650
    10  H    0.157821
    11  C   -0.298885
    12  C   -0.300305
    13  C   -0.476158
    14  H    0.149286
    15  H    0.147414
    16  H    0.153592
    17  H    0.153519
    18  H    0.155161
    19  H    0.155613
    20  H    0.162616
    21  C   -0.173250
    22  C   -0.222201
    23  C   -0.170748
    24  C    0.158125
    25  C   -0.170476
    26  C   -0.221512
    27  H    0.236498
    28  H    0.223482
    29  H    0.275521
    30  H    0.275418
    31  H    0.222998
    32  N    0.488106
    33  O   -0.460603
    34  O   -0.460540
 Sum of Mulliken charges =  -0.00000

 Dipole moment (field-independent basis, Debye):
    X=              5.2606    Y=              0.3301    Z=              1.2410  Tot=              5.4150
 Quadrupole moment (field-independent basis, Debye-Ang):
   XX=           -131.5245   YY=            -91.0856   ZZ=            -94.0654
   XY=             -2.2861   XZ=             -4.9394   YZ=              2.3857

 Normal termination of Gaussian 16 at Wed May  5 21:57:39 2021.
