 Gaussian 16, Revision A.03,
 Gaussian 16:  EM64L-G16RevA.03 25-Dec-2016

 -------------
 #p 6-31g* mp2
 -------------

 ------------------------------------------------------
 Input file generated by CHIRIPA (05-May-2021 14:57:25)
 ------------------------------------------------------
 Symbolic Z-matrix:
 Charge =  0 Multiplicity = 1

                         Standard orientation:
 ---------------------------------------------------------------------
 Center     Atomic      Atomic             Coordinates (Angstroms)
 Number     Number       Type             X           Y           Z
 ---------------------------------------------------------------------
      1          6           0        2.574740    2.073336    0.373578
      2          6           0        3.846364    2.253382   -0.180568
      3          6           0        4.665903    1.153142   -0.449593
      4          6           0        4.179843   -0.118728   -0.150624
      5          6           0        2.917625   -0.330612    0.401826
      6          6           0        2.115239    0.784187    0.662497
      7          1           0        1.944764    2.933684    0.579318
      8          1           0        4.205831    3.253392   -0.405974
      9          1           0        5.654527    1.263850   -0.878293
     10          1           0        2.586820   -1.339694    0.615692
     11          1           0        1.128117    0.641355    1.092885
     12          7           0        5.038373   -1.291209   -0.431006
     13          8           0        4.586910   -2.401409   -0.158472
     14          8           0        6.146495   -1.077799   -0.917996
     15          6           0       -6.030309   -0.269134   -1.431857
     16          6           0       -5.722183   -1.310128   -0.549866
     17          6           0       -4.620889   -1.213141    0.305875
     18          6           0       -3.845771   -0.055695    0.252935
     19          6           0       -4.127001    0.998541   -0.614698
     20          6           0       -5.233141    0.879853   -1.461407
     21          1           0       -6.887703   -0.352904   -2.093109
     22          1           0       -6.339506   -2.203619   -0.524745
     23          1           0       -4.359613   -2.003984    0.998493
     24          1           0       -3.492987    1.876857   -0.616838
     25          1           0       -5.470053    1.689882   -2.145344
     26          7           0       -2.677315    0.058467    1.154089
     27          8           0       -2.010169    1.088613    1.088111
     28          8           0       -2.450751   -0.884359    1.909326
 ---------------------------------------------------------------------

 SCF Done:  E(RHF) =  -868.340641265     A.U. after   16 cycles
 E2 =    -0.2598233360D+01 EUMP2 =    -0.87093887462486D+03

 The electronic state is 1-A.
 Alpha  occ. eigenvalues --  -20.61782 -20.61759 -20.60077 -20.60067 -15.86780
 Alpha  occ. eigenvalues --  -15.85117 -11.31844 -11.30305 -11.28391 -11.28357
 Alpha  occ. eigenvalues --  -11.28057 -11.27325 -11.27302 -11.26883 -11.26744
 Alpha  occ. eigenvalues --  -11.26475 -11.25887 -11.25559  -1.60827  -1.59153
 Alpha  occ. eigenvalues --   -1.40387  -1.38711  -1.19986  -1.18433  -1.09438
 Alpha  occ. eigenvalues --   -1.07853  -1.05343  -1.03786  -0.96323  -0.94728
 Alpha  occ. eigenvalues --   -0.86755  -0.85181  -0.83167  -0.81553  -0.78248
 Alpha  occ. eigenvalues --   -0.76630  -0.73012  -0.72121  -0.71340  -0.71089
 Alpha  occ. eigenvalues --   -0.70474  -0.69529  -0.65642  -0.65342  -0.64067
 Alpha  occ. eigenvalues --   -0.63730  -0.62694  -0.61112  -0.55852  -0.54274
 Alpha  occ. eigenvalues --   -0.53686  -0.53430  -0.52160  -0.51839  -0.49778
 Alpha  occ. eigenvalues --   -0.49741  -0.48106  -0.48076  -0.45852  -0.44157
 Alpha  occ. eigenvalues --   -0.37945  -0.36930  -0.36410  -0.35396
 Alpha virt. eigenvalues --    0.04246   0.05857   0.10730   0.12257   0.15800
 Alpha virt. eigenvalues --    0.17414   0.20897   0.22553   0.26829   0.27736
 Alpha virt. eigenvalues --    0.28584   0.29278   0.30493   0.31938   0.32212

 Mulliken charges:
               1
     1  C   -0.173258
     2  C   -0.219039
     3  C   -0.173446
     4  C    0.158158
     5  C   -0.173957
     6  C   -0.227460
     7  H    0.227191
     8  H    0.219408
     9  H    0.272009
    10  H    0.275706
    11  H    0.248081
    12  N    0.488060
    13  O   -0.461668
    14  O   -0.463566
    15  C   -0.169550
    16  C   -0.218443
    17  C   -0.170067
    18  C    0.157825
    19  C   -0.170268
    20  C   -0.218397
    21  H    0.228084
    22  H    0.226031
    23  H    0.277047
    24  H    0.274019
    25  H    0.225048
    26  N    0.489092
    27  O   -0.469273
    28  O   -0.457368
 Sum of Mulliken charges =  -0.00000

 Dipole moment (field-independent basis, Debye):
    X=             -7.7371    Y=              3.6613    Z=             -2.1388  Tot=              8.8229
 Quadrupole moment (field-independent basis, Debye-Ang):
   XX=            -96.8958   YY=           -100.4684   ZZ=           -106.7043
   XY=             23.2945   XZ=             14.6858   YZ=             -3.9011

 Normal termination of Gaussian 16 at Thu May  6 14:41:22 2021.
