 Gaussian 16, Revision A.03,
 Gaussian 16:  EM64L-G16RevA.03 25-Dec-2016

 -------------
 #p 6-31g* mp2
 -------------

 ------------------------------------------------------
 Input file generated by CHIRIPA (05-May-2021 14:51:08)
 ------------------------------------------------------
 Symbolic Z-matrix:
 Charge =  0 Multiplicity = 1

                         Standard orientation:
 ---------------------------------------------------------------------
 Center     Atomic      Atomic             Coordinates (Angstroms)
 Number     Number       Type             X           Y           Z
 ---------------------------------------------------------------------
      1          6           0        4.086380    0.025898   -0.144037
      2          6           0        4.971860   -1.216616   -0.244375
      3          6           0        6.216150   -0.988007   -1.103022
      4          1           0        3.784828    0.335972   -1.153921
      5          1           0        4.674791    0.854103    0.274585
      6          1           0        4.381567   -2.042609   -0.661394
      7          1           0        5.271181   -1.523881    0.765878
      8          1           0        6.828820   -0.181912   -0.686553
      9          1           0        5.934151   -0.703588   -2.121935
     10          1           0        6.834842   -1.888948   -1.161213
     11          6           0        2.838516   -0.186933    0.711104
     12          6           0        1.953035    1.055581    0.811441
     13          6           0        0.708745    0.826973    1.670089
     14          1           0        2.250104   -1.015138    0.292482
     15          1           0        3.140067   -0.497007    1.720988
     16          1           0        1.653714    1.362846   -0.198812
     17          1           0        2.543328    1.881574    1.228461
     18          1           0        0.990744    0.542553    2.689001
     19          1           0        0.096075    0.020878    1.253619
     20          1           0        0.090054    1.727913    1.728279
     21          6           0       -3.915413   -0.479204   -0.538418
     22          6           0       -4.072116   -1.631805    0.454023
     23          6           0       -4.981168   -2.743829   -0.070210
     24          1           0       -4.906597   -0.065857   -0.770025
     25          1           0       -3.511279   -0.869898   -1.482573
     26          1           0       -4.474535   -1.238828    1.396491
     27          1           0       -3.080425   -2.042332    0.683442
     28          1           0       -4.580562   -3.163260   -0.998753
     29          1           0       -5.982593   -2.355191   -0.281654
     30          1           0       -5.079220   -3.557588    0.655077
     31          6           0       -3.009482    0.640239   -0.028648
     32          6           0       -2.852780    1.792840   -1.021091
     33          6           0       -1.943727    2.904863   -0.496856
     34          1           0       -3.413616    1.030934    0.915507
     35          1           0       -2.018297    0.226891    0.202959
     36          1           0       -3.844471    2.203367   -1.250509
     37          1           0       -2.450359    1.399862   -1.963557
     38          1           0       -0.942301    2.516225   -0.285413
     39          1           0       -2.344332    3.324295    0.431686
     40          1           0       -1.845676    3.718623   -1.222144
 ---------------------------------------------------------------------

 SCF Done:  E(RHF) =  -470.732207867     A.U. after   11 cycles
 E2 =    -0.1583812794D+01 EUMP2 =    -0.47231602066024D+03

 The electronic state is 1-A.
 Alpha  occ. eigenvalues --  -11.21648 -11.21625 -11.21584 -11.21565 -11.21441
 Alpha  occ. eigenvalues --  -11.21380 -11.21354 -11.21271 -11.21089 -11.21058
 Alpha  occ. eigenvalues --  -11.21038 -11.21008  -1.08471  -1.08388  -1.03589
 Alpha  occ. eigenvalues --   -1.03476  -0.96025  -0.95937  -0.87035  -0.86964
 Alpha  occ. eigenvalues --   -0.79667  -0.79534  -0.78290  -0.78189  -0.65185
 Alpha  occ. eigenvalues --   -0.64964  -0.61117  -0.60781  -0.59503  -0.59217
 Alpha  occ. eigenvalues --   -0.57810  -0.57396  -0.55317  -0.55230  -0.52771
 Alpha  occ. eigenvalues --   -0.52646  -0.52568  -0.52174  -0.50058  -0.49818
 Alpha  occ. eigenvalues --   -0.47965  -0.47820  -0.46723  -0.46575  -0.45873
 Alpha  occ. eigenvalues --   -0.45767  -0.45709  -0.45470  -0.43790  -0.43738
 Alpha virt. eigenvalues --    0.21105   0.23169   0.23482   0.24884   0.25796
 Alpha virt. eigenvalues --    0.26547   0.26988   0.27061   0.27984   0.29623
 Alpha virt. eigenvalues --    0.30488   0.31411   0.31625   0.31715   0.32359

 Mulliken charges:
               1
     1  C   -0.298337
     2  C   -0.299682
     3  C   -0.475728
     4  H    0.149627
     5  H    0.149738
     6  H    0.151847
     7  H    0.152032
     8  H    0.155271
     9  H    0.155196
    10  H    0.160325
    11  C   -0.298191
    12  C   -0.302749
    13  C   -0.482489
    14  H    0.149188
    15  H    0.150085
    16  H    0.152652
    17  H    0.152700
    18  H    0.155818
    19  H    0.157574
    20  H    0.164954
    21  C   -0.297830
    22  C   -0.299427
    23  C   -0.475644
    24  H    0.149484
    25  H    0.148857
    26  H    0.152171
    27  H    0.151179
    28  H    0.154986
    29  H    0.155223
    30  H    0.160212
    31  C   -0.305020
    32  C   -0.298815
    33  C   -0.482847
    34  H    0.149174
    35  H    0.157588
    36  H    0.151682
    37  H    0.150999
    38  H    0.164047
    39  H    0.154381
    40  H    0.159768
 Sum of Mulliken charges =  -0.00000

 Dipole moment (field-independent basis, Debye):
    X=              0.0336    Y=              0.0059    Z=              0.0285  Tot=              0.0445
 Quadrupole moment (field-independent basis, Debye-Ang):
   XX=            -85.2383   YY=            -85.3342   ZZ=            -84.3346
   XY=             -0.7602   XZ=              0.4509   YZ=              0.3012

 Normal termination of Gaussian 16 at Thu May  6 00:29:57 2021.
