 Gaussian 16, Revision A.03,
 Gaussian 16:  EM64L-G16RevA.03 25-Dec-2016

 -------------
 #p 6-31g* mp2
 -------------

 ------------------------------------------------------
 Input file generated by CHIRIPA (05-May-2021 14:55:20)
 ------------------------------------------------------
 Symbolic Z-matrix:
 Charge =  0 Multiplicity = 1

                         Standard orientation:
 ---------------------------------------------------------------------
 Center     Atomic      Atomic             Coordinates (Angstroms)
 Number     Number       Type             X           Y           Z
 ---------------------------------------------------------------------
      1          6           0       -0.969115   -2.536097    0.766738
      2          6           0       -2.185556   -2.157166    1.343977
      3          6           0       -2.900732   -1.066181    0.841161
      4          6           0       -2.367713   -0.373460   -0.244804
      5          6           0       -1.158394   -0.726496   -0.841631
      6          6           0       -0.460314   -1.820814   -0.322304
      7          1           0       -0.420190   -3.384895    1.163751
      8          1           0       -2.583110   -2.710820    2.189827
      9          1           0       -3.844798   -0.751204    1.268884
     10          1           0       -0.787515   -0.155159   -1.683915
     11          1           0        0.484145   -2.112831   -0.772603
     12          7           0       -3.115789    0.783281   -0.785853
     13          8           0       -2.624734    1.377167   -1.743350
     14          8           0       -4.179019    1.074145   -0.242184
     15          6           0        3.082173   -0.010308    0.142065
     16          6           0        4.385018   -0.209887   -0.633013
     17          6           0        4.790617   -1.680292   -0.738812
     18          1           0        3.193410   -0.434844    1.149210
     19          1           0        2.280386   -0.578320   -0.349764
     20          1           0        5.183807    0.359445   -0.140658
     21          1           0        4.270729    0.215344   -1.638364
     22          1           0        4.013762   -2.258414   -1.249569
     23          1           0        4.932027   -2.113495    0.256647
     24          1           0        5.724589   -1.799982   -1.296693
     25          6           0        2.663546    1.454417    0.256353
     26          6           0        1.360701    1.653997    1.031432
     27          6           0        0.955102    3.124401    1.137232
     28          1           0        3.465332    2.022429    0.748183
     29          1           0        2.552308    1.878954   -0.750790
     30          1           0        1.474989    1.228765    2.036784
     31          1           0        0.561912    1.084664    0.539077
     32          1           0        0.813691    3.557604    0.141772
     33          1           0        1.731956    3.702523    1.647988
     34          1           0        0.021130    3.244091    1.695112
 ---------------------------------------------------------------------

 SCF Done:  E(RHF) =  -669.534281414     A.U. after   15 cycles
 E2 =    -0.2094131184D+01 EUMP2 =    -0.67162841259780D+03

 The electronic state is 1-A.
 Alpha  occ. eigenvalues --  -20.60817 -20.60812 -15.85872 -11.31255 -11.27819
 Alpha  occ. eigenvalues --  -11.27814 -11.27546 -11.26830 -11.26813 -11.22101
 Alpha  occ. eigenvalues --  -11.21916 -11.21703 -11.21635 -11.21559 -11.20911
 Alpha  occ. eigenvalues --   -1.59892  -1.39446  -1.19435  -1.08823  -1.08773
 Alpha  occ. eigenvalues --   -1.04846  -1.03800  -0.96269  -0.95650  -0.87280
 Alpha  occ. eigenvalues --   -0.86232  -0.82490  -0.79893  -0.78601  -0.77519
 Alpha  occ. eigenvalues --   -0.72089  -0.71218  -0.70529  -0.65488  -0.65073
 Alpha  occ. eigenvalues --   -0.64826  -0.62184  -0.61209  -0.59659  -0.57868
 Alpha  occ. eigenvalues --   -0.55584  -0.55317  -0.53254  -0.52985  -0.52878
 Alpha  occ. eigenvalues --   -0.52648  -0.50210  -0.48852  -0.48844  -0.48189
 Alpha  occ. eigenvalues --   -0.46941  -0.46098  -0.46026  -0.44841  -0.44068
 Alpha  occ. eigenvalues --   -0.37389  -0.36328
 Alpha virt. eigenvalues --    0.04980   0.11114   0.16369   0.19951   0.22979
 Alpha virt. eigenvalues --    0.23634   0.25427   0.26824   0.27543   0.28336
 Alpha virt. eigenvalues --    0.29523   0.29870   0.31419   0.31753   0.32166

 Mulliken charges:
               1
     1  C   -0.171672
     2  C   -0.218051
     3  C   -0.170957
     4  C    0.161621
     5  C   -0.177019
     6  C   -0.212975
     7  H    0.226402
     8  H    0.223782
     9  H    0.275871
    10  H    0.275697
    11  H    0.225270
    12  N    0.488267
    13  O   -0.460732
    14  O   -0.460141
    15  C   -0.299737
    16  C   -0.299894
    17  C   -0.475045
    18  H    0.149409
    19  H    0.140784
    20  H    0.155019
    21  H    0.153335
    22  H    0.148008
    23  H    0.155183
    24  H    0.163547
    25  C   -0.298853
    26  C   -0.305920
    27  C   -0.476146
    28  H    0.151003
    29  H    0.150814
    30  H    0.149375
    31  H    0.157579
    32  H    0.160117
    33  H    0.153545
    34  H    0.162512
 Sum of Mulliken charges =  -0.00000

 Dipole moment (field-independent basis, Debye):
    X=              2.5948    Y=             -4.0280    Z=              1.9359  Tot=              5.1678
 Quadrupole moment (field-independent basis, Debye-Ang):
   XX=           -104.7836   YY=            -93.1412   ZZ=            -93.0517
   XY=              9.9192   XZ=             -7.5603   YZ=             -0.5490

 Normal termination of Gaussian 16 at Wed May  5 22:10:28 2021.
