 Gaussian 16, Revision A.03,
 Gaussian 16:  EM64L-G16RevA.03 25-Dec-2016

 -------------
 #p 6-31g* mp2
 -------------

 ------------------------------------------------------
 Input file generated by CHIRIPA (05-May-2021 14:57:21)
 ------------------------------------------------------
 Symbolic Z-matrix:
 Charge =  0 Multiplicity = 1

                         Standard orientation:
 ---------------------------------------------------------------------
 Center     Atomic      Atomic             Coordinates (Angstroms)
 Number     Number       Type             X           Y           Z
 ---------------------------------------------------------------------
      1          6           0       -1.891703    2.045793    0.265708
      2          6           0       -1.622459    0.768446    0.768117
      3          6           0       -2.593062   -0.236146    0.710890
      4          6           0       -3.827660    0.072711    0.141974
      5          6           0       -4.126114    1.335664   -0.367109
      6          6           0       -3.140469    2.324833   -0.299305
      7          1           0       -1.131873    2.820193    0.314272
      8          1           0       -0.653537    0.548887    1.207467
      9          1           0       -2.411270   -1.233583    1.092319
     10          1           0       -5.101319    1.524473   -0.799248
     11          1           0       -3.352361    3.315940   -0.690271
     12          7           0       -4.863155   -0.982642    0.075792
     13          8           0       -5.942956   -0.685162   -0.430343
     14          8           0       -4.575368   -2.087324    0.531306
     15          6           0        1.333400   -1.053785   -0.714438
     16          6           0        1.603753    0.317474   -0.658936
     17          6           0        2.887515    0.776067   -0.348781
     18          6           0        3.881634   -0.168614   -0.098592
     19          6           0        3.643539   -1.541325   -0.146201
     20          6           0        2.352360   -1.977180   -0.458344
     21          1           0        0.333261   -1.401198   -0.956147
     22          1           0        0.814367    1.036878   -0.857363
     23          1           0        3.124400    1.831921   -0.299028
     24          1           0        4.450997   -2.234410    0.056439
     25          1           0        2.145292   -3.042717   -0.500737
     26          7           0        5.244622    0.304840    0.230808
     27          8           0        6.103085   -0.547731    0.447139
     28          8           0        5.428660    1.519542    0.266424
 ---------------------------------------------------------------------

 SCF Done:  E(RHF) =  -868.336678271     A.U. after   16 cycles
 E2 =    -0.2602101346D+01 EUMP2 =    -0.87093877961751D+03

 The electronic state is 1-A.
 Alpha  occ. eigenvalues --  -20.61550 -20.61537 -20.61300 -20.61290 -15.86601
 Alpha  occ. eigenvalues --  -15.86355 -11.32129 -11.31830 -11.28697 -11.28638
 Alpha  occ. eigenvalues --  -11.28455 -11.28453 -11.28376 -11.28133 -11.27710
 Alpha  occ. eigenvalues --  -11.27684 -11.27441 -11.27381  -1.60618  -1.60371
 Alpha  occ. eigenvalues --   -1.40167  -1.39922  -1.20305  -1.20017  -1.09689
 Alpha  occ. eigenvalues --   -1.09379  -1.05724  -1.05428  -0.96485  -0.96199
 Alpha  occ. eigenvalues --   -0.87188  -0.86747  -0.83302  -0.83025  -0.78342
 Alpha  occ. eigenvalues --   -0.78049  -0.72815  -0.72569  -0.71945  -0.71697
 Alpha  occ. eigenvalues --   -0.71420  -0.71089  -0.66022  -0.65887  -0.65635
 Alpha  occ. eigenvalues --   -0.65229  -0.63084  -0.62688  -0.56222  -0.55892
 Alpha  occ. eigenvalues --   -0.54156  -0.53968  -0.53555  -0.53395  -0.49585
 Alpha  occ. eigenvalues --   -0.49563  -0.49336  -0.49319  -0.45537  -0.45303
 Alpha  occ. eigenvalues --   -0.38359  -0.38019  -0.37309  -0.36964
 Alpha virt. eigenvalues --    0.04104   0.04489   0.09926   0.10795   0.15475
 Alpha virt. eigenvalues --    0.15946   0.19904   0.21605   0.25569   0.26499
 Alpha virt. eigenvalues --    0.27821   0.28247   0.30065   0.31153   0.31888

 Mulliken charges:
               1
     1  C   -0.178560
     2  C   -0.226826
     3  C   -0.177712
     4  C    0.160333
     5  C   -0.170515
     6  C   -0.217260
     7  H    0.225997
     8  H    0.233379
     9  H    0.276004
    10  H    0.278749
    11  H    0.227324
    12  N    0.487848
    13  O   -0.457107
    14  O   -0.459721
    15  C   -0.177442
    16  C   -0.228855
    17  C   -0.172638
    18  C    0.159180
    19  C   -0.169897
    20  C   -0.218258
    21  H    0.230773
    22  H    0.224919
    23  H    0.274666
    24  H    0.278217
    25  H    0.227564
    26  N    0.488091
    27  O   -0.457995
    28  O   -0.460258
 Sum of Mulliken charges =  -0.00000

 Dipole moment (field-independent basis, Debye):
    X=             -1.2561    Y=              1.9788    Z=             -0.9395  Tot=              2.5251
 Quadrupole moment (field-independent basis, Debye-Ang):
   XX=           -167.1115   YY=            -97.1823   ZZ=           -104.9939
   XY=            -24.2628   XZ=             -2.6752   YZ=             -1.1302

 Normal termination of Gaussian 16 at Thu May  6 14:28:49 2021.
