 Gaussian 16, Revision A.03,
 Gaussian 16:  EM64L-G16RevA.03 25-Dec-2016

 -------------
 #p 6-31g* mp2
 -------------

 ------------------------------------------------------
 Input file generated by CHIRIPA (05-May-2021 14:57:25)
 ------------------------------------------------------
 Symbolic Z-matrix:
 Charge =  0 Multiplicity = 1

                         Standard orientation:
 ---------------------------------------------------------------------
 Center     Atomic      Atomic             Coordinates (Angstroms)
 Number     Number       Type             X           Y           Z
 ---------------------------------------------------------------------
      1          6           0       -2.668233    2.021731    0.583939
      2          6           0       -2.243206    0.690343    0.641196
      3          6           0       -3.117658   -0.348993    0.310042
      4          6           0       -4.416006   -0.019396   -0.075896
      5          6           0       -4.869208    1.297201   -0.142767
      6          6           0       -3.977570    2.320384    0.192829
      7          1           0       -1.982263    2.822839    0.842912
      8          1           0       -1.226929    0.455442    0.944591
      9          1           0       -2.814854   -1.388443    0.345701
     10          1           0       -5.888301    1.500135   -0.448845
     11          1           0       -4.310402    3.353442    0.147454
     12          7           0       -5.350846   -1.111144   -0.428825
     13          8           0       -6.489610   -0.794406   -0.765765
     14          8           0       -4.927107   -2.262923   -0.361828
     15          6           0        1.913818   -0.745466    0.731970
     16          6           0        2.209711    0.548900    0.291988
     17          6           0        3.507243    0.884219   -0.106158
     18          6           0        4.488939   -0.103989   -0.051321
     19          6           0        4.225421   -1.402387    0.382282
     20          6           0        2.920842   -1.715268    0.775635
     21          1           0        0.903127   -0.997235    1.039398
     22          1           0        1.429642    1.304093    0.257029
     23          1           0        3.763919    1.878519   -0.450980
     24          1           0        5.024107   -2.133790    0.406087
     25          1           0        2.693942   -2.721304    1.116890
     26          7           0        5.866309    0.239122   -0.470285
     27          8           0        6.713391   -0.649566   -0.412649
     28          8           0        6.072727    1.390242   -0.848371
 ---------------------------------------------------------------------

 SCF Done:  E(RHF) =  -868.336072527     A.U. after   16 cycles
 E2 =    -0.2599986216D+01 EUMP2 =    -0.87093605874227D+03

 The electronic state is 1-A.
 Alpha  occ. eigenvalues --  -20.61411 -20.61400 -20.61248 -20.61239 -15.86471
 Alpha  occ. eigenvalues --  -15.86305 -11.31981 -11.31811 -11.28654 -11.28534
 Alpha  occ. eigenvalues --  -11.28427 -11.28394 -11.28361 -11.28294 -11.27790
 Alpha  occ. eigenvalues --  -11.27569 -11.27560 -11.27429  -1.60481  -1.60318
 Alpha  occ. eigenvalues --   -1.40031  -1.39867  -1.20187  -1.20013  -1.09560
 Alpha  occ. eigenvalues --   -1.09409  -1.05631  -1.05435  -0.96362  -0.96216
 Alpha  occ. eigenvalues --   -0.87040  -0.86837  -0.83212  -0.83034  -0.78232
 Alpha  occ. eigenvalues --   -0.78033  -0.72687  -0.72523  -0.71806  -0.71642
 Alpha  occ. eigenvalues --   -0.71308  -0.71205  -0.65858  -0.65819  -0.65650
 Alpha  occ. eigenvalues --   -0.65366  -0.63005  -0.62752  -0.56180  -0.55994
 Alpha  occ. eigenvalues --   -0.53926  -0.53758  -0.53743  -0.53532  -0.49457
 Alpha  occ. eigenvalues --   -0.49431  -0.49294  -0.49266  -0.45404  -0.45241
 Alpha  occ. eigenvalues --   -0.38172  -0.38030  -0.37224  -0.37021
 Alpha virt. eigenvalues --    0.04345   0.04503   0.10382   0.10633   0.15785
 Alpha virt. eigenvalues --    0.15951   0.17058   0.22219   0.24492   0.25172
 Alpha virt. eigenvalues --    0.27881   0.28927   0.29941   0.30987   0.32158

 Mulliken charges:
               1
     1  C   -0.171330
     2  C   -0.221615
     3  C   -0.170345
     4  C    0.159290
     5  C   -0.169299
     6  C   -0.217903
     7  H    0.225381
     8  H    0.216352
     9  H    0.273895
    10  H    0.278601
    11  H    0.226709
    12  N    0.488138
    13  O   -0.457683
    14  O   -0.459884
    15  C   -0.172139
    16  C   -0.217537
    17  C   -0.169693
    18  C    0.159253
    19  C   -0.169670
    20  C   -0.217403
    21  H    0.219204
    22  H    0.215246
    23  H    0.276746
    24  H    0.278333
    25  H    0.226894
    26  N    0.487949
    27  O   -0.458103
    28  O   -0.459390
 Sum of Mulliken charges =  -0.00000

 Dipole moment (field-independent basis, Debye):
    X=             -1.5924    Y=              2.6248    Z=              2.6402  Tot=              4.0492
 Quadrupole moment (field-independent basis, Debye-Ang):
   XX=           -172.9996   YY=            -98.0711   ZZ=           -106.5347
   XY=            -26.9687   XZ=              2.3378   YZ=             -2.2844

 Normal termination of Gaussian 16 at Thu May  6 01:54:04 2021.
