 Gaussian 16, Revision A.03,
 Gaussian 16:  EM64L-G16RevA.03 25-Dec-2016

 -------------
 #p 6-31g* mp2
 -------------

 ------------------------------------------------------
 Input file generated by CHIRIPA (05-May-2021 14:57:25)
 ------------------------------------------------------
 Symbolic Z-matrix:
 Charge =  0 Multiplicity = 1

                         Standard orientation:
 ---------------------------------------------------------------------
 Center     Atomic      Atomic             Coordinates (Angstroms)
 Number     Number       Type             X           Y           Z
 ---------------------------------------------------------------------
      1          6           0       -3.740028    1.260723    1.025250
      2          6           0       -3.540757    1.366144   -0.355221
      3          6           0       -2.719163    0.455045   -1.025616
      4          6           0       -2.109703   -0.553645   -0.281041
      5          6           0       -2.288596   -0.684987    1.095199
      6          6           0       -3.114415    0.237299    1.744785
      7          1           0       -4.379903    1.972831    1.537946
      8          1           0       -4.025335    2.159934   -0.916582
      9          1           0       -2.547559    0.513445   -2.093586
     10          1           0       -1.792044   -1.486970    1.627812
     11          1           0       -3.267355    0.152994    2.816955
     12          7           0       -1.237682   -1.524106   -0.979743
     13          8           0       -0.712145   -2.403735   -0.300993
     14          8           0       -1.096240   -1.386749   -2.192906
     15          6           0        2.556151   -1.964387    1.010691
     16          6           0        2.310903   -0.923769    1.912627
     17          6           0        2.141568    0.386642    1.455793
     18          6           0        2.224155    0.621673    0.084213
     19          6           0        2.467281   -0.393801   -0.839362
     20          6           0        2.633421   -1.696554   -0.360008
     21          1           0        2.686453   -2.979371    1.374318
     22          1           0        2.250376   -1.128828    2.977677
     23          1           0        1.950629    1.211066    2.132022
     24          1           0        2.522159   -0.158380   -1.895289
     25          1           0        2.823771   -2.502741   -1.062772
     26          7           0        2.046579    2.004893   -0.411337
     27          8           0        2.123948    2.185776   -1.624569
     28          8           0        1.833389    2.881985    0.422866
 ---------------------------------------------------------------------

 SCF Done:  E(RHF) =  -868.339176382     A.U. after   16 cycles
 E2 =    -0.2601720437D+01 EUMP2 =    -0.87094089681819D+03

 The electronic state is 1-A.
 Alpha  occ. eigenvalues --  -20.60998 -20.60978 -20.60319 -20.60296 -15.86000
 Alpha  occ. eigenvalues --  -15.85356 -11.31186 -11.30482 -11.27780 -11.27693
 Alpha  occ. eigenvalues --  -11.27440 -11.27093 -11.26892 -11.26746 -11.26662
 Alpha  occ. eigenvalues --  -11.26658 -11.26062 -11.25824  -1.60049  -1.59395
 Alpha  occ. eigenvalues --   -1.39610  -1.38952  -1.19340  -1.18615  -1.08772
 Alpha  occ. eigenvalues --   -1.08040  -1.04718  -1.03972  -0.95643  -0.94923
 Alpha  occ. eigenvalues --   -0.86126  -0.85382  -0.82488  -0.81766  -0.77555
 Alpha  occ. eigenvalues --   -0.76854  -0.72264  -0.71579  -0.71380  -0.70710
 Alpha  occ. eigenvalues --   -0.70452  -0.69705  -0.65002  -0.64727  -0.64260
 Alpha  occ. eigenvalues --   -0.63975  -0.62075  -0.61332  -0.55229  -0.54468
 Alpha  occ. eigenvalues --   -0.53052  -0.52815  -0.52318  -0.52063  -0.49031
 Alpha  occ. eigenvalues --   -0.48989  -0.48345  -0.48315  -0.45050  -0.44411
 Alpha  occ. eigenvalues --   -0.37361  -0.36470  -0.36320  -0.35482
 Alpha virt. eigenvalues --    0.04962   0.05661   0.11348   0.12114   0.16506
 Alpha virt. eigenvalues --    0.17247   0.21469   0.22203   0.27369   0.28113
 Alpha virt. eigenvalues --    0.28360   0.29078   0.31010   0.31726   0.32539

 Mulliken charges:
               1
     1  C   -0.168908
     2  C   -0.216665
     3  C   -0.169016
     4  C    0.157380
     5  C   -0.170254
     6  C   -0.218603
     7  H    0.226705
     8  H    0.226096
     9  H    0.277849
    10  H    0.271207
    11  H    0.221725
    12  N    0.489040
    13  O   -0.464369
    14  O   -0.461541
    15  C   -0.160735
    16  C   -0.222359
    17  C   -0.174610
    18  C    0.152597
    19  C   -0.173792
    20  C   -0.202065
    21  H    0.225092
    22  H    0.217430
    23  H    0.270007
    24  H    0.277761
    25  H    0.228208
    26  N    0.488152
    27  O   -0.460611
    28  O   -0.465722
 Sum of Mulliken charges =  -0.00000

 Dipole moment (field-independent basis, Debye):
    X=             -2.5330    Y=             -1.6518    Z=              3.9844  Tot=              5.0020
 Quadrupole moment (field-independent basis, Debye-Ang):
   XX=            -89.9903   YY=           -114.0982   ZZ=            -98.2030
   XY=            -18.0485   XZ=             -0.6153   YZ=             -2.2489

 Normal termination of Gaussian 16 at Thu May  6 08:20:55 2021.
