 Gaussian 16, Revision A.03,
 Gaussian 16:  EM64L-G16RevA.03 25-Dec-2016

 -------------
 #p 6-31g* mp2
 -------------

 ------------------------------------------------------
 Input file generated by CHIRIPA (05-May-2021 14:57:26)
 ------------------------------------------------------
 Symbolic Z-matrix:
 Charge =  0 Multiplicity = 1

                         Standard orientation:
 ---------------------------------------------------------------------
 Center     Atomic      Atomic             Coordinates (Angstroms)
 Number     Number       Type             X           Y           Z
 ---------------------------------------------------------------------
      1          6           0        0.919909    2.175242    0.117513
      2          6           0        0.805985    1.081657   -0.747134
      3          6           0        1.844967    0.152778   -0.857800
      4          6           0        2.988819    0.349139   -0.085573
      5          6           0        3.132237    1.428525    0.784857
      6          6           0        2.080624    2.344887    0.879405
      7          1           0        0.107897    2.891957    0.197220
      8          1           0       -0.094277    0.947381   -1.340045
      9          1           0        1.783166   -0.702823   -1.519273
     10          1           0        4.041940    1.535733    1.363100
     11          1           0        2.171865    3.193238    1.551730
     12          7           0        4.095429   -0.627598   -0.194199
     13          8           0        5.092799   -0.432107    0.496941
     14          8           0        3.944466   -1.570161   -0.968422
     15          6           0       -4.542569    1.239050   -0.472867
     16          6           0       -4.424136    0.750229    0.832333
     17          6           0       -3.465771   -0.218993    1.143284
     18          6           0       -2.638594   -0.679221    0.119928
     19          6           0       -2.732096   -0.211856   -1.190079
     20          6           0       -3.697660    0.757297   -1.478136
     21          1           0       -5.289846    1.991938   -0.705528
     22          1           0       -5.078950    1.122539    1.615053
     23          1           0       -3.352470   -0.614769    2.145254
     24          1           0       -2.065091   -0.602245   -1.949103
     25          1           0       -3.787372    1.135103   -2.492660
     26          7           0       -1.620204   -1.705256    0.436999
     27          8           0       -0.903496   -2.094462   -0.482503
     28          8           0       -1.557984   -2.100829    1.599018
 ---------------------------------------------------------------------

 SCF Done:  E(RHF) =  -868.336952294     A.U. after   16 cycles
 E2 =    -0.2602522310D+01 EUMP2 =    -0.87093947460399D+03

 The electronic state is 1-A.
 Alpha  occ. eigenvalues --  -20.61493 -20.61467 -20.60095 -20.60066 -15.86521
 Alpha  occ. eigenvalues --  -15.85140 -11.32060 -11.30543 -11.28677 -11.28569
 Alpha  occ. eigenvalues --  -11.28340 -11.27699 -11.27618 -11.27217 -11.27086
 Alpha  occ. eigenvalues --  -11.27037 -11.26253 -11.26183  -1.60530  -1.59156
 Alpha  occ. eigenvalues --   -1.40090  -1.38707  -1.20238  -1.18772  -1.09578
 Alpha  occ. eigenvalues --   -1.08182  -1.05666  -1.04185  -0.96395  -0.94989
 Alpha  occ. eigenvalues --   -0.87048  -0.85598  -0.83226  -0.81828  -0.78273
 Alpha  occ. eigenvalues --   -0.76836  -0.72742  -0.71854  -0.71374  -0.71314
 Alpha  occ. eigenvalues --   -0.70472  -0.69909  -0.65873  -0.65653  -0.64435
 Alpha  occ. eigenvalues --   -0.64262  -0.62993  -0.61511  -0.56110  -0.54767
 Alpha  occ. eigenvalues --   -0.54006  -0.53734  -0.52521  -0.52251  -0.49509
 Alpha  occ. eigenvalues --   -0.49484  -0.48136  -0.48103  -0.45458  -0.44102
 Alpha  occ. eigenvalues --   -0.38212  -0.37283  -0.36780  -0.35738
 Alpha virt. eigenvalues --    0.04199   0.05726   0.10227   0.11904   0.15712
 Alpha virt. eigenvalues --    0.17148   0.20251   0.22052   0.25783   0.27072
 Alpha virt. eigenvalues --    0.28541   0.28853   0.30436   0.31061   0.32441

 Mulliken charges:
               1
     1  C   -0.172970
     2  C   -0.225463
     3  C   -0.159859
     4  C    0.157104
     5  C   -0.170102
     6  C   -0.219284
     7  H    0.220770
     8  H    0.217832
     9  H    0.283867
    10  H    0.274309
    11  H    0.220116
    12  N    0.488505
    13  O   -0.463555
    14  O   -0.456845
    15  C   -0.171942
    16  C   -0.218262
    17  C   -0.171025
    18  C    0.164415
    19  C   -0.183195
    20  C   -0.220408
    21  H    0.228213
    22  H    0.226521
    23  H    0.278849
    24  H    0.273090
    25  H    0.225600
    26  N    0.490449
    27  O   -0.462858
    28  O   -0.453874
 Sum of Mulliken charges =  -0.00000

 Dipole moment (field-independent basis, Debye):
    X=             -7.6759    Y=              6.7805    Z=             -0.6250  Tot=             10.2608
 Quadrupole moment (field-independent basis, Debye-Ang):
   XX=           -107.8903   YY=           -107.4136   ZZ=            -98.7631
   XY=              2.9185   XZ=              3.9361   YZ=              2.9860

 Normal termination of Gaussian 16 at Thu May  6 19:47:09 2021.
