 Gaussian 16, Revision A.03,
 Gaussian 16:  EM64L-G16RevA.03 25-Dec-2016

 -------------
 #p 6-31g* mp2
 -------------

 ------------------------------------------------------
 Input file generated by CHIRIPA (05-May-2021 14:57:25)
 ------------------------------------------------------
 Symbolic Z-matrix:
 Charge =  0 Multiplicity = 1

                         Standard orientation:
 ---------------------------------------------------------------------
 Center     Atomic      Atomic             Coordinates (Angstroms)
 Number     Number       Type             X           Y           Z
 ---------------------------------------------------------------------
      1          6           0       -2.613945    2.468334   -0.052149
      2          6           0       -3.955268    2.111236    0.120636
      3          6           0       -4.341829    0.768005    0.091487
      4          6           0       -3.356425   -0.196482   -0.113535
      5          6           0       -2.011991    0.127619   -0.288874
      6          6           0       -1.648289    1.477133   -0.255993
      7          1           0       -2.322534    3.514228   -0.028056
      8          1           0       -4.707363    2.878881    0.279123
      9          1           0       -5.373141    0.463594    0.222438
     10          1           0       -1.284970   -0.660092   -0.444983
     11          1           0       -0.605857    1.751529   -0.390475
     12          7           0       -3.753560   -1.621826   -0.146369
     13          8           0       -2.866249   -2.452558   -0.328580
     14          8           0       -4.944625   -1.881290    0.010728
     15          6           0        3.570131   -2.545659    0.150647
     16          6           0        4.332716   -1.771259   -0.729859
     17          6           0        4.186363   -0.381262   -0.762029
     18          6           0        3.263984    0.203958    0.104013
     19          6           0        2.489646   -0.540418    0.992604
     20          6           0        2.652648   -1.928854    1.007557
     21          1           0        3.690289   -3.624836    0.168950
     22          1           0        5.046011   -2.247566   -1.396482
     23          1           0        4.763887    0.242235   -1.433697
     24          1           0        1.786654   -0.037037    1.645160
     25          1           0        2.059068   -2.527748    1.692417
     26          7           0        3.100235    1.674659    0.079069
     27          8           0        2.280817    2.166115    0.852157
     28          8           0        3.794405    2.308093   -0.713096
 ---------------------------------------------------------------------

 SCF Done:  E(RHF) =  -868.340263647     A.U. after   16 cycles
 E2 =    -0.2598771618D+01 EUMP2 =    -0.87093903526583D+03

 The electronic state is 1-A.
 Alpha  occ. eigenvalues --  -20.61616 -20.61568 -20.60722 -20.60702 -15.86607
 Alpha  occ. eigenvalues --  -15.85760 -11.31714 -11.30947 -11.28241 -11.28220
 Alpha  occ. eigenvalues --  -11.27869 -11.27480 -11.27464 -11.27168 -11.27146
 Alpha  occ. eigenvalues --  -11.27085 -11.26452 -11.26302  -1.60659  -1.59793
 Alpha  occ. eigenvalues --   -1.40218  -1.39353  -1.19846  -1.19073  -1.09279
 Alpha  occ. eigenvalues --   -1.08482  -1.05199  -1.04442  -0.96159  -0.95360
 Alpha  occ. eigenvalues --   -0.86603  -0.85830  -0.82995  -0.82198  -0.78089
 Alpha  occ. eigenvalues --   -0.77284  -0.72825  -0.71987  -0.71970  -0.71114
 Alpha  occ. eigenvalues --   -0.70920  -0.70150  -0.65488  -0.65173  -0.64711
 Alpha  occ. eigenvalues --   -0.64394  -0.62545  -0.61783  -0.55673  -0.54891
 Alpha  occ. eigenvalues --   -0.53552  -0.53267  -0.52789  -0.52501  -0.49605
 Alpha  occ. eigenvalues --   -0.49560  -0.48751  -0.48717  -0.45659  -0.44799
 Alpha  occ. eigenvalues --   -0.37793  -0.37016  -0.36800  -0.36050
 Alpha virt. eigenvalues --    0.04379   0.05223   0.10835   0.11613   0.15927
 Alpha virt. eigenvalues --    0.16777   0.20975   0.21926   0.26701   0.27464
 Alpha virt. eigenvalues --    0.28348   0.28723   0.30478   0.31427   0.32373

 Mulliken charges:
               1
     1  C   -0.171422
     2  C   -0.218582
     3  C   -0.172322
     4  C    0.158608
     5  C   -0.176011
     6  C   -0.222170
     7  H    0.230653
     8  H    0.222965
     9  H    0.274050
    10  H    0.270632
    11  H    0.236766
    12  N    0.488265
    13  O   -0.464895
    14  O   -0.460645
    15  C   -0.169308
    16  C   -0.218082
    17  C   -0.170985
    18  C    0.156518
    19  C   -0.177427
    20  C   -0.217714
    21  H    0.229979
    22  H    0.225909
    23  H    0.276161
    24  H    0.275046
    25  H    0.229620
    26  N    0.487060
    27  O   -0.466572
    28  O   -0.456097
 Sum of Mulliken charges =  -0.00000

 Dipole moment (field-independent basis, Debye):
    X=              2.2697    Y=             -0.1625    Z=              0.1916  Tot=              2.2836
 Quadrupole moment (field-independent basis, Debye-Ang):
   XX=           -103.6075   YY=           -109.0606   ZZ=           -103.3529
   XY=            -36.2622   XZ=             -4.1010   YZ=             -1.3234

 Normal termination of Gaussian 16 at Fri May  7 01:58:30 2021.
