 Gaussian 16, Revision A.03,
 Gaussian 16:  EM64L-G16RevA.03 25-Dec-2016

 -------------
 #p 6-31g* mp2
 -------------

 ------------------------------------------------------
 Input file generated by CHIRIPA (05-May-2021 14:53:18)
 ------------------------------------------------------
 Symbolic Z-matrix:
 Charge =  0 Multiplicity = 1

                         Standard orientation:
 ---------------------------------------------------------------------
 Center     Atomic      Atomic             Coordinates (Angstroms)
 Number     Number       Type             X           Y           Z
 ---------------------------------------------------------------------
      1          6           0        3.022176   -0.276952   -0.081018
      2          6           0        4.052676   -1.338955    0.303957
      3          6           0        3.525417   -2.763869    0.132460
      4          1           0        2.119927   -0.411742    0.531128
      5          1           0        2.717652   -0.433035   -1.125191
      6          1           0        4.356195   -1.180070    1.346668
      7          1           0        4.952651   -1.201501   -0.309043
      8          1           0        3.240209   -2.946401   -0.908664
      9          1           0        2.640365   -2.924848    0.756455
     10          1           0        4.278234   -3.507017    0.413275
     11          6           0        3.534510    1.152616    0.085042
     12          6           0        2.504010    2.214618   -0.299933
     13          6           0        3.031270    3.639533   -0.128436
     14          1           0        3.839035    1.308699    1.129215
     15          1           0        4.436760    1.287406   -0.527104
     16          1           0        1.604036    2.077165    0.313067
     17          1           0        2.200491    2.055734   -1.342645
     18          1           0        3.916322    3.800511   -0.752431
     19          1           0        3.316478    3.822064    0.912688
     20          1           0        2.278453    4.382681   -0.409251
     21          6           0       -4.660026    1.037087    0.240998
     22          6           0       -4.260754    0.586136   -1.021439
     23          6           0       -3.099643   -0.178703   -1.167686
     24          6           0       -2.358299   -0.475387   -0.025023
     25          6           0       -2.729971   -0.040704    1.246277
     26          6           0       -3.894709    0.722782    1.368839
     27          1           0       -5.563414    1.630707    0.345406
     28          1           0       -4.853152    0.828708   -1.899088
     29          1           0       -2.767480   -0.540706   -2.133108
     30          1           0       -2.118816   -0.298558    2.102676
     31          1           0       -4.202372    1.071645    2.350512
     32          7           0       -1.127163   -1.284371   -0.167310
     33          8           0       -0.491450   -1.532201    0.854984
     34          8           0       -0.821223   -1.655306   -1.298436
 ---------------------------------------------------------------------

 SCF Done:  E(RHF) =  -669.536507246     A.U. after   15 cycles
 E2 =    -0.2091759857D+01 EUMP2 =    -0.67162826710318D+03

 The electronic state is 1-A.
 Alpha  occ. eigenvalues --  -20.61010 -20.61002 -15.86020 -11.31325 -11.27886
 Alpha  occ. eigenvalues --  -11.27879 -11.27617 -11.26886 -11.26876 -11.20931
 Alpha  occ. eigenvalues --  -11.20591 -11.20421 -11.20288 -11.19865 -11.19477
 Alpha  occ. eigenvalues --   -1.60048  -1.39609  -1.19488  -1.08896  -1.07332
 Alpha  occ. eigenvalues --   -1.04882  -1.02473  -0.95741  -0.94903  -0.86284
 Alpha  occ. eigenvalues --   -0.85918  -0.82579  -0.78601  -0.77633  -0.77047
 Alpha  occ. eigenvalues --   -0.72244  -0.71352  -0.70598  -0.65146  -0.64885
 Alpha  occ. eigenvalues --   -0.63972  -0.62230  -0.59879  -0.58340  -0.56496
 Alpha  occ. eigenvalues --   -0.55387  -0.54182  -0.53214  -0.52974  -0.51669
 Alpha  occ. eigenvalues --   -0.51297  -0.49044  -0.48997  -0.48828  -0.46882
 Alpha  occ. eigenvalues --   -0.45651  -0.45194  -0.44580  -0.44241  -0.42701
 Alpha  occ. eigenvalues --   -0.37463  -0.36482
 Alpha virt. eigenvalues --    0.04862   0.11173   0.16347   0.21302   0.23865
 Alpha virt. eigenvalues --    0.25437   0.27226   0.27703   0.28119   0.28660
 Alpha virt. eigenvalues --    0.29058   0.30918   0.32344   0.32484   0.32581

 Mulliken charges:
               1
     1  C   -0.307116
     2  C   -0.298575
     3  C   -0.477325
     4  H    0.168791
     5  H    0.151993
     6  H    0.146612
     7  H    0.145417
     8  H    0.157062
     9  H    0.170031
    10  H    0.151126
    11  C   -0.297272
    12  C   -0.298220
    13  C   -0.474718
    14  H    0.145989
    15  H    0.146015
    16  H    0.148535
    17  H    0.151539
    18  H    0.154602
    19  H    0.153647
    20  H    0.155998
    21  C   -0.170479
    22  C   -0.218538
    23  C   -0.170542
    24  C    0.158812
    25  C   -0.170883
    26  C   -0.218495
    27  H    0.226136
    28  H    0.223958
    29  H    0.275914
    30  H    0.275476
    31  H    0.223910
    32  N    0.489050
    33  O   -0.460641
    34  O   -0.457811
 Sum of Mulliken charges =  -0.00000

 Dipole moment (field-independent basis, Debye):
    X=             -4.6924    Y=              2.6897    Z=              0.4845  Tot=              5.4303
 Quadrupole moment (field-independent basis, Debye-Ang):
   XX=            -76.0043   YY=            -99.9941   ZZ=            -88.9564
   XY=             -5.2360   XZ=             -0.6117   YZ=              0.0042

 Normal termination of Gaussian 16 at Thu May  6 04:25:15 2021.
