 Gaussian 16, Revision A.03,
 Gaussian 16:  EM64L-G16RevA.03 25-Dec-2016

 -------------
 #p 6-31g* mp2
 -------------

 ------------------------------------------------------
 Input file generated by CHIRIPA (05-May-2021 14:53:17)
 ------------------------------------------------------
 Symbolic Z-matrix:
 Charge =  0 Multiplicity = 1

                         Standard orientation:
 ---------------------------------------------------------------------
 Center     Atomic      Atomic             Coordinates (Angstroms)
 Number     Number       Type             X           Y           Z
 ---------------------------------------------------------------------
      1          6           0        3.207195   -0.245464   -0.249035
      2          6           0        2.579310   -1.635687   -0.144032
      3          6           0        1.065501   -1.618346   -0.358219
      4          1           0        2.738425    0.418398    0.490213
      5          1           0        2.980610    0.177865   -1.237390
      6          1           0        2.808183   -2.056835    0.843322
      7          1           0        3.049763   -2.296368   -0.883485
      8          1           0        0.821165   -1.222574   -1.349312
      9          1           0        0.578213   -0.981680    0.387306
     10          1           0        0.637279   -2.622430   -0.278846
     11          6           0        4.720096   -0.246452   -0.037243
     12          6           0        5.347981    1.143771   -0.142246
     13          6           0        6.861790    1.126429    0.071941
     14          1           0        4.946681   -0.669781    0.951112
     15          1           0        5.188866   -0.910314   -0.776491
     16          1           0        4.877528    1.804451    0.597207
     17          1           0        5.119108    1.564918   -1.129600
     18          1           0        7.349078    0.489764   -0.673585
     19          1           0        7.106126    0.730657    1.063034
     20          1           0        7.290013    2.130514   -0.007432
     21          6           0       -3.379329    2.692932   -0.067347
     22          6           0       -4.176755    1.841255   -0.838891
     23          6           0       -4.028777    0.454047   -0.747751
     24          6           0       -3.069265   -0.049611    0.129149
     25          6           0       -2.259686    0.772903    0.911033
     26          6           0       -2.425022    2.156983    0.803617
     27          1           0       -3.501023    3.769332   -0.144469
     28          1           0       -4.918688    2.254675   -1.516138
     29          1           0       -4.632808   -0.228261   -1.333429
     30          1           0       -1.528581    0.331236    1.577241
     31          1           0       -1.804335    2.815998    1.404026
     32          7           0       -2.903419   -1.516529    0.234251
     33          8           0       -2.050920   -1.935305    1.014319
     34          8           0       -3.629070   -2.219747   -0.465430
 ---------------------------------------------------------------------

 SCF Done:  E(RHF) =  -669.535440631     A.U. after   15 cycles
 E2 =    -0.2091909362D+01 EUMP2 =    -0.67162734999312D+03

 The electronic state is 1-A.
 Alpha  occ. eigenvalues --  -20.60833 -20.60796 -15.85840 -11.31208 -11.27780
 Alpha  occ. eigenvalues --  -11.27771 -11.27518 -11.26795 -11.26785 -11.21534
 Alpha  occ. eigenvalues --  -11.21213 -11.21137 -11.21057 -11.21018 -11.20220
 Alpha  occ. eigenvalues --   -1.59875  -1.39432  -1.19379  -1.08775  -1.08178
 Alpha  occ. eigenvalues --   -1.04784  -1.03196  -0.95672  -0.95568  -0.86643
 Alpha  occ. eigenvalues --   -0.86182  -0.82449  -0.79284  -0.78001  -0.77486
 Alpha  occ. eigenvalues --   -0.72076  -0.71182  -0.70494  -0.65039  -0.64834
 Alpha  occ. eigenvalues --   -0.64775  -0.62145  -0.60596  -0.59009  -0.57233
 Alpha  occ. eigenvalues --   -0.55292  -0.54927  -0.53113  -0.52885  -0.52261
 Alpha  occ. eigenvalues --   -0.52061  -0.49628  -0.48836  -0.48814  -0.47578
 Alpha  occ. eigenvalues --   -0.46350  -0.45565  -0.45467  -0.44741  -0.43381
 Alpha  occ. eigenvalues --   -0.37353  -0.36380
 Alpha virt. eigenvalues --    0.05019   0.11210   0.16509   0.21133   0.23067
 Alpha virt. eigenvalues --    0.24440   0.26248   0.27158   0.27686   0.27866
 Alpha virt. eigenvalues --    0.28972   0.30445   0.31531   0.32001   0.32485

 Mulliken charges:
               1
     1  C   -0.296680
     2  C   -0.301500
     3  C   -0.475152
     4  H    0.143869
     5  H    0.147911
     6  H    0.152297
     7  H    0.150822
     8  H    0.147677
     9  H    0.152534
    10  H    0.175812
    11  C   -0.297857
    12  C   -0.299009
    13  C   -0.475495
    14  H    0.149618
    15  H    0.150212
    16  H    0.149525
    17  H    0.151050
    18  H    0.155639
    19  H    0.155276
    20  H    0.159074
    21  C   -0.170709
    22  C   -0.218457
    23  C   -0.171004
    24  C    0.159375
    25  C   -0.170327
    26  C   -0.218761
    27  H    0.225677
    28  H    0.223502
    29  H    0.275625
    30  H    0.275721
    31  H    0.223526
    32  N    0.488448
    33  O   -0.458005
    34  O   -0.460234
 Sum of Mulliken charges =  -0.00000

 Dipole moment (field-independent basis, Debye):
    X=             -0.7436    Y=              5.0490    Z=             -0.3496  Tot=              5.1154
 Quadrupole moment (field-independent basis, Debye-Ang):
   XX=            -90.5553   YY=            -95.4929   ZZ=            -92.1122
   XY=            -15.8240   XZ=              3.7241   YZ=              1.2775

 Normal termination of Gaussian 16 at Wed May  5 17:15:56 2021.
