 Gaussian 16, Revision A.03,
 Gaussian 16:  EM64L-G16RevA.03 25-Dec-2016

 -------------
 #p 6-31g* mp2
 -------------

 ------------------------------------------------------
 Input file generated by CHIRIPA (05-May-2021 14:57:25)
 ------------------------------------------------------
 Symbolic Z-matrix:
 Charge =  0 Multiplicity = 1

                         Standard orientation:
 ---------------------------------------------------------------------
 Center     Atomic      Atomic             Coordinates (Angstroms)
 Number     Number       Type             X           Y           Z
 ---------------------------------------------------------------------
      1          6           0       -5.355740    1.681760    0.663241
      2          6           0       -5.812038    0.423962    0.255494
      3          6           0       -4.915845   -0.534058   -0.227813
      4          6           0       -3.564107   -0.199069   -0.290081
      5          6           0       -3.078725    1.045406    0.108637
      6          6           0       -3.992943    1.987928    0.588643
      7          1           0       -6.058926    2.419953    1.037403
      8          1           0       -6.869845    0.183418    0.312313
      9          1           0       -5.241952   -1.515480   -0.550123
     10          1           0       -2.018353    1.256007    0.040246
     11          1           0       -3.635731    2.963946    0.904608
     12          7           0       -2.605807   -1.205078   -0.799989
     13          8           0       -1.419903   -0.885314   -0.844926
     14          8           0       -3.058741   -2.294304   -1.145062
     15          6           0        5.688792    1.171283   -0.890660
     16          6           0        5.860669   -0.060050   -0.249725
     17          6           0        4.778034   -0.699681    0.361277
     18          6           0        3.531909   -0.076753    0.312067
     19          6           0        3.328758    1.149671   -0.318730
     20          6           0        4.425613    1.771157   -0.923059
     21          1           0        6.535332    1.661116   -1.362709
     22          1           0        6.840523   -0.528256   -0.222997
     23          1           0        4.882942   -1.653277    0.864335
     24          1           0        2.339894    1.591785   -0.328874
     25          1           0        4.289180    2.727391   -1.420098
     26          7           0        2.378246   -0.744296    0.955375
     27          8           0        1.290620   -0.174711    0.898091
     28          8           0        2.583475   -1.824461    1.504704
 ---------------------------------------------------------------------

 SCF Done:  E(RHF) =  -868.336389122     A.U. after   16 cycles
 E2 =    -0.2600124137D+01 EUMP2 =    -0.87093651325869D+03

 The electronic state is 1-A.
 Alpha  occ. eigenvalues --  -20.60085 -20.60013 -20.59826 -20.59719 -15.85104
 Alpha  occ. eigenvalues --  -15.84822 -11.30690 -11.30425 -11.27304 -11.27279
 Alpha  occ. eigenvalues --  -11.27082 -11.27058 -11.26992 -11.26860 -11.26371
 Alpha  occ. eigenvalues --  -11.26349 -11.26129 -11.26107  -1.59105  -1.58848
 Alpha  occ. eigenvalues --   -1.38659  -1.38388  -1.18884  -1.18633  -1.08239
 Alpha  occ. eigenvalues --   -1.07993  -1.04328  -1.04074  -0.95042  -0.94780
 Alpha  occ. eigenvalues --   -0.85715  -0.85461  -0.81887  -0.81600  -0.76898
 Alpha  occ. eigenvalues --   -0.76597  -0.71391  -0.70996  -0.70408  -0.70164
 Alpha  occ. eigenvalues --   -0.70003  -0.69747  -0.64542  -0.64342  -0.64280
 Alpha  occ. eigenvalues --   -0.64091  -0.61680  -0.61413  -0.54829  -0.54590
 Alpha  occ. eigenvalues --   -0.52635  -0.52432  -0.52392  -0.52175  -0.48108
 Alpha  occ. eigenvalues --   -0.48074  -0.47838  -0.47773  -0.44056  -0.43663
 Alpha  occ. eigenvalues --   -0.36875  -0.36639  -0.35938  -0.35687
 Alpha virt. eigenvalues --    0.05645   0.05961   0.11714   0.11965   0.17088
 Alpha virt. eigenvalues --    0.17393   0.21695   0.22071   0.27525   0.27887
 Alpha virt. eigenvalues --    0.28451   0.29137   0.31063   0.31677   0.32629

 Mulliken charges:
               1
     1  C   -0.171555
     2  C   -0.218912
     3  C   -0.171363
     4  C    0.158657
     5  C   -0.169752
     6  C   -0.219025
     7  H    0.222628
     8  H    0.220863
     9  H    0.274344
    10  H    0.280890
    11  H    0.220425
    12  N    0.487701
    13  O   -0.449342
    14  O   -0.466030
    15  C   -0.171512
    16  C   -0.218450
    17  C   -0.170884
    18  C    0.160460
    19  C   -0.169017
    20  C   -0.218399
    21  H    0.223706
    22  H    0.222104
    23  H    0.275605
    24  H    0.272768
    25  H    0.220890
    26  N    0.489794
    27  O   -0.455122
    28  O   -0.461472
 Sum of Mulliken charges =  -0.00000

 Dipole moment (field-independent basis, Debye):
    X=              0.8105    Y=              5.8049    Z=             -0.4502  Tot=              5.8785
 Quadrupole moment (field-independent basis, Debye-Ang):
   XX=            -50.1336   YY=           -102.7311   ZZ=           -108.6194
   XY=             -3.9170   XZ=            -10.9113   YZ=             -1.2583

 Normal termination of Gaussian 16 at Wed May  5 21:05:39 2021.
