 Gaussian 16, Revision A.03,
 Gaussian 16:  EM64L-G16RevA.03 25-Dec-2016

 -------------
 #p 6-31g* mp2
 -------------

 ------------------------------------------------------
 Input file generated by CHIRIPA (05-May-2021 14:57:25)
 ------------------------------------------------------
 Symbolic Z-matrix:
 Charge =  0 Multiplicity = 1

                         Standard orientation:
 ---------------------------------------------------------------------
 Center     Atomic      Atomic             Coordinates (Angstroms)
 Number     Number       Type             X           Y           Z
 ---------------------------------------------------------------------
      1          6           0        5.039182   -0.245595   -1.575823
      2          6           0        5.197078    0.695032   -0.552685
      3          6           0        4.238493    0.812175    0.458226
      4          6           0        3.129325   -0.031124    0.414840
      5          6           0        2.943679   -0.978132   -0.591143
      6          6           0        3.914969   -1.077708   -1.591758
      7          1           0        5.788768   -0.329771   -2.357124
      8          1           0        6.069147    1.342579   -0.537765
      9          1           0        4.335734    1.531696    1.262124
     10          1           0        2.063722   -1.609757   -0.579207
     11          1           0        3.789724   -1.809121   -2.385102
     12          7           0        2.107790    0.083591    1.479596
     13          8           0        1.139590   -0.671076    1.418739
     14          8           0        2.294653    0.926000    2.354849
     15          6           0       -3.410482   -2.436077    0.175935
     16          6           0       -4.569854   -1.658443    0.263477
     17          6           0       -4.519154   -0.280057    0.035380
     18          6           0       -3.286782    0.290379   -0.279504
     19          6           0       -2.114226   -0.457581   -0.374159
     20          6           0       -2.188523   -1.834226   -0.142043
     21          1           0       -3.459033   -3.506165    0.354687
     22          1           0       -5.520222   -2.123148    0.510246
     23          1           0       -5.401307    0.345624    0.096594
     24          1           0       -1.181376    0.034122   -0.622025
     25          1           0       -1.286527   -2.435667   -0.210717
     26          7           0       -3.220617    1.748693   -0.523107
     27          8           0       -2.122632    2.227217   -0.798937
     28          8           0       -4.267994    2.385581   -0.433600
 ---------------------------------------------------------------------

 SCF Done:  E(RHF) =  -868.338599468     A.U. after   16 cycles
 E2 =    -0.2599468503D+01 EUMP2 =    -0.87093806797094D+03

 The electronic state is 1-A.
 Alpha  occ. eigenvalues --  -20.61259 -20.61181 -20.60099 -20.60090 -15.86255
 Alpha  occ. eigenvalues --  -15.85148 -11.31533 -11.30391 -11.28168 -11.28031
 Alpha  occ. eigenvalues --  -11.27782 -11.27108 -11.27035 -11.27009 -11.26906
 Alpha  occ. eigenvalues --  -11.26743 -11.26024 -11.25934  -1.60271  -1.59171
 Alpha  occ. eigenvalues --   -1.39838  -1.38729  -1.19686  -1.18571  -1.09090
 Alpha  occ. eigenvalues --   -1.08004  -1.05084  -1.03952  -0.95947  -0.94851
 Alpha  occ. eigenvalues --   -0.86487  -0.85375  -0.82795  -0.81682  -0.77866
 Alpha  occ. eigenvalues --   -0.76732  -0.72483  -0.71579  -0.71374  -0.70802
 Alpha  occ. eigenvalues --   -0.70485  -0.69708  -0.65348  -0.65088  -0.64234
 Alpha  occ. eigenvalues --   -0.63983  -0.62451  -0.61304  -0.55573  -0.54513
 Alpha  occ. eigenvalues --   -0.53400  -0.53182  -0.52289  -0.52067  -0.49252
 Alpha  occ. eigenvalues --   -0.49205  -0.48131  -0.48122  -0.45253  -0.44160
 Alpha  occ. eigenvalues --   -0.37641  -0.36676  -0.36574  -0.35518
 Alpha virt. eigenvalues --    0.04658   0.05809   0.10964   0.12114   0.16175
 Alpha virt. eigenvalues --    0.17301   0.20237   0.22107   0.25505   0.27388
 Alpha virt. eigenvalues --    0.28847   0.29001   0.30811   0.31436   0.33088

 Mulliken charges:
               1
     1  C   -0.170061
     2  C   -0.217750
     3  C   -0.169196
     4  C    0.160632
     5  C   -0.171244
     6  C   -0.217380
     7  H    0.227189
     8  H    0.225626
     9  H    0.277893
    10  H    0.266330
    11  H    0.223277
    12  N    0.490704
    13  O   -0.471058
    14  O   -0.452513
    15  C   -0.171310
    16  C   -0.219046
    17  C   -0.171499
    18  C    0.157059
    19  C   -0.160874
    20  C   -0.213608
    21  H    0.222567
    22  H    0.220396
    23  H    0.273170
    24  H    0.274655
    25  H    0.221798
    26  N    0.488705
    27  O   -0.461381
    28  O   -0.463080
 Sum of Mulliken charges =  -0.00000

 Dipole moment (field-independent basis, Debye):
    X=              3.7668    Y=             -5.4116    Z=             -2.7972  Tot=              7.1623
 Quadrupole moment (field-independent basis, Debye-Ang):
   XX=            -74.7893   YY=           -106.3645   ZZ=           -108.6309
   XY=             17.7620   XZ=            -13.0323   YZ=              3.6819

 Normal termination of Gaussian 16 at Thu May  6 18:05:15 2021.
