 Gaussian 16, Revision A.03,
 Gaussian 16:  EM64L-G16RevA.03 25-Dec-2016

 -------------
 #p 6-31g* mp2
 -------------

 ------------------------------------------------------
 Input file generated by CHIRIPA (05-May-2021 14:55:22)
 ------------------------------------------------------
 Symbolic Z-matrix:
 Charge =  0 Multiplicity = 1

                         Standard orientation:
 ---------------------------------------------------------------------
 Center     Atomic      Atomic             Coordinates (Angstroms)
 Number     Number       Type             X           Y           Z
 ---------------------------------------------------------------------
      1          6           0        2.578590   -2.255365    0.606850
      2          6           0        2.291115   -1.307359    1.594355
      3          6           0        2.455705    0.057111    1.338075
      4          6           0        2.911647    0.440052    0.077614
      5          6           0        3.206537   -0.480392   -0.926932
      6          6           0        3.034580   -1.839588   -0.648429
      7          1           0        2.447871   -3.313269    0.814566
      8          1           0        1.936837   -1.627361    2.570126
      9          1           0        2.240627    0.812269    2.084329
     10          1           0        3.558113   -0.130888   -1.890083
     11          1           0        3.258620   -2.573595   -1.417250
     12          7           0        3.089791    1.881764   -0.205462
     13          8           0        3.492816    2.193377   -1.323990
     14          8           0        2.823023    2.672866    0.696552
     15          6           0       -3.303565   -0.857822   -0.435071
     16          6           0       -1.805111   -0.804014   -0.135534
     17          6           0       -1.046980   -2.008605   -0.694097
     18          1           0       -3.721918   -1.782926   -0.015419
     19          1           0       -3.451271   -0.913126   -1.522508
     20          1           0       -1.660314   -0.747433    0.950950
     21          1           0       -1.390313    0.121162   -0.555782
     22          1           0       -1.161841   -2.065715   -1.781363
     23          1           0       -1.433377   -2.939245   -0.266070
     24          1           0        0.022377   -1.949752   -0.468546
     25          6           0       -4.075089    0.339574    0.116945
     26          6           0       -5.573544    0.285767   -0.182592
     27          6           0       -6.331676    1.490357    0.375972
     28          1           0       -3.927384    0.394878    1.204382
     29          1           0       -3.656736    1.264678   -0.302707
     30          1           0       -5.988343   -0.639410    0.237657
     31          1           0       -5.718342    0.229185   -1.269076
     32          1           0       -5.945278    2.420997   -0.052057
     33          1           0       -6.216814    1.547467    1.463237
     34          1           0       -7.401031    1.431505    0.150420
 ---------------------------------------------------------------------

 SCF Done:  E(RHF) =  -669.534898534     A.U. after   15 cycles
 E2 =    -0.2092754467D+01 EUMP2 =    -0.67162765300042D+03

 The electronic state is 1-A.
 Alpha  occ. eigenvalues --  -20.60824 -20.60819 -15.85879 -11.31276 -11.27853
 Alpha  occ. eigenvalues --  -11.27848 -11.27572 -11.26857 -11.26844 -11.21718
 Alpha  occ. eigenvalues --  -11.21623 -11.21471 -11.21388 -11.21134 -11.21058
 Alpha  occ. eigenvalues --   -1.59900  -1.39452  -1.19464  -1.08857  -1.08489
 Alpha  occ. eigenvalues --   -1.04858  -1.03593  -0.96050  -0.95671  -0.87069
 Alpha  occ. eigenvalues --   -0.86252  -0.82499  -0.79664  -0.78301  -0.77540
 Alpha  occ. eigenvalues --   -0.72096  -0.71223  -0.70557  -0.65124  -0.65105
 Alpha  occ. eigenvalues --   -0.64850  -0.62197  -0.60997  -0.59490  -0.57712
 Alpha  occ. eigenvalues --   -0.55364  -0.55328  -0.53607  -0.52942  -0.52580
 Alpha  occ. eigenvalues --   -0.52144  -0.49995  -0.48858  -0.48849  -0.47972
 Alpha  occ. eigenvalues --   -0.46702  -0.45844  -0.45771  -0.44851  -0.43864
 Alpha  occ. eigenvalues --   -0.37343  -0.36462
 Alpha virt. eigenvalues --    0.04980   0.11164   0.16444   0.21298   0.22813
 Alpha virt. eigenvalues --    0.24291   0.26558   0.27181   0.27494   0.27834
 Alpha virt. eigenvalues --    0.28411   0.30897   0.31314   0.31859   0.32268

 Mulliken charges:
               1
     1  C   -0.175606
     2  C   -0.215775
     3  C   -0.170238
     4  C    0.158991
     5  C   -0.170351
     6  C   -0.217030
     7  H    0.227251
     8  H    0.224256
     9  H    0.276238
    10  H    0.276149
    11  H    0.224667
    12  N    0.488019
    13  O   -0.460243
    14  O   -0.460052
    15  C   -0.298176
    16  C   -0.297327
    17  C   -0.486673
    18  H    0.147881
    19  H    0.150033
    20  H    0.147713
    21  H    0.155010
    22  H    0.153814
    23  H    0.149367
    24  H    0.170594
    25  C   -0.298563
    26  C   -0.299651
    27  C   -0.475821
    28  H    0.148511
    29  H    0.152225
    30  H    0.150892
    31  H    0.152214
    32  H    0.156628
    33  H    0.154899
    34  H    0.160154
 Sum of Mulliken charges =  -0.00000

 Dipole moment (field-independent basis, Debye):
    X=             -0.5058    Y=             -5.0254    Z=              1.0070  Tot=              5.1502
 Quadrupole moment (field-independent basis, Debye-Ang):
   XX=            -99.1094   YY=           -100.1297   ZZ=            -89.7403
   XY=            -15.3288   XZ=              1.3564   YZ=              0.3996

 Normal termination of Gaussian 16 at Thu May  6 20:47:21 2021.
