 Gaussian 16, Revision A.03,
 Gaussian 16:  EM64L-G16RevA.03 25-Dec-2016

 -------------
 #p 6-31g* mp2
 -------------

 ------------------------------------------------------
 Input file generated by CHIRIPA (05-May-2021 14:55:23)
 ------------------------------------------------------
 Symbolic Z-matrix:
 Charge =  0 Multiplicity = 1

                         Standard orientation:
 ---------------------------------------------------------------------
 Center     Atomic      Atomic             Coordinates (Angstroms)
 Number     Number       Type             X           Y           Z
 ---------------------------------------------------------------------
      1          6           0        1.240484    1.871888   -1.354465
      2          6           0        2.576572    2.017167   -0.966800
      3          6           0        3.281830    0.935771   -0.430384
      4          6           0        2.616995   -0.282007   -0.295105
      5          6           0        1.286540   -0.458257   -0.672087
      6          6           0        0.600860    0.636817   -1.206132
      7          1           0        0.700227    2.717254   -1.770245
      8          1           0        3.075861    2.975160   -1.080841
      9          1           0        4.316822    1.020444   -0.122098
     10          1           0        0.815684   -1.425660   -0.546215
     11          1           0       -0.436697    0.521077   -1.506341
     12          7           0        3.353257   -1.434072    0.271520
     13          8           0        2.744860   -2.496444    0.380408
     14          8           0        4.524795   -1.252875    0.596024
     15          6           0       -2.592737    0.079946    0.966260
     16          6           0       -1.953732    1.440971    1.244235
     17          6           0       -0.751260    1.348583    2.184087
     18          1           0       -2.903101   -0.373451    1.917601
     19          1           0       -1.837646   -0.590075    0.532321
     20          1           0       -2.710162    2.108655    1.676239
     21          1           0       -1.645025    1.891266    0.292105
     22          1           0        0.023521    0.704210    1.756185
     23          1           0       -1.047667    0.922835    3.148183
     24          1           0       -0.309838    2.332830    2.369191
     25          6           0       -3.796128    0.155914    0.028279
     26          6           0       -4.435133   -1.205111   -0.249695
     27          6           0       -5.637605   -1.112722   -1.189547
     28          1           0       -4.551219    0.825936    0.462219
     29          1           0       -3.485763    0.609311   -0.923062
     30          1           0       -4.743840   -1.655405    0.702434
     31          1           0       -3.678703   -1.872794   -0.681700
     32          1           0       -5.341198   -0.686974   -2.153643
     33          1           0       -6.412385   -0.468350   -0.761646
     34          1           0       -6.079026   -2.096971   -1.374652
 ---------------------------------------------------------------------

 SCF Done:  E(RHF) =  -669.533947216     A.U. after   15 cycles
 E2 =    -0.2095055493D+01 EUMP2 =    -0.67162900270879D+03

 The electronic state is 1-A.
 Alpha  occ. eigenvalues --  -20.60822 -20.60817 -15.85877 -11.31287 -11.27826
 Alpha  occ. eigenvalues --  -11.27821 -11.27564 -11.26860 -11.26831 -11.22154
 Alpha  occ. eigenvalues --  -11.22144 -11.22075 -11.22004 -11.21539 -11.21251
 Alpha  occ. eigenvalues --   -1.59897  -1.39449  -1.19456  -1.09058  -1.08821
 Alpha  occ. eigenvalues --   -1.04878  -1.04005  -0.96455  -0.95667  -0.87468
 Alpha  occ. eigenvalues --   -0.86254  -0.82500  -0.80094  -0.78863  -0.77549
 Alpha  occ. eigenvalues --   -0.72093  -0.71222  -0.70547  -0.65868  -0.65100
 Alpha  occ. eigenvalues --   -0.64758  -0.62241  -0.61394  -0.59827  -0.58074
 Alpha  occ. eigenvalues --   -0.55849  -0.55336  -0.53182  -0.53110  -0.52931
 Alpha  occ. eigenvalues --   -0.52782  -0.50360  -0.48857  -0.48847  -0.48382
 Alpha  occ. eigenvalues --   -0.47148  -0.46380  -0.46354  -0.44845  -0.44311
 Alpha  occ. eigenvalues --   -0.37401  -0.36379
 Alpha virt. eigenvalues --    0.04953   0.11079   0.16366   0.19079   0.22963
 Alpha virt. eigenvalues --    0.24183   0.25144   0.25376   0.27086   0.28544
 Alpha virt. eigenvalues --    0.29462   0.31204   0.31240   0.31474   0.31907

 Mulliken charges:
               1
     1  C   -0.170699
     2  C   -0.217725
     3  C   -0.171034
     4  C    0.160806
     5  C   -0.178321
     6  C   -0.214131
     7  H    0.226154
     8  H    0.224003
     9  H    0.276044
    10  H    0.276130
    11  H    0.227661
    12  N    0.488162
    13  O   -0.460192
    14  O   -0.459947
    15  C   -0.301168
    16  C   -0.298327
    17  C   -0.478421
    18  H    0.156155
    19  H    0.142916
    20  H    0.153885
    21  H    0.140923
    22  H    0.162764
    23  H    0.156665
    24  H    0.158541
    25  C   -0.299015
    26  C   -0.299540
    27  C   -0.475882
    28  H    0.153004
    29  H    0.141736
    30  H    0.155588
    31  H    0.150310
    32  H    0.153627
    33  H    0.156443
    34  H    0.162886
 Sum of Mulliken charges =  -0.00000

 Dipole moment (field-independent basis, Debye):
    X=             -2.5870    Y=              4.0297    Z=             -1.9369  Tot=              5.1655
 Quadrupole moment (field-independent basis, Debye-Ang):
   XX=           -105.0731   YY=            -95.8953   ZZ=            -94.0485
   XY=             14.2639   XZ=             -5.3483   YZ=             -0.3876

 Normal termination of Gaussian 16 at Thu May  6 15:58:05 2021.
