 Gaussian 16, Revision A.03,
 Gaussian 16:  EM64L-G16RevA.03 25-Dec-2016

 -------------
 #p 6-31g* mp2
 -------------

 ------------------------------------------------------
 Input file generated by CHIRIPA (05-May-2021 14:57:25)
 ------------------------------------------------------
 Symbolic Z-matrix:
 Charge =  0 Multiplicity = 1

                         Standard orientation:
 ---------------------------------------------------------------------
 Center     Atomic      Atomic             Coordinates (Angstroms)
 Number     Number       Type             X           Y           Z
 ---------------------------------------------------------------------
      1          6           0       -4.548328   -2.234595   -0.158269
      2          6           0       -4.955139   -1.220343    0.714840
      3          6           0       -4.347350    0.038009    0.673724
      4          6           0       -3.331341    0.248434   -0.257264
      5          6           0       -2.903814   -0.741825   -1.140382
      6          6           0       -3.525766   -1.992526   -1.081466
      7          1           0       -5.025974   -3.209141   -0.119415
      8          1           0       -5.749015   -1.405493    1.432841
      9          1           0       -4.642690    0.841090    1.337992
     10          1           0       -2.109716   -0.527286   -1.845222
     11          1           0       -3.207777   -2.778333   -1.760756
     12          7           0       -2.680405    1.576545   -0.310214
     13          8           0       -1.787599    1.736625   -1.139617
     14          8           0       -3.075333    2.432290    0.478690
     15          6           0        1.297154    0.677169    1.380170
     16          6           0        1.752016    1.365262    0.250501
     17          6           0        2.937192    0.982443   -0.384602
     18          6           0        3.645653   -0.097867    0.139135
     19          6           0        3.218482   -0.803405    1.262982
     20          6           0        2.030546   -0.403065    1.881920
     21          1           0        0.375409    0.981357    1.867254
     22          1           0        1.184511    2.204560   -0.141368
     23          1           0        3.312289    1.497518   -1.260626
     24          1           0        3.805871   -1.636114    1.630393
     25          1           0        1.679702   -0.939294    2.759081
     26          7           0        4.901806   -0.512415   -0.524663
     27          8           0        5.507665   -1.467502   -0.043642
     28          8           0        5.256735    0.125598   -1.513401
 ---------------------------------------------------------------------

 SCF Done:  E(RHF) =  -868.339895006     A.U. after   16 cycles
 E2 =    -0.2598875982D+01 EUMP2 =    -0.87093877098790D+03

 The electronic state is 1-A.
 Alpha  occ. eigenvalues --  -20.61819 -20.61813 -20.60358 -20.60347 -15.86839
 Alpha  occ. eigenvalues --  -15.85399 -11.31940 -11.30631 -11.28486 -11.28452
 Alpha  occ. eigenvalues --  -11.28157 -11.27429 -11.27396 -11.27203 -11.27070
 Alpha  occ. eigenvalues --  -11.26813 -11.26226 -11.25929  -1.60895  -1.59434
 Alpha  occ. eigenvalues --   -1.40447  -1.38990  -1.20089  -1.18761  -1.09532
 Alpha  occ. eigenvalues --   -1.08174  -1.05442  -1.04121  -0.96408  -0.95042
 Alpha  occ. eigenvalues --   -0.86851  -0.85513  -0.83241  -0.81866  -0.78322
 Alpha  occ. eigenvalues --   -0.76938  -0.73060  -0.72222  -0.71618  -0.71179
 Alpha  occ. eigenvalues --   -0.70756  -0.69854  -0.65736  -0.65432  -0.64396
 Alpha  occ. eigenvalues --   -0.64069  -0.62785  -0.61449  -0.55945  -0.54613
 Alpha  occ. eigenvalues --   -0.53797  -0.53521  -0.52490  -0.52174  -0.49830
 Alpha  occ. eigenvalues --   -0.49800  -0.48385  -0.48362  -0.45899  -0.44426
 Alpha  occ. eigenvalues --   -0.38057  -0.37036  -0.36738  -0.35721
 Alpha virt. eigenvalues --    0.04154   0.05552   0.10622   0.11927   0.15708
 Alpha virt. eigenvalues --    0.17102   0.20823   0.22135   0.26766   0.27646
 Alpha virt. eigenvalues --    0.28205   0.28770   0.30468   0.31667   0.31964

 Mulliken charges:
               1
     1  C   -0.169953
     2  C   -0.218855
     3  C   -0.172042
     4  C    0.155283
     5  C   -0.170090
     6  C   -0.218715
     7  H    0.228390
     8  H    0.225380
     9  H    0.275655
    10  H    0.277713
    11  H    0.226962
    12  N    0.486468
    13  O   -0.463828
    14  O   -0.460145
    15  C   -0.175635
    16  C   -0.218321
    17  C   -0.174287
    18  C    0.158044
    19  C   -0.173781
    20  C   -0.219191
    21  H    0.226841
    22  H    0.242948
    23  H    0.275350
    24  H    0.272366
    25  H    0.219511
    26  N    0.487977
    27  O   -0.463112
    28  O   -0.460929
 Sum of Mulliken charges =  -0.00000

 Dipole moment (field-independent basis, Debye):
    X=             -7.0835    Y=             -3.1710    Z=              2.4143  Tot=              8.1278
 Quadrupole moment (field-independent basis, Debye-Ang):
   XX=           -121.4612   YY=           -104.8149   ZZ=           -100.1321
   XY=             20.2553   XZ=              5.6541   YZ=             -0.0927

 Normal termination of Gaussian 16 at Fri May  7 09:38:51 2021.
