 Gaussian 16, Revision A.03,
 Gaussian 16:  EM64L-G16RevA.03 25-Dec-2016

 -------------
 #p 6-31g* mp2
 -------------

 ------------------------------------------------------
 Input file generated by CHIRIPA (05-May-2021 14:57:27)
 ------------------------------------------------------
 Symbolic Z-matrix:
 Charge =  0 Multiplicity = 1

                         Standard orientation:
 ---------------------------------------------------------------------
 Center     Atomic      Atomic             Coordinates (Angstroms)
 Number     Number       Type             X           Y           Z
 ---------------------------------------------------------------------
      1          6           0       -3.222148    2.497138    0.910291
      2          6           0       -2.165838    1.656092    0.545092
      3          6           0       -2.418912    0.384090    0.023064
      4          6           0       -3.746364   -0.016456   -0.120889
      5          6           0       -4.820329    0.798461    0.233792
      6          6           0       -4.543693    2.066398    0.753752
      7          1           0       -3.016403    3.483680    1.315012
      8          1           0       -1.138513    1.987964    0.665551
      9          1           0       -1.620155   -0.287347   -0.267759
     10          1           0       -5.833925    0.439752    0.102006
     11          1           0       -5.366029    2.717434    1.036522
     12          7           0       -4.026754   -1.360916   -0.672441
     13          8           0       -5.205099   -1.690257   -0.789381
     14          8           0       -3.062870   -2.059905   -0.977365
     15          6           0        2.162581   -1.844340    1.176623
     16          6           0        3.446579   -1.617177    1.682848
     17          6           0        4.307022   -0.711168    1.055682
     18          6           0        3.848799   -0.046654   -0.080867
     19          6           0        2.575195   -0.251421   -0.609349
     20          6           0        1.731746   -1.161941    0.034154
     21          1           0        1.500769   -2.549901    1.670165
     22          1           0        3.783850   -2.145715    2.569945
     23          1           0        5.306059   -0.516281    1.426305
     24          1           0        2.267221    0.290437   -1.495328
     25          1           0        0.735100   -1.336365   -0.361218
     26          7           0        4.750717    0.914885   -0.753466
     27          8           0        4.323185    1.487671   -1.753350
     28          8           0        5.868092    1.077545   -0.268029
 ---------------------------------------------------------------------

 SCF Done:  E(RHF) =  -868.338036333     A.U. after   16 cycles
 E2 =    -0.2599283867D+01 EUMP2 =    -0.87093732020049D+03

 The electronic state is 1-A.
 Alpha  occ. eigenvalues --  -20.61415 -20.61380 -20.61039 -20.61032 -15.86450
 Alpha  occ. eigenvalues --  -15.86094 -11.31767 -11.31481 -11.28404 -11.28265
 Alpha  occ. eigenvalues --  -11.28088 -11.28048 -11.27980 -11.27765 -11.27304
 Alpha  occ. eigenvalues --  -11.27263 -11.27091 -11.27030  -1.60470  -1.60115
 Alpha  occ. eigenvalues --   -1.40030  -1.39667  -1.19913  -1.19660  -1.09302
 Alpha  occ. eigenvalues --   -1.09036  -1.05314  -1.05072  -0.96159  -0.95866
 Alpha  occ. eigenvalues --   -0.86712  -0.86454  -0.82996  -0.82705  -0.78078
 Alpha  occ. eigenvalues --   -0.77752  -0.72671  -0.72308  -0.71789  -0.71442
 Alpha  occ. eigenvalues --   -0.71023  -0.70729  -0.65563  -0.65356  -0.65305
 Alpha  occ. eigenvalues --   -0.65028  -0.62744  -0.62343  -0.55785  -0.55517
 Alpha  occ. eigenvalues --   -0.53631  -0.53464  -0.53391  -0.53086  -0.49442
 Alpha  occ. eigenvalues --   -0.49408  -0.49069  -0.49063  -0.45446  -0.45068
 Alpha  occ. eigenvalues --   -0.37860  -0.37622  -0.36911  -0.36691
 Alpha virt. eigenvalues --    0.04477   0.04780   0.10742   0.10924   0.16005
 Alpha virt. eigenvalues --    0.16200   0.18959   0.21883   0.24658   0.27291
 Alpha virt. eigenvalues --    0.28124   0.28994   0.29812   0.31102   0.31931

 Mulliken charges:
               1
     1  C   -0.170214
     2  C   -0.220536
     3  C   -0.175620
     4  C    0.159191
     5  C   -0.169912
     6  C   -0.218237
     7  H    0.228725
     8  H    0.226647
     9  H    0.271253
    10  H    0.277076
    11  H    0.225796
    12  N    0.487676
    13  O   -0.456727
    14  O   -0.466287
    15  C   -0.171269
    16  C   -0.218894
    17  C   -0.170508
    18  C    0.158468
    19  C   -0.174283
    20  C   -0.229505
    21  H    0.230644
    22  H    0.225063
    23  H    0.276493
    24  H    0.275445
    25  H    0.231747
    26  N    0.487999
    27  O   -0.460661
    28  O   -0.459570
 Sum of Mulliken charges =  -0.00000

 Dipole moment (field-independent basis, Debye):
    X=             -2.2730    Y=              1.4061    Z=              4.4218  Tot=              5.1668
 Quadrupole moment (field-independent basis, Debye-Ang):
   XX=           -128.5905   YY=           -105.2318   ZZ=           -104.4721
   XY=            -33.1403   XZ=              4.2905   YZ=             -1.1173

 Normal termination of Gaussian 16 at Fri May  7 02:03:05 2021.
