 Gaussian 16, Revision A.03,
 Gaussian 16:  EM64L-G16RevA.03 25-Dec-2016

 -------------
 #p 6-31g* mp2
 -------------

 ------------------------------------------------------
 Input file generated by CHIRIPA (05-May-2021 14:57:23)
 ------------------------------------------------------
 Symbolic Z-matrix:
 Charge =  0 Multiplicity = 1

                         Standard orientation:
 ---------------------------------------------------------------------
 Center     Atomic      Atomic             Coordinates (Angstroms)
 Number     Number       Type             X           Y           Z
 ---------------------------------------------------------------------
      1          6           0        4.832980   -1.972645   -0.246096
      2          6           0        3.617286   -1.873535    0.438585
      3          6           0        2.969682   -0.640558    0.560749
      4          6           0        3.568775    0.477948   -0.016592
      5          6           0        4.779182    0.411454   -0.704911
      6          6           0        5.409032   -0.831845   -0.814656
      7          1           0        5.329158   -2.934460   -0.336172
      8          1           0        3.167589   -2.757821    0.881141
      9          1           0        2.027811   -0.535372    1.085375
     10          1           0        5.202944    1.310595   -1.135480
     11          1           0        6.353080   -0.905832   -1.346957
     12          7           0        2.892583    1.788709    0.106164
     13          8           0        3.441085    2.759220   -0.411418
     14          8           0        1.826886    1.820754    0.717638
     15          6           0       -1.529782   -1.434303    0.642675
     16          6           0       -2.542061   -2.130274   -0.026232
     17          6           0       -3.737705   -1.490793   -0.366888
     18          6           0       -3.888116   -0.148576   -0.021748
     19          6           0       -2.898140    0.571919    0.644678
     20          6           0       -1.710734   -0.087802    0.975409
     21          1           0       -0.604177   -1.938929    0.903449
     22          1           0       -2.404294   -3.176046   -0.285899
     23          1           0       -4.537774   -2.005694   -0.884754
     24          1           0       -3.064588    1.613750    0.890244
     25          1           0       -0.926304    0.455203    1.494889
     26          7           0       -5.149531    0.539126   -0.377131
     27          8           0       -5.257462    1.722167   -0.061848
     28          8           0       -6.006411   -0.117914   -0.964235
 ---------------------------------------------------------------------

 SCF Done:  E(RHF) =  -868.337989185     A.U. after   16 cycles
 E2 =    -0.2599718934D+01 EUMP2 =    -0.87093770811851D+03

 The electronic state is 1-A.
 Alpha  occ. eigenvalues --  -20.61658 -20.61613 -20.60476 -20.60461 -15.86689
 Alpha  occ. eigenvalues --  -15.85520 -11.32024 -11.30895 -11.28693 -11.28522
 Alpha  occ. eigenvalues --  -11.28281 -11.27641 -11.27522 -11.27481 -11.27355
 Alpha  occ. eigenvalues --  -11.27309 -11.26584 -11.26359  -1.60694  -1.59545
 Alpha  occ. eigenvalues --   -1.40257  -1.39098  -1.20182  -1.19062  -1.09570
 Alpha  occ. eigenvalues --   -1.08489  -1.05596  -1.04438  -0.96420  -0.95323
 Alpha  occ. eigenvalues --   -0.86989  -0.85858  -0.83269  -0.82127  -0.78333
 Alpha  occ. eigenvalues --   -0.77146  -0.72917  -0.72004  -0.71742  -0.71298
 Alpha  occ. eigenvalues --   -0.70866  -0.70259  -0.65845  -0.65603  -0.64722
 Alpha  occ. eigenvalues --   -0.64429  -0.62960  -0.61759  -0.56068  -0.55070
 Alpha  occ. eigenvalues --   -0.53899  -0.53693  -0.52797  -0.52519  -0.49675
 Alpha  occ. eigenvalues --   -0.49636  -0.48501  -0.48492  -0.45665  -0.44500
 Alpha  occ. eigenvalues --   -0.38131  -0.37203  -0.37087  -0.36018
 Alpha virt. eigenvalues --    0.04223   0.05345   0.10462   0.11601   0.15725
 Alpha virt. eigenvalues --    0.16827   0.18495   0.22013   0.25120   0.26571
 Alpha virt. eigenvalues --    0.27868   0.29393   0.30480   0.31462   0.31709

 Mulliken charges:
               1
     1  C   -0.169950
     2  C   -0.218438
     3  C   -0.170910
     4  C    0.159972
     5  C   -0.169544
     6  C   -0.217976
     7  H    0.228109
     8  H    0.220966
     9  H    0.267106
    10  H    0.278304
    11  H    0.226683
    12  N    0.491451
    13  O   -0.454274
    14  O   -0.470073
    15  C   -0.172320
    16  C   -0.217773
    17  C   -0.172239
    18  C    0.159020
    19  C   -0.171228
    20  C   -0.220601
    21  H    0.212564
    22  H    0.219859
    23  H    0.274292
    24  H    0.279544
    25  H    0.240173
    26  N    0.487901
    27  O   -0.458625
    28  O   -0.461992
 Sum of Mulliken charges =  -0.00000

 Dipole moment (field-independent basis, Debye):
    X=              7.1277    Y=             -6.8079    Z=              0.7369  Tot=              9.8840
 Quadrupole moment (field-independent basis, Debye-Ang):
   XX=           -118.6299   YY=           -104.7220   ZZ=           -104.0292
   XY=             -3.5689   XZ=             -8.5202   YZ=              0.5680

 Normal termination of Gaussian 16 at Fri May  7 11:01:21 2021.
