 Gaussian 16, Revision A.03,
 Gaussian 16:  EM64L-G16RevA.03 25-Dec-2016

 -------------
 #p 6-31g* mp2
 -------------

 ------------------------------------------------------
 Input file generated by CHIRIPA (05-May-2021 14:55:22)
 ------------------------------------------------------
 Symbolic Z-matrix:
 Charge =  0 Multiplicity = 1

                         Standard orientation:
 ---------------------------------------------------------------------
 Center     Atomic      Atomic             Coordinates (Angstroms)
 Number     Number       Type             X           Y           Z
 ---------------------------------------------------------------------
      1          6           0       -1.007807   -0.561634    1.129766
      2          6           0       -1.690041    0.639062    1.352044
      3          6           0       -2.975983    0.830673    0.838054
      4          6           0       -3.552260   -0.204161    0.102993
      5          6           0       -2.898150   -1.411853   -0.135565
      6          6           0       -1.612972   -1.581461    0.387979
      7          1           0       -0.009153   -0.701936    1.532757
      8          1           0       -1.222529    1.432808    1.927756
      9          1           0       -3.526750    1.750144    0.995048
     10          1           0       -3.390177   -2.184821   -0.713362
     11          1           0       -1.085509   -2.514992    0.213774
     12          7           0       -4.913225   -0.012957   -0.446203
     13          8           0       -5.398985   -0.940079   -1.090500
     14          8           0       -5.468418    1.060409   -0.221965
     15          6           0        4.721167   -0.303678   -0.183491
     16          6           0        6.197998    0.070600   -0.053604
     17          6           0        7.108454   -1.151115    0.073969
     18          1           0        4.421351   -0.896401    0.691572
     19          1           0        4.590352   -0.952773   -1.060393
     20          1           0        6.325773    0.719922    0.821994
     21          1           0        6.494284    0.662663   -0.928985
     22          1           0        7.010442   -1.797948   -0.803871
     23          1           0        6.840973   -1.740363    0.957057
     24          1           0        8.159668   -0.860586    0.165635
     25          6           0        3.798401    0.907002   -0.311887
     26          6           0        2.321570    0.532724   -0.441775
     27          6           0        1.411113    1.754439   -0.569347
     28          1           0        3.929216    1.556097    0.565015
     29          1           0        4.098217    1.499724   -1.186951
     30          1           0        2.025285   -0.059339    0.433607
     31          1           0        2.193795   -0.116599   -1.317372
     32          1           0        1.678594    2.343686   -1.452434
     33          1           0        1.509127    2.401271    0.308493
     34          1           0        0.359901    1.463910   -0.661013
 ---------------------------------------------------------------------

 SCF Done:  E(RHF) =  -669.534522642     A.U. after   15 cycles
 E2 =    -0.2092866818D+01 EUMP2 =    -0.67162738945982D+03

 The electronic state is 1-A.
 Alpha  occ. eigenvalues --  -20.60769 -20.60764 -15.85824 -11.31198 -11.27771
 Alpha  occ. eigenvalues --  -11.27765 -11.27481 -11.26777 -11.26764 -11.22494
 Alpha  occ. eigenvalues --  -11.22144 -11.22095 -11.22017 -11.21696 -11.21546
 Alpha  occ. eigenvalues --   -1.59845  -1.39398  -1.19381  -1.09125  -1.08767
 Alpha  occ. eigenvalues --   -1.04783  -1.04191  -0.96618  -0.95596  -0.87631
 Alpha  occ. eigenvalues --   -0.86170  -0.82436  -0.80276  -0.78934  -0.77475
 Alpha  occ. eigenvalues --   -0.72041  -0.71169  -0.70507  -0.65761  -0.65026
 Alpha  occ. eigenvalues --   -0.64777  -0.62128  -0.61598  -0.60011  -0.58259
 Alpha  occ. eigenvalues --   -0.55922  -0.55265  -0.53563  -0.53151  -0.52860
 Alpha  occ. eigenvalues --   -0.52677  -0.50560  -0.48806  -0.48795  -0.48564
 Alpha  occ. eigenvalues --   -0.47317  -0.46466  -0.46387  -0.44802  -0.44436
 Alpha  occ. eigenvalues --   -0.37296  -0.36370
 Alpha virt. eigenvalues --    0.05036   0.11226   0.16460   0.20043   0.22567
 Alpha virt. eigenvalues --    0.24075   0.25321   0.26103   0.26975   0.27959
 Alpha virt. eigenvalues --    0.28603   0.30280   0.31076   0.31421   0.32055

 Mulliken charges:
               1
     1  C   -0.169083
     2  C   -0.219363
     3  C   -0.171816
     4  C    0.158438
     5  C   -0.171016
     6  C   -0.219919
     7  H    0.229285
     8  H    0.224997
     9  H    0.275862
    10  H    0.275685
    11  H    0.223926
    12  N    0.488089
    13  O   -0.460445
    14  O   -0.460329
    15  C   -0.298297
    16  C   -0.300049
    17  C   -0.476017
    18  H    0.146482
    19  H    0.150507
    20  H    0.152325
    21  H    0.153666
    22  H    0.155889
    23  H    0.154692
    24  H    0.162049
    25  C   -0.297937
    26  C   -0.299906
    27  C   -0.483714
    28  H    0.149341
    29  H    0.153187
    30  H    0.138741
    31  H    0.155156
    32  H    0.159448
    33  H    0.149626
    34  H    0.170498
 Sum of Mulliken charges =  -0.00000

 Dipole moment (field-independent basis, Debye):
    X=              4.8656    Y=             -0.6557    Z=              1.8654  Tot=              5.2520
 Quadrupole moment (field-independent basis, Debye-Ang):
   XX=           -129.7582   YY=            -91.0076   ZZ=            -93.1419
   XY=              1.8876   XZ=             -6.9087   YZ=              1.7136

 Normal termination of Gaussian 16 at Thu May  6 01:27:40 2021.
