 Gaussian 16, Revision A.03,
 Gaussian 16:  EM64L-G16RevA.03 25-Dec-2016

 -------------
 #p 6-31g* mp2
 -------------

 ------------------------------------------------------
 Input file generated by CHIRIPA (05-May-2021 14:53:11)
 ------------------------------------------------------
 Symbolic Z-matrix:
 Charge =  0 Multiplicity = 1

                         Standard orientation:
 ---------------------------------------------------------------------
 Center     Atomic      Atomic             Coordinates (Angstroms)
 Number     Number       Type             X           Y           Z
 ---------------------------------------------------------------------
      1          6           0       -5.604676    0.335738   -0.227112
      2          6           0       -6.736497    0.294571    0.800152
      3          6           0       -8.057408    0.829412    0.246138
      4          1           0       -5.467679    1.370087   -0.571059
      5          1           0       -5.897748   -0.250666   -1.108948
      6          1           0       -6.440812    0.879735    1.680363
      7          1           0       -6.870686   -0.739770    1.141836
      8          1           0       -8.378801    0.240670   -0.619131
      9          1           0       -7.946485    1.869376   -0.077544
     10          1           0       -8.852695    0.790807    0.997063
     11          6           0       -4.277726   -0.195707    0.311869
     12          6           0       -3.145905   -0.154540   -0.715396
     13          6           0       -1.824994   -0.689381   -0.161382
     14          1           0       -3.984654    0.390697    1.193705
     15          1           0       -4.414722   -1.230055    0.655815
     16          1           0       -3.011716    0.879801   -1.057079
     17          1           0       -3.441589   -0.739704   -1.595606
     18          1           0       -1.935917   -1.729345    0.162300
     19          1           0       -1.503600   -0.100638    0.703887
     20          1           0       -1.029706   -0.650776   -0.912306
     21          6           0        5.696044    1.601385    0.470279
     22          6           0        5.624622    0.398300    1.180211
     23          6           0        4.611810   -0.526682    0.909710
     24          6           0        3.682842   -0.214804   -0.081774
     25          6           0        3.727370    0.975304   -0.806310
     26          6           0        4.748860    1.885547   -0.518972
     27          1           0        6.486191    2.314208    0.686950
     28          1           0        6.358855    0.174955    1.949018
     29          1           0        4.533019   -1.465621    1.444128
     30          1           0        2.981090    1.169914   -1.566974
     31          1           0        4.801864    2.819088   -1.071906
     32          7           0        2.606029   -1.186239   -0.377053
     33          8           0        1.799731   -0.887811   -1.255381
     34          8           0        2.588712   -2.227683    0.275427
 ---------------------------------------------------------------------

 SCF Done:  E(RHF) =  -669.536082077     A.U. after   15 cycles
 E2 =    -0.2090735829D+01 EUMP2 =    -0.67162681790587D+03

 The electronic state is 1-A.
 Alpha  occ. eigenvalues --  -20.60897 -20.60889 -15.85928 -11.31263 -11.27828
 Alpha  occ. eigenvalues --  -11.27824 -11.27569 -11.26839 -11.26829 -11.21130
 Alpha  occ. eigenvalues --  -11.20796 -11.20688 -11.20640 -11.20580 -11.19595
 Alpha  occ. eigenvalues --   -1.59950  -1.39508  -1.19432  -1.08834  -1.07727
 Alpha  occ. eigenvalues --   -1.04831  -1.02742  -0.95676  -0.95160  -0.86233
 Alpha  occ. eigenvalues --   -0.86168  -0.82509  -0.78831  -0.77560  -0.77521
 Alpha  occ. eigenvalues --   -0.72155  -0.71263  -0.70542  -0.65089  -0.64835
 Alpha  occ. eigenvalues --   -0.64372  -0.62179  -0.60156  -0.58566  -0.56757
 Alpha  occ. eigenvalues --   -0.55336  -0.54471  -0.53163  -0.52924  -0.51801
 Alpha  occ. eigenvalues --   -0.51590  -0.49135  -0.48905  -0.48889  -0.47127
 Alpha  occ. eigenvalues --   -0.45903  -0.45056  -0.44995  -0.44914  -0.42927
 Alpha  occ. eigenvalues --   -0.37411  -0.36433
 Alpha virt. eigenvalues --    0.04951   0.11222   0.16428   0.21350   0.23512
 Alpha virt. eigenvalues --    0.25165   0.27270   0.27300   0.28133   0.28199
 Alpha virt. eigenvalues --    0.28931   0.30899   0.32147   0.32376   0.32436

 Mulliken charges:
               1
     1  C   -0.297455
     2  C   -0.299035
     3  C   -0.475272
     4  H    0.147694
     5  H    0.148990
     6  H    0.150697
     7  H    0.151762
     8  H    0.154867
     9  H    0.154093
    10  H    0.158766
    11  C   -0.297157
    12  C   -0.299877
    13  C   -0.482597
    14  H    0.147002
    15  H    0.149413
    16  H    0.146985
    17  H    0.150762
    18  H    0.155419
    19  H    0.146404
    20  H    0.184588
    21  C   -0.170661
    22  C   -0.218584
    23  C   -0.170694
    24  C    0.158221
    25  C   -0.170684
    26  C   -0.218566
    27  H    0.225860
    28  H    0.223714
    29  H    0.275866
    30  H    0.275606
    31  H    0.223689
    32  N    0.489819
    33  O   -0.460959
    34  O   -0.458674
 Sum of Mulliken charges =  -0.00000

 Dipole moment (field-independent basis, Debye):
    X=              4.1080    Y=              3.3478    Z=              0.9876  Tot=              5.3906
 Quadrupole moment (field-independent basis, Debye-Ang):
   XX=            -68.8155   YY=            -93.9691   ZZ=            -92.9315
   XY=             11.5702   XZ=              5.0817   YZ=             -2.6109

 Normal termination of Gaussian 16 at Thu May  6 07:13:14 2021.
