 Gaussian 16, Revision A.03,
 Gaussian 16:  EM64L-G16RevA.03 25-Dec-2016

 -------------
 #p 6-31g* mp2
 -------------

 ------------------------------------------------------
 Input file generated by CHIRIPA (05-May-2021 14:57:26)
 ------------------------------------------------------
 Symbolic Z-matrix:
 Charge =  0 Multiplicity = 1

                         Standard orientation:
 ---------------------------------------------------------------------
 Center     Atomic      Atomic             Coordinates (Angstroms)
 Number     Number       Type             X           Y           Z
 ---------------------------------------------------------------------
      1          6           0        2.287549    2.299931    1.128481
      2          6           0        3.298111    1.536970    1.722768
      3          6           0        3.686669    0.315372    1.164854
      4          6           0        3.040521   -0.114943    0.007006
      5          6           0        2.030269    0.622470   -0.608546
      6          6           0        1.657963    1.841055   -0.033231
      7          1           0        1.992021    3.247728    1.568641
      8          1           0        3.788801    1.890854    2.625006
      9          1           0        4.466008   -0.295356    1.604240
     10          1           0        1.559520    0.243509   -1.507547
     11          1           0        0.872833    2.431477   -0.496931
     12          7           0        3.443266   -1.406599   -0.592844
     13          8           0        2.858478   -1.763594   -1.613243
     14          8           0        4.336101   -2.037547   -0.031249
     15          6           0       -2.301783    1.966310   -1.391457
     16          6           0       -1.640673    0.754563   -1.617567
     17          6           0       -2.004819   -0.395538   -0.911017
     18          6           0       -3.039144   -0.297501    0.018418
     19          6           0       -3.716915    0.895215    0.266098
     20          6           0       -3.335971    2.032651   -0.452002
     21          1           0       -2.012382    2.854816   -1.944808
     22          1           0       -0.837145    0.700088   -2.346553
     23          1           0       -1.509853   -1.346493   -1.066297
     24          1           0       -4.514073    0.918391    0.999188
     25          1           0       -3.851164    2.972360   -0.274331
     26          7           0       -3.433541   -1.508358    0.772526
     27          8           0       -4.348025   -1.395709    1.585955
     28          8           0       -2.820717   -2.547148    0.535888
 ---------------------------------------------------------------------

 SCF Done:  E(RHF) =  -868.336409848     A.U. after   16 cycles
 E2 =    -0.2601637257D+01 EUMP2 =    -0.87093804710447D+03

 The electronic state is 1-A.
 Alpha  occ. eigenvalues --  -20.61091 -20.61065 -20.61047 -20.61027 -15.86135
 Alpha  occ. eigenvalues --  -15.86101 -11.31674 -11.31556 -11.28278 -11.28249
 Alpha  occ. eigenvalues --  -11.28206 -11.28148 -11.28062 -11.27841 -11.27421
 Alpha  occ. eigenvalues --  -11.27352 -11.27172 -11.27099  -1.60149  -1.60112
 Alpha  occ. eigenvalues --   -1.39706  -1.39658  -1.19896  -1.19716  -1.09274
 Alpha  occ. eigenvalues --   -1.09096  -1.05353  -1.05115  -0.96055  -0.95934
 Alpha  occ. eigenvalues --   -0.86731  -0.86537  -0.82899  -0.82756  -0.77952
 Alpha  occ. eigenvalues --   -0.77749  -0.72354  -0.72315  -0.71468  -0.71439
 Alpha  occ. eigenvalues --   -0.71019  -0.70848  -0.65567  -0.65463  -0.65294
 Alpha  occ. eigenvalues --   -0.65143  -0.62819  -0.62333  -0.55869  -0.55633
 Alpha  occ. eigenvalues --   -0.53747  -0.53477  -0.53351  -0.53166  -0.49120
 Alpha  occ. eigenvalues --   -0.49104  -0.49092  -0.49053  -0.45100  -0.45017
 Alpha  occ. eigenvalues --   -0.37954  -0.37670  -0.37171  -0.36438
 Alpha virt. eigenvalues --    0.04515   0.04839   0.10541   0.10969   0.15903
 Alpha virt. eigenvalues --    0.16312   0.18911   0.22080   0.24763   0.26334
 Alpha virt. eigenvalues --    0.28124   0.29280   0.30030   0.31223   0.32409

 Mulliken charges:
               1
     1  C   -0.171416
     2  C   -0.217589
     3  C   -0.169914
     4  C    0.160728
     5  C   -0.173209
     6  C   -0.213516
     7  H    0.225605
     8  H    0.225220
     9  H    0.277492
    10  H    0.266307
    11  H    0.217681
    12  N    0.488668
    13  O   -0.463419
    14  O   -0.456878
    15  C   -0.176839
    16  C   -0.224102
    17  C   -0.168979
    18  C    0.159090
    19  C   -0.169911
    20  C   -0.218786
    21  H    0.223855
    22  H    0.222049
    23  H    0.283985
    24  H    0.277437
    25  H    0.224287
    26  N    0.487703
    27  O   -0.460035
    28  O   -0.455512
 Sum of Mulliken charges =  -0.00000

 Dipole moment (field-independent basis, Debye):
    X=             -0.0899    Y=              8.6341    Z=             -0.3412  Tot=              8.6414
 Quadrupole moment (field-independent basis, Debye-Ang):
   XX=           -117.0773   YY=           -108.0397   ZZ=           -102.1395
   XY=             -1.8773   XZ=             15.7808   YZ=              1.8401

 Normal termination of Gaussian 16 at Thu May  6 09:55:27 2021.
