 Gaussian 16, Revision A.03,
 Gaussian 16:  EM64L-G16RevA.03 25-Dec-2016

 -------------
 #p 6-31g* mp2
 -------------

 ------------------------------------------------------
 Input file generated by CHIRIPA (05-May-2021 14:57:23)
 ------------------------------------------------------
 Symbolic Z-matrix:
 Charge =  0 Multiplicity = 1

                         Standard orientation:
 ---------------------------------------------------------------------
 Center     Atomic      Atomic             Coordinates (Angstroms)
 Number     Number       Type             X           Y           Z
 ---------------------------------------------------------------------
      1          6           0        2.601387    1.991902    0.734117
      2          6           0        3.915024    2.347421    0.410878
      3          6           0        4.840104    1.372531    0.025696
      4          6           0        4.415593    0.045715   -0.025686
      5          6           0        3.113812   -0.340011    0.290339
      6          6           0        2.205671    0.651683    0.672923
      7          1           0        1.889342    2.755747    1.032326
      8          1           0        4.225140    3.387468    0.457514
      9          1           0        5.863279    1.619956   -0.229862
     10          1           0        2.834153   -1.385042    0.234507
     11          1           0        1.186133    0.372668    0.923398
     12          7           0        5.385967   -0.995253   -0.432086
     13          8           0        4.987084   -2.157205   -0.469467
     14          8           0        6.527055   -0.629500   -0.705546
     15          6           0       -6.392528    1.043552   -0.499594
     16          6           0       -5.155789    1.655598   -0.728493
     17          6           0       -3.965403    0.966522   -0.478083
     18          6           0       -4.049080   -0.339171    0.003014
     19          6           0       -5.265946   -0.976240    0.241071
     20          6           0       -6.443569   -0.268101   -0.016395
     21          1           0       -7.312292    1.586246   -0.696860
     22          1           0       -5.113113    2.674139   -1.103723
     23          1           0       -2.994435    1.416284   -0.646465
     24          1           0       -5.276497   -1.992683    0.615437
     25          1           0       -7.402620   -0.745947    0.162297
     26          7           0       -2.795626   -1.078755    0.271847
     27          8           0       -2.896352   -2.228135    0.695424
     28          8           0       -1.736179   -0.495058    0.053888
 ---------------------------------------------------------------------

 SCF Done:  E(RHF) =  -868.339654864     A.U. after   16 cycles
 E2 =    -0.2598302144D+01 EUMP2 =    -0.87093795700744D+03

 The electronic state is 1-A.
 Alpha  occ. eigenvalues --  -20.61638 -20.61582 -20.60058 -20.60042 -15.86649
 Alpha  occ. eigenvalues --  -15.85097 -11.31816 -11.30348 -11.28386 -11.28336
 Alpha  occ. eigenvalues --  -11.28055 -11.27338 -11.27307 -11.26945 -11.26775
 Alpha  occ. eigenvalues --  -11.26625 -11.25988 -11.25680  -1.60672  -1.59130
 Alpha  occ. eigenvalues --   -1.40234  -1.38686  -1.19967  -1.18495  -1.09396
 Alpha  occ. eigenvalues --   -1.07925  -1.05342  -1.03851  -0.96266  -0.94782
 Alpha  occ. eigenvalues --   -0.86748  -0.85263  -0.83109  -0.81592  -0.78180
 Alpha  occ. eigenvalues --   -0.76647  -0.72883  -0.71975  -0.71320  -0.71072
 Alpha  occ. eigenvalues --   -0.70451  -0.69633  -0.65625  -0.65341  -0.64139
 Alpha  occ. eigenvalues --   -0.63817  -0.62694  -0.61172  -0.55842  -0.54408
 Alpha  occ. eigenvalues --   -0.53678  -0.53431  -0.52229  -0.51909  -0.49646
 Alpha  occ. eigenvalues --   -0.49600  -0.48081  -0.48065  -0.45679  -0.44116
 Alpha  occ. eigenvalues --   -0.37930  -0.36936  -0.36509  -0.35451
 Alpha virt. eigenvalues --    0.04338   0.05838   0.10722   0.12187   0.15864
 Alpha virt. eigenvalues --    0.17362   0.20860   0.22369   0.26797   0.27601
 Alpha virt. eigenvalues --    0.28500   0.29109   0.30462   0.31723   0.32133

 Mulliken charges:
               1
     1  C   -0.173163
     2  C   -0.218662
     3  C   -0.173201
     4  C    0.158103
     5  C   -0.172889
     6  C   -0.225026
     7  H    0.221344
     8  H    0.219064
     9  H    0.272401
    10  H    0.279695
    11  H    0.245650
    12  N    0.487962
    13  O   -0.459807
    14  O   -0.463732
    15  C   -0.169996
    16  C   -0.218333
    17  C   -0.170715
    18  C    0.158019
    19  C   -0.170168
    20  C   -0.218418
    21  H    0.227646
    22  H    0.224375
    23  H    0.272679
    24  H    0.277152
    25  H    0.225665
    26  N    0.491894
    27  O   -0.455245
    28  O   -0.472294
 Sum of Mulliken charges =  -0.00000

 Dipole moment (field-independent basis, Debye):
    X=             -8.3753    Y=              6.1149    Z=              0.5124  Tot=             10.3827
 Quadrupole moment (field-independent basis, Debye-Ang):
   XX=            -96.1472   YY=           -101.3263   ZZ=           -106.0820
   XY=             11.8269   XZ=              9.0407   YZ=             -1.6454

 Normal termination of Gaussian 16 at Thu May  6 12:57:14 2021.
