 Gaussian 16, Revision A.03,
 Gaussian 16:  EM64L-G16RevA.03 25-Dec-2016

 -------------
 #p 6-31g* mp2
 -------------

 ------------------------------------------------------
 Input file generated by CHIRIPA (05-May-2021 14:57:21)
 ------------------------------------------------------
 Symbolic Z-matrix:
 Charge =  0 Multiplicity = 1

                         Standard orientation:
 ---------------------------------------------------------------------
 Center     Atomic      Atomic             Coordinates (Angstroms)
 Number     Number       Type             X           Y           Z
 ---------------------------------------------------------------------
      1          6           0       -3.973965    1.647762    0.879885
      2          6           0       -2.649583    1.433372    1.275574
      3          6           0       -1.903223    0.389077    0.721551
      4          6           0       -2.515465   -0.425246   -0.229935
      5          6           0       -3.832974   -0.237153   -0.644761
      6          6           0       -4.560400    0.813286   -0.077332
      7          1           0       -4.546402    2.461383    1.315470
      8          1           0       -2.191564    2.079857    2.018757
      9          1           0       -0.876161    0.200595    1.009711
     10          1           0       -4.262299   -0.898253   -1.387760
     11          1           0       -5.588747    0.977425   -0.386534
     12          7           0       -1.735349   -1.534048   -0.823551
     13          8           0       -2.297743   -2.237409   -1.659991
     14          8           0       -0.576272   -1.678769   -0.441146
     15          6           0        2.769292    2.218497   -1.431767
     16          6           0        3.428915    1.027868   -1.753981
     17          6           0        3.366395   -0.073367   -0.894957
     18          6           0        2.631928    0.051471    0.283289
     19          6           0        1.963886    1.224187    0.632210
     20          6           0        2.040167    2.312690   -0.241798
     21          1           0        2.823205    3.069017   -2.104897
     22          1           0        3.995905    0.951850   -2.677447
     23          1           0        3.867484   -1.007055   -1.119795
     24          1           0        1.406500    1.269763    1.559928
     25          1           0        1.526893    3.236096    0.011017
     26          7           0        2.558456   -1.107618    1.200631
     27          8           0        1.904791   -0.972138    2.232621
     28          8           0        3.155925   -2.129644    0.870282
 ---------------------------------------------------------------------

 SCF Done:  E(RHF) =  -868.337395653     A.U. after   16 cycles
 E2 =    -0.2602258068D+01 EUMP2 =    -0.87093965372185D+03

 The electronic state is 1-A.
 Alpha  occ. eigenvalues --  -20.60661 -20.60634 -20.60334 -20.60275 -15.85706
 Alpha  occ. eigenvalues --  -15.85353 -11.31127 -11.30902 -11.27732 -11.27686
 Alpha  occ. eigenvalues --  -11.27606 -11.27515 -11.27384 -11.27248 -11.26784
 Alpha  occ. eigenvalues --  -11.26756 -11.26650 -11.26499  -1.59714  -1.59328
 Alpha  occ. eigenvalues --   -1.39268  -1.38901  -1.19326  -1.19072  -1.08712
 Alpha  occ. eigenvalues --   -1.08426  -1.04756  -1.04535  -0.95535  -0.95249
 Alpha  occ. eigenvalues --   -0.86153  -0.85920  -0.82380  -0.82103  -0.77437
 Alpha  occ. eigenvalues --   -0.77107  -0.71981  -0.71597  -0.71033  -0.70530
 Alpha  occ. eigenvalues --   -0.70488  -0.70188  -0.64987  -0.64806  -0.64747
 Alpha  occ. eigenvalues --   -0.64543  -0.62214  -0.61792  -0.55268  -0.55022
 Alpha  occ. eigenvalues --   -0.53078  -0.52971  -0.52728  -0.52587  -0.48685
 Alpha  occ. eigenvalues --   -0.48674  -0.48358  -0.48323  -0.44659  -0.44259
 Alpha  occ. eigenvalues --   -0.37323  -0.37002  -0.36433  -0.36047
 Alpha virt. eigenvalues --    0.05137   0.05457   0.11184   0.11509   0.16555
 Alpha virt. eigenvalues --    0.16981   0.20404   0.22075   0.25749   0.27914
 Alpha virt. eigenvalues --    0.27964   0.29397   0.30753   0.31335   0.32167

 Mulliken charges:
               1
     1  C   -0.170578
     2  C   -0.222022
     3  C   -0.173756
     4  C    0.156864
     5  C   -0.170152
     6  C   -0.219301
     7  H    0.224724
     8  H    0.219621
     9  H    0.283946
    10  H    0.275656
    11  H    0.223070
    12  N    0.489222
    13  O   -0.460726
    14  O   -0.460211
    15  C   -0.171713
    16  C   -0.217042
    17  C   -0.166621
    18  C    0.175487
    19  C   -0.179503
    20  C   -0.217023
    21  H    0.223970
    22  H    0.223820
    23  H    0.278214
    24  H    0.263607
    25  H    0.218277
    26  N    0.495213
    27  O   -0.469099
    28  O   -0.453945
 Sum of Mulliken charges =  -0.00000

 Dipole moment (field-independent basis, Debye):
    X=             -2.3207    Y=              7.6574    Z=             -1.3024  Tot=              8.1066
 Quadrupole moment (field-independent basis, Debye-Ang):
   XX=            -85.1356   YY=           -107.3157   ZZ=           -105.3386
   XY=              1.0069   XZ=            -13.0498   YZ=              1.7977

 Normal termination of Gaussian 16 at Wed May  5 22:30:45 2021.
