 Gaussian 16, Revision A.03,
 Gaussian 16:  EM64L-G16RevA.03 25-Dec-2016

 -------------
 #p 6-31g* mp2
 -------------

 ------------------------------------------------------
 Input file generated by CHIRIPA (05-May-2021 14:51:14)
 ------------------------------------------------------
 Symbolic Z-matrix:
 Charge =  0 Multiplicity = 1

                         Standard orientation:
 ---------------------------------------------------------------------
 Center     Atomic      Atomic             Coordinates (Angstroms)
 Number     Number       Type             X           Y           Z
 ---------------------------------------------------------------------
      1          6           0       -3.844384    0.437023    0.028036
      2          6           0       -3.556140    1.929120    0.197000
      3          6           0       -4.804184    2.735085    0.558388
      4          1           0       -4.607258    0.303376   -0.751134
      5          1           0       -4.277186    0.046525    0.959481
      6          1           0       -3.122728    2.316386   -0.734018
      7          1           0       -2.793724    2.059218    0.975725
      8          1           0       -5.235626    2.376300    1.498458
      9          1           0       -5.566499    2.634929   -0.221000
     10          1           0       -4.575337    3.799056    0.674386
     11          6           0       -2.606514   -0.382000   -0.333358
     12          6           0       -2.894757   -1.874097   -0.502322
     13          6           0       -1.646714   -2.680062   -0.863709
     14          1           0       -2.173711    0.008498   -1.264802
     15          1           0       -1.843639   -0.248353    0.445813
     16          1           0       -3.657173   -2.004195   -1.281046
     17          1           0       -3.328169   -2.261363    0.428697
     18          1           0       -0.884398   -2.579906   -0.084322
     19          1           0       -1.215272   -2.321278   -1.803779
     20          1           0       -1.875560   -3.744033   -0.979707
     21          6           0        3.473934    0.481692   -0.359589
     22          6           0        4.189271    1.676811    0.271259
     23          6           0        4.680552    2.686744   -0.766272
     24          1           0        4.155269   -0.015586   -1.063464
     25          1           0        2.622304    0.843897   -0.951982
     26          1           0        5.038474    1.312357    0.863410
     27          1           0        3.506218    2.171188    0.973858
     28          1           0        3.841345    3.078232   -1.350283
     29          1           0        5.382308    2.214522   -1.461359
     30          1           0        5.188898    3.532899   -0.293548
     31          6           0        2.976964   -0.536715    0.664910
     32          6           0        2.261626   -1.731834    0.034062
     33          6           0        1.770345   -2.741767    1.071594
     34          1           0        3.828593   -0.898920    1.257302
     35          1           0        2.295629   -0.039437    1.368786
     36          1           0        2.944680   -2.226210   -0.668536
     37          1           0        1.412423   -1.367379   -0.558089
     38          1           0        1.068589   -2.269544    1.766680
     39          1           0        2.609553   -3.133255    1.655605
     40          1           0        1.262000   -3.587922    0.598869
 ---------------------------------------------------------------------

 SCF Done:  E(RHF) =  -470.732796378     A.U. after   11 cycles
 E2 =    -0.1583248346D+01 EUMP2 =    -0.47231604472379D+03

 The electronic state is 1-A.
 Alpha  occ. eigenvalues --  -11.21633 -11.21595 -11.21586 -11.21544 -11.21437
 Alpha  occ. eigenvalues --  -11.21382 -11.21377 -11.21322 -11.21094 -11.21062
 Alpha  occ. eigenvalues --  -11.21059 -11.20983  -1.08456  -1.08403  -1.03578
 Alpha  occ. eigenvalues --   -1.03476  -0.96057  -0.95905  -0.87066  -0.86929
 Alpha  occ. eigenvalues --   -0.79608  -0.79572  -0.78282  -0.78205  -0.65131
 Alpha  occ. eigenvalues --   -0.65004  -0.61114  -0.60791  -0.59380  -0.59331
 Alpha  occ. eigenvalues --   -0.57734  -0.57449  -0.55466  -0.55074  -0.52767
 Alpha  occ. eigenvalues --   -0.52635  -0.52445  -0.52264  -0.50047  -0.49762
 Alpha  occ. eigenvalues --   -0.47947  -0.47853  -0.46645  -0.46574  -0.45873
 Alpha  occ. eigenvalues --   -0.45749  -0.45719  -0.45608  -0.43814  -0.43743
 Alpha virt. eigenvalues --    0.21208   0.23196   0.23546   0.24990   0.26415
 Alpha virt. eigenvalues --    0.26431   0.27067   0.27597   0.27816   0.29117
 Alpha virt. eigenvalues --    0.30725   0.31348   0.31641   0.31805   0.32401

 Mulliken charges:
               1
     1  C   -0.298219
     2  C   -0.299642
     3  C   -0.475721
     4  H    0.149912
     5  H    0.149671
     6  H    0.151841
     7  H    0.151653
     8  H    0.155267
     9  H    0.155293
    10  H    0.160291
    11  C   -0.298544
    12  C   -0.299375
    13  C   -0.485095
    14  H    0.149198
    15  H    0.148830
    16  H    0.151709
    17  H    0.151788
    18  H    0.168309
    19  H    0.154745
    20  H    0.159481
    21  C   -0.298325
    22  C   -0.299610
    23  C   -0.475701
    24  H    0.149596
    25  H    0.149762
    26  H    0.151858
    27  H    0.151879
    28  H    0.155194
    29  H    0.155137
    30  H    0.160181
    31  C   -0.297846
    32  C   -0.303227
    33  C   -0.480289
    34  H    0.149336
    35  H    0.149072
    36  H    0.151969
    37  H    0.156408
    38  H    0.153383
    39  H    0.156578
    40  H    0.163251
 Sum of Mulliken charges =  -0.00000

 Dipole moment (field-independent basis, Debye):
    X=              0.0003    Y=             -0.0187    Z=             -0.0031  Tot=              0.0190
 Quadrupole moment (field-independent basis, Debye-Ang):
   XX=            -84.8462   YY=            -85.6677   ZZ=            -84.2947
   XY=             -0.2955   XZ=              0.5498   YZ=              0.1900

 Normal termination of Gaussian 16 at Wed May  5 18:25:49 2021.
