 Gaussian 16, Revision A.03,
 Gaussian 16:  EM64L-G16RevA.03 25-Dec-2016

 -------------
 #p 6-31g* mp2
 -------------

 ------------------------------------------------------
 Input file generated by CHIRIPA (05-May-2021 14:57:21)
 ------------------------------------------------------
 Symbolic Z-matrix:
 Charge =  0 Multiplicity = 1

                         Standard orientation:
 ---------------------------------------------------------------------
 Center     Atomic      Atomic             Coordinates (Angstroms)
 Number     Number       Type             X           Y           Z
 ---------------------------------------------------------------------
      1          6           0        3.748863    2.564352    0.530137
      2          6           0        4.960629    1.895843    0.327060
      3          6           0        4.975834    0.534893    0.007481
      4          6           0        3.755223   -0.129572   -0.101541
      5          6           0        2.531537    0.508626    0.094888
      6          6           0        2.540315    1.869835    0.413609
      7          1           0        3.746366    3.621672    0.778060
      8          1           0        5.900729    2.432672    0.416903
      9          1           0        5.899494   -0.007221   -0.154942
     10          1           0        1.610483   -0.053311   -0.001569
     11          1           0        1.597728    2.386431    0.570776
     12          7           0        3.758625   -1.570486   -0.439411
     13          8           0        2.669686   -2.133254   -0.529636
     14          8           0        4.850167   -2.109823   -0.607609
     15          6           0       -1.480610   -0.994734    0.684723
     16          6           0       -1.620342   -0.168112   -0.434961
     17          6           0       -2.875494    0.329019   -0.798286
     18          6           0       -3.974510   -0.022173   -0.015907
     19          6           0       -3.867586   -0.843653    1.105266
     20          6           0       -2.602700   -1.329276    1.449913
     21          1           0       -0.501798   -1.376447    0.959707
     22          1           0       -0.750665    0.093353   -1.031068
     23          1           0       -3.012164    0.970820   -1.660163
     24          1           0       -4.752990   -1.086868    1.680004
     25          1           0       -2.497170   -1.971047    2.319992
     26          7           0       -5.308434    0.498027   -0.390656
     27          8           0       -6.261078    0.173915    0.315077
     28          8           0       -5.376063    1.220019   -1.383022
 ---------------------------------------------------------------------

 SCF Done:  E(RHF) =  -868.337741364     A.U. after   16 cycles
 E2 =    -0.2600056374D+01 EUMP2 =    -0.87093779773842D+03

 The electronic state is 1-A.
 Alpha  occ. eigenvalues --  -20.61709 -20.61663 -20.60879 -20.60872 -15.86734
 Alpha  occ. eigenvalues --  -15.85934 -11.32076 -11.31320 -11.28738 -11.28551
 Alpha  occ. eigenvalues --  -11.28273 -11.27939 -11.27883 -11.27633 -11.27617
 Alpha  occ. eigenvalues --  -11.27554 -11.26978 -11.26861  -1.60753  -1.59954
 Alpha  occ. eigenvalues --   -1.40314  -1.39507  -1.20218  -1.19504  -1.09599
 Alpha  occ. eigenvalues --   -1.08891  -1.05626  -1.04918  -0.96456  -0.95717
 Alpha  occ. eigenvalues --   -0.87022  -0.86319  -0.83292  -0.82552  -0.78377
 Alpha  occ. eigenvalues --   -0.77601  -0.72954  -0.72153  -0.72071  -0.71350
 Alpha  occ. eigenvalues --   -0.71278  -0.70568  -0.65870  -0.65651  -0.65154
 Alpha  occ. eigenvalues --   -0.64934  -0.62994  -0.62232  -0.56079  -0.55382
 Alpha  occ. eigenvalues --   -0.53934  -0.53715  -0.53234  -0.52998  -0.49727
 Alpha  occ. eigenvalues --   -0.49688  -0.48912  -0.48904  -0.45724  -0.44908
 Alpha  occ. eigenvalues --   -0.38155  -0.37474  -0.37220  -0.36527
 Alpha virt. eigenvalues --    0.04154   0.04947   0.10404   0.11070   0.15695
 Alpha virt. eigenvalues --    0.16430   0.18604   0.21998   0.25076   0.26959
 Alpha virt. eigenvalues --    0.27497   0.29105   0.30478   0.30918   0.31574

 Mulliken charges:
               1
     1  C   -0.170080
     2  C   -0.217855
     3  C   -0.169410
     4  C    0.160332
     5  C   -0.179900
     6  C   -0.220602
     7  H    0.229333
     8  H    0.226932
     9  H    0.278031
    10  H    0.272064
    11  H    0.226093
    12  N    0.487961
    13  O   -0.467523
    14  O   -0.454923
    15  C   -0.175180
    16  C   -0.224394
    17  C   -0.170581
    18  C    0.158171
    19  C   -0.170318
    20  C   -0.218624
    21  H    0.234690
    22  H    0.220117
    23  H    0.275544
    24  H    0.276420
    25  H    0.226010
    26  N    0.488053
    27  O   -0.459693
    28  O   -0.460670
 Sum of Mulliken charges =  -0.00000

 Dipole moment (field-independent basis, Debye):
    X=              4.9123    Y=              3.2840    Z=              2.5841  Tot=              6.4493
 Quadrupole moment (field-independent basis, Debye-Ang):
   XX=           -135.2554   YY=           -105.6524   ZZ=           -103.1814
   XY=             28.2039   XZ=             -2.9174   YZ=             -2.8365

 Normal termination of Gaussian 16 at Thu May  6 09:38:22 2021.
