 Gaussian 16, Revision A.03,
 Gaussian 16:  EM64L-G16RevA.03 25-Dec-2016

 -------------
 #p 6-31g* mp2
 -------------

 ------------------------------------------------------
 Input file generated by CHIRIPA (05-May-2021 14:57:26)
 ------------------------------------------------------
 Symbolic Z-matrix:
 Charge =  0 Multiplicity = 1

                         Standard orientation:
 ---------------------------------------------------------------------
 Center     Atomic      Atomic             Coordinates (Angstroms)
 Number     Number       Type             X           Y           Z
 ---------------------------------------------------------------------
      1          6           0       -2.713774   -2.240895    1.086517
      2          6           0       -1.711568   -1.268923    1.000644
      3          6           0       -1.993399   -0.002591    0.479566
      4          6           0       -3.294126    0.258841    0.051720
      5          6           0       -4.314220   -0.688491    0.124256
      6          6           0       -4.009617   -1.948093    0.648820
      7          1           0       -2.485996   -3.221998    1.492657
      8          1           0       -0.704306   -1.493515    1.339803
      9          1           0       -1.236558    0.768467    0.401598
     10          1           0       -5.308907   -0.435082   -0.221866
     11          1           0       -4.789939   -2.700990    0.714306
     12          7           0       -3.604542    1.595887   -0.501767
     13          8           0       -4.758421    1.801282   -0.871919
     14          8           0       -2.688089    2.413152   -0.554958
     15          6           0        4.139955    2.108706    0.832214
     16          6           0        2.787948    2.007160    0.488288
     17          6           0        2.280008    0.822334   -0.052758
     18          6           0        3.156248   -0.246061   -0.237216
     19          6           0        4.508166   -0.175794    0.095456
     20          6           0        4.994244    1.018826    0.635048
     21          1           0        4.526044    3.032912    1.251947
     22          1           0        2.122176    2.851960    0.640301
     23          1           0        1.237634    0.716451   -0.327830
     24          1           0        5.147387   -1.034966   -0.067758
     25          1           0        6.044681    1.094829    0.901222
     26          7           0        2.630087   -1.505568   -0.809227
     27          8           0        3.422701   -2.432443   -0.961874
     28          8           0        1.435032   -1.542044   -1.094092
 ---------------------------------------------------------------------

 SCF Done:  E(RHF) =  -868.338697505     A.U. after   16 cycles
 E2 =    -0.2599952088D+01 EUMP2 =    -0.87093864959297D+03

 The electronic state is 1-A.
 Alpha  occ. eigenvalues --  -20.61380 -20.61352 -20.60688 -20.60660 -15.86397
 Alpha  occ. eigenvalues --  -15.85722 -11.31644 -11.30906 -11.28214 -11.28155
 Alpha  occ. eigenvalues --  -11.27837 -11.27493 -11.27403 -11.27143 -11.27114
 Alpha  occ. eigenvalues --  -11.27049 -11.26403 -11.26330  -1.60439  -1.59748
 Alpha  occ. eigenvalues --   -1.39996  -1.39312  -1.19783  -1.19023  -1.09192
 Alpha  occ. eigenvalues --   -1.08440  -1.05161  -1.04401  -0.96055  -0.95325
 Alpha  occ. eigenvalues --   -0.86563  -0.85807  -0.82883  -0.82168  -0.77977
 Alpha  occ. eigenvalues --   -0.77248  -0.72612  -0.71952  -0.71761  -0.71060
 Alpha  occ. eigenvalues --   -0.70894  -0.70140  -0.65429  -0.65151  -0.64677
 Alpha  occ. eigenvalues --   -0.64395  -0.62559  -0.61731  -0.55641  -0.54885
 Alpha  occ. eigenvalues --   -0.53498  -0.53245  -0.52709  -0.52488  -0.49386
 Alpha  occ. eigenvalues --   -0.49360  -0.48721  -0.48677  -0.45419  -0.44759
 Alpha  occ. eigenvalues --   -0.37739  -0.36954  -0.36758  -0.35956
 Alpha virt. eigenvalues --    0.04520   0.05265   0.10857   0.11670   0.16061
 Alpha virt. eigenvalues --    0.16837   0.19597   0.22193   0.25018   0.27537
 Alpha virt. eigenvalues --    0.28186   0.29531   0.30990   0.31490   0.31933

 Mulliken charges:
               1
     1  C   -0.170677
     2  C   -0.207009
     3  C   -0.172360
     4  C    0.160317
     5  C   -0.171688
     6  C   -0.217751
     7  H    0.227345
     8  H    0.227203
     9  H    0.263964
    10  H    0.274269
    11  H    0.222931
    12  N    0.488538
    13  O   -0.459562
    14  O   -0.466793
    15  C   -0.170475
    16  C   -0.219801
    17  C   -0.180597
    18  C    0.158172
    19  C   -0.170741
    20  C   -0.218188
    21  H    0.228439
    22  H    0.230250
    23  H    0.277923
    24  H    0.276126
    25  H    0.225149
    26  N    0.486940
    27  O   -0.457747
    28  O   -0.464174
 Sum of Mulliken charges =  -0.00000

 Dipole moment (field-independent basis, Debye):
    X=              3.1481    Y=             -0.3800    Z=              3.9964  Tot=              5.1016
 Quadrupole moment (field-independent basis, Debye-Ang):
   XX=            -91.0878   YY=           -108.9189   ZZ=           -107.0975
   XY=             29.7600   XZ=              0.7979   YZ=             -1.1838

 Normal termination of Gaussian 16 at Thu May  6 16:25:51 2021.
