 Gaussian 16, Revision A.03,
 Gaussian 16:  EM64L-G16RevA.03 25-Dec-2016

 -------------
 #p 6-31g* mp2
 -------------

 ------------------------------------------------------
 Input file generated by CHIRIPA (05-May-2021 14:55:19)
 ------------------------------------------------------
 Symbolic Z-matrix:
 Charge =  0 Multiplicity = 1

                         Standard orientation:
 ---------------------------------------------------------------------
 Center     Atomic      Atomic             Coordinates (Angstroms)
 Number     Number       Type             X           Y           Z
 ---------------------------------------------------------------------
      1          6           0       -1.120022    1.761063    0.107228
      2          6           0       -0.970975    0.569468    0.824450
      3          6           0       -1.972016   -0.406073    0.796405
      4          6           0       -3.114156   -0.155922    0.037306
      5          6           0       -3.292020    1.021198   -0.687982
      6          6           0       -2.278027    1.982734   -0.645372
      7          1           0       -0.337359    2.513446    0.134671
      8          1           0       -0.072726    0.394605    1.409785
      9          1           0       -1.882539   -1.337473    1.342211
     10          1           0       -4.198753    1.166961   -1.262444
     11          1           0       -2.396495    2.907209   -1.203366
     12          7           0       -4.180768   -1.181270   -0.000094
     13          8           0       -5.177443   -0.936785   -0.676484
     14          8           0       -3.999908   -2.210008    0.647691
     15          6           0        3.634412   -0.769752   -0.073886
     16          6           0        4.903023   -1.592771   -0.300269
     17          6           0        4.633326   -3.097397   -0.334297
     18          1           0        3.166448   -1.081266    0.869995
     19          1           0        2.912049   -0.995799   -0.870435
     20          1           0        5.623311   -1.364204    0.495696
     21          1           0        5.368125   -1.279128   -1.243626
     22          1           0        3.934016   -3.345315   -1.139345
     23          1           0        4.190651   -3.430876    0.609860
     24          1           0        5.553793   -3.666667   -0.497189
     25          6           0        3.887802    0.736300   -0.037396
     26          6           0        2.619191    1.559318    0.188986
     27          6           0        2.888888    3.063945    0.223014
     28          1           0        4.610165    0.962346    0.759152
     29          1           0        4.355767    1.047814   -0.981278
     30          1           0        2.154089    1.245675    1.132344
     31          1           0        1.898903    1.330752   -0.606978
     32          1           0        3.331563    3.397423   -0.721142
     33          1           0        3.588198    3.311862    1.028062
     34          1           0        1.968422    3.633214    0.385906
 ---------------------------------------------------------------------

 SCF Done:  E(RHF) =  -669.534610705     A.U. after   15 cycles
 E2 =    -0.2092782859D+01 EUMP2 =    -0.67162739356352D+03

 The electronic state is 1-A.
 Alpha  occ. eigenvalues --  -20.60701 -20.60695 -15.85753 -11.31098 -11.27667
 Alpha  occ. eigenvalues --  -11.27645 -11.27352 -11.26676 -11.26611 -11.22870
 Alpha  occ. eigenvalues --  -11.22355 -11.22314 -11.22187 -11.22122 -11.21503
 Alpha  occ. eigenvalues --   -1.59777  -1.39331  -1.19265  -1.09335  -1.08657
 Alpha  occ. eigenvalues --   -1.04671  -1.04425  -0.96855  -0.95499  -0.87868
 Alpha  occ. eigenvalues --   -0.86068  -0.82335  -0.80557  -0.79105  -0.77379
 Alpha  occ. eigenvalues --   -0.71971  -0.71100  -0.70388  -0.65959  -0.64913
 Alpha  occ. eigenvalues --   -0.64688  -0.62065  -0.61781  -0.60276  -0.58484
 Alpha  occ. eigenvalues --   -0.56107  -0.55128  -0.53574  -0.53266  -0.52995
 Alpha  occ. eigenvalues --   -0.52760  -0.50770  -0.48872  -0.48728  -0.48674
 Alpha  occ. eigenvalues --   -0.47548  -0.46623  -0.46513  -0.44741  -0.44668
 Alpha  occ. eigenvalues --   -0.37215  -0.36264
 Alpha virt. eigenvalues --    0.05124   0.11342   0.16577   0.19440   0.22428
 Alpha virt. eigenvalues --    0.23423   0.24517   0.25904   0.26307   0.28445
 Alpha virt. eigenvalues --    0.29019   0.29906   0.30932   0.31666   0.32174

 Mulliken charges:
               1
     1  C   -0.176391
     2  C   -0.221181
     3  C   -0.171990
     4  C    0.158391
     5  C   -0.171110
     6  C   -0.220761
     7  H    0.234019
     8  H    0.227824
     9  H    0.275351
    10  H    0.275126
    11  H    0.223241
    12  N    0.487972
    13  O   -0.460759
    14  O   -0.460654
    15  C   -0.299481
    16  C   -0.300367
    17  C   -0.476393
    18  H    0.146473
    19  H    0.152463
    20  H    0.152866
    21  H    0.153521
    22  H    0.157044
    23  H    0.155615
    24  H    0.162469
    25  C   -0.297948
    26  C   -0.309477
    27  C   -0.478709
    28  H    0.152077
    29  H    0.153221
    30  H    0.146046
    31  H    0.156099
    32  H    0.161167
    33  H    0.161478
    34  H    0.152758
 Sum of Mulliken charges =  -0.00000

 Dipole moment (field-independent basis, Debye):
    X=              4.0412    Y=              3.5699    Z=              0.0619  Tot=              5.3925
 Quadrupole moment (field-independent basis, Debye-Ang):
   XX=           -116.3691   YY=            -95.7312   ZZ=            -92.4356
   XY=            -13.7540   XZ=              1.5890   YZ=             -2.0907

 Normal termination of Gaussian 16 at Thu May  6 02:51:49 2021.
