 Gaussian 16, Revision A.03,
 Gaussian 16:  EM64L-G16RevA.03 25-Dec-2016

 -------------
 #p 6-31g* mp2
 -------------

 ------------------------------------------------------
 Input file generated by CHIRIPA (05-May-2021 14:57:25)
 ------------------------------------------------------
 Symbolic Z-matrix:
 Charge =  0 Multiplicity = 1

                         Standard orientation:
 ---------------------------------------------------------------------
 Center     Atomic      Atomic             Coordinates (Angstroms)
 Number     Number       Type             X           Y           Z
 ---------------------------------------------------------------------
      1          6           0        3.931772    1.661081   -0.919998
      2          6           0        2.544300    1.559036   -1.065020
      3          6           0        1.851454    0.473573   -0.520701
      4          6           0        2.580961   -0.496029    0.165580
      5          6           0        3.963661   -0.422547    0.326923
      6          6           0        4.635783    0.671708   -0.225713
      7          1           0        4.461941    2.507709   -1.346068
      8          1           0        1.994959    2.325903   -1.603706
      9          1           0        0.777610    0.369700   -0.618102
     10          1           0        4.483903   -1.202723    0.869225
     11          1           0        5.713341    0.748351   -0.111528
     12          7           0        1.858446   -1.649814    0.746228
     13          8           0        2.524250   -2.490759    1.346356
     14          8           0        0.640016   -1.691358    0.590218
     15          6           0       -2.199926    2.286431    1.411061
     16          6           0       -1.639157    2.209533    0.131942
     17          6           0       -1.909331    1.116818   -0.697230
     18          6           0       -2.748390    0.114398   -0.213054
     19          6           0       -3.322235    0.162278    1.056473
     20          6           0       -3.038197    1.264360    1.868438
     21          1           0       -1.984663    3.138917    2.048499
     22          1           0       -0.987787    3.001817   -0.225898
     23          1           0       -1.488560    1.031931   -1.691797
     24          1           0       -3.967783   -0.643000    1.385429
     25          1           0       -3.475097    1.321422    2.861367
     26          7           0       -3.041749   -1.047368   -1.081753
     27          8           0       -3.784144   -1.917423   -0.631759
     28          8           0       -2.523737   -1.065909   -2.196183
 ---------------------------------------------------------------------

 SCF Done:  E(RHF) =  -868.336133905     A.U. after   16 cycles
 E2 =    -0.2602617741D+01 EUMP2 =    -0.87093875164608D+03

 The electronic state is 1-A.
 Alpha  occ. eigenvalues --  -20.60786 -20.60770 -20.60428 -20.60402 -15.85839
 Alpha  occ. eigenvalues --  -15.85486 -11.31297 -11.31105 -11.27902 -11.27862
 Alpha  occ. eigenvalues --  -11.27795 -11.27708 -11.27603 -11.27476 -11.27014
 Alpha  occ. eigenvalues --  -11.26926 -11.26913 -11.26702  -1.59849  -1.59470
 Alpha  occ. eigenvalues --   -1.39400  -1.39028  -1.19509  -1.19289  -1.08885
 Alpha  occ. eigenvalues --   -1.08626  -1.04976  -1.04752  -0.95702  -0.95435
 Alpha  occ. eigenvalues --   -0.86344  -0.86137  -0.82561  -0.82285  -0.77602
 Alpha  occ. eigenvalues --   -0.77273  -0.72072  -0.71720  -0.71171  -0.70757
 Alpha  occ. eigenvalues --   -0.70675  -0.70374  -0.65172  -0.65040  -0.64943
 Alpha  occ. eigenvalues --   -0.64758  -0.62472  -0.61973  -0.55461  -0.55234
 Alpha  occ. eigenvalues --   -0.53340  -0.53255  -0.52888  -0.52688  -0.48822
 Alpha  occ. eigenvalues --   -0.48803  -0.48488  -0.48448  -0.44781  -0.44388
 Alpha  occ. eigenvalues --   -0.37502  -0.37224  -0.36639  -0.36247
 Alpha virt. eigenvalues --    0.04955   0.05279   0.11006   0.11284   0.16362
 Alpha virt. eigenvalues --    0.16722   0.19795   0.22128   0.25410   0.27722
 Alpha virt. eigenvalues --    0.28167   0.29700   0.29983   0.31740   0.32222

 Mulliken charges:
               1
     1  C   -0.170055
     2  C   -0.224712
     3  C   -0.173155
     4  C    0.155408
     5  C   -0.169078
     6  C   -0.219484
     7  H    0.225247
     8  H    0.216211
     9  H    0.286394
    10  H    0.276581
    11  H    0.223930
    12  N    0.487455
    13  O   -0.459858
    14  O   -0.459253
    15  C   -0.170246
    16  C   -0.216768
    17  C   -0.187633
    18  C    0.175279
    19  C   -0.165850
    20  C   -0.215985
    21  H    0.224782
    22  H    0.216275
    23  H    0.270021
    24  H    0.278587
    25  H    0.224808
    26  N    0.491057
    27  O   -0.456691
    28  O   -0.463267
 Sum of Mulliken charges =  -0.00000

 Dipole moment (field-independent basis, Debye):
    X=              3.3681    Y=              7.8489    Z=              1.2221  Tot=              8.6280
 Quadrupole moment (field-independent basis, Debye-Ang):
   XX=            -91.6988   YY=           -107.9975   ZZ=           -104.7213
   XY=             -2.1545   XZ=            -14.6404   YZ=             -0.9712

 Normal termination of Gaussian 16 at Thu May  6 01:56:25 2021.
