 Gaussian 16, Revision A.03,
 Gaussian 16:  EM64L-G16RevA.03 25-Dec-2016

 -------------
 #p 6-31g* mp2
 -------------

 ------------------------------------------------------
 Input file generated by CHIRIPA (05-May-2021 14:57:23)
 ------------------------------------------------------
 Symbolic Z-matrix:
 Charge =  0 Multiplicity = 1

                         Standard orientation:
 ---------------------------------------------------------------------
 Center     Atomic      Atomic             Coordinates (Angstroms)
 Number     Number       Type             X           Y           Z
 ---------------------------------------------------------------------
      1          6           0       -2.326173    0.388949    0.407141
      2          6           0       -2.787884   -0.902050    0.130259
      3          6           0       -4.149160   -1.138758   -0.082922
      4          6           0       -5.024820   -0.056446   -0.011444
      5          6           0       -4.595533    1.241239    0.262443
      6          6           0       -3.229878    1.454595    0.472234
      7          1           0       -1.267000    0.563760    0.571428
      8          1           0       -2.088341   -1.731549    0.079093
      9          1           0       -4.533714   -2.128121   -0.299020
     10          1           0       -5.316966    2.048065    0.306992
     11          1           0       -2.874149    2.458260    0.687082
     12          7           0       -6.468260   -0.294678   -0.235335
     13          8           0       -7.219377    0.675776   -0.166914
     14          8           0       -6.821180   -1.447346   -0.475003
     15          6           0        2.326425    0.562268    0.095989
     16          6           0        3.248506    1.559127   -0.239507
     17          6           0        4.614205    1.268479   -0.309788
     18          6           0        5.024796   -0.035514   -0.037197
     19          6           0        4.130572   -1.050447    0.299798
     20          6           0        2.769619   -0.737047    0.364098
     21          1           0        1.267360    0.796886    0.148262
     22          1           0        2.907181    2.569065   -0.448229
     23          1           0        5.349642    2.021034   -0.567108
     24          1           0        4.501009   -2.047990    0.502534
     25          1           0        2.055780   -1.513231    0.624901
     26          7           0        6.468088   -0.355252   -0.108434
     27          8           0        6.804332   -1.511851    0.136218
     28          8           0        7.235767    0.556791   -0.407574
 ---------------------------------------------------------------------

 SCF Done:  E(RHF) =  -868.336036116     A.U. after   16 cycles
 E2 =    -0.2599670252D+01 EUMP2 =    -0.87093570636817D+03

 The electronic state is 1-A.
 Alpha  occ. eigenvalues --  -20.61338 -20.61333 -20.61332 -20.61327 -15.86396
 Alpha  occ. eigenvalues --  -15.86391 -11.31927 -11.31917 -11.28503 -11.28502
 Alpha  occ. eigenvalues --  -11.28493 -11.28481 -11.28448 -11.28433 -11.27633
 Alpha  occ. eigenvalues --  -11.27632 -11.27604 -11.27582  -1.60409  -1.60403
 Alpha  occ. eigenvalues --   -1.39958  -1.39952  -1.20129  -1.20119  -1.09533
 Alpha  occ. eigenvalues --   -1.09510  -1.05547  -1.05539  -0.96348  -0.96300
 Alpha  occ. eigenvalues --   -0.86958  -0.86948  -0.83175  -0.83111  -0.78135
 Alpha  occ. eigenvalues --   -0.78127  -0.72614  -0.72608  -0.71733  -0.71727
 Alpha  occ. eigenvalues --   -0.71554  -0.71109  -0.65797  -0.65786  -0.65595
 Alpha  occ. eigenvalues --   -0.65541  -0.62887  -0.62874  -0.56492  -0.55843
 Alpha  occ. eigenvalues --   -0.53874  -0.53863  -0.53659  -0.53646  -0.49390
 Alpha  occ. eigenvalues --   -0.49377  -0.49356  -0.49350  -0.45326  -0.45321
 Alpha  occ. eigenvalues --   -0.38168  -0.38144  -0.37133  -0.37126
 Alpha virt. eigenvalues --    0.04379   0.04410   0.10507   0.10516   0.15781
 Alpha virt. eigenvalues --    0.15844   0.17072   0.21999   0.24389   0.25859
 Alpha virt. eigenvalues --    0.27009   0.29313   0.29556   0.31538   0.32252

 Mulliken charges:
               1
     1  C   -0.174098
     2  C   -0.219304
     3  C   -0.169654
     4  C    0.159506
     5  C   -0.169726
     6  C   -0.219539
     7  H    0.220499
     8  H    0.221494
     9  H    0.278017
    10  H    0.278001
    11  H    0.223995
    12  N    0.487819
    13  O   -0.458427
    14  O   -0.458423
    15  C   -0.173637
    16  C   -0.219251
    17  C   -0.169622
    18  C    0.159379
    19  C   -0.169709
    20  C   -0.219368
    21  H    0.220641
    22  H    0.224890
    23  H    0.278045
    24  H    0.277820
    25  H    0.219773
    26  N    0.487838
    27  O   -0.458603
    28  O   -0.458355
 Sum of Mulliken charges =  -0.00000

 Dipole moment (field-independent basis, Debye):
    X=             -0.0047    Y=              1.9537    Z=              0.9992  Tot=              2.1944
 Quadrupole moment (field-independent basis, Debye-Ang):
   XX=           -205.3327   YY=            -95.5741   ZZ=           -106.1855
   XY=              1.4365   XZ=             -3.0394   YZ=             -0.7031

 Normal termination of Gaussian 16 at Thu May  6 21:10:38 2021.
