 Gaussian 16, Revision A.03,
 Gaussian 16:  EM64L-G16RevA.03 25-Dec-2016

 -------------
 #p 6-31g* mp2
 -------------

 ------------------------------------------------------
 Input file generated by CHIRIPA (05-May-2021 14:57:22)
 ------------------------------------------------------
 Symbolic Z-matrix:
 Charge =  0 Multiplicity = 1

                         Standard orientation:
 ---------------------------------------------------------------------
 Center     Atomic      Atomic             Coordinates (Angstroms)
 Number     Number       Type             X           Y           Z
 ---------------------------------------------------------------------
      1          6           0       -0.693510    0.049466   -0.411476
      2          6           0       -1.251088   -0.578964    0.706872
      3          6           0       -2.636705   -0.601195    0.891584
      4          6           0       -3.438687    0.017632   -0.066105
      5          6           0       -2.913221    0.651853   -1.190800
      6          6           0       -1.524891    0.661789   -1.355080
      7          1           0        0.383925    0.061960   -0.547029
      8          1           0       -0.607863   -1.055313    1.441311
      9          1           0       -3.094890   -1.080557    1.748145
     10          1           0       -3.580093    1.118169   -1.905818
     11          1           0       -1.094649    1.150585   -2.224571
     12          7           0       -4.907014    0.000606    0.118626
     13          8           0       -5.591885    0.552997   -0.739542
     14          8           0       -5.345214   -0.564809    1.118088
     15          6           0        3.262337    2.435645    0.670368
     16          6           0        3.635956    2.004979   -0.606917
     17          6           0        3.603463    0.646583   -0.935940
     18          6           0        3.190342   -0.257884    0.041076
     19          6           0        2.812034    0.140122    1.322390
     20          6           0        2.852291    1.503486    1.629254
     21          1           0        3.290594    3.492809    0.917354
     22          1           0        3.954826    2.726661   -1.353603
     23          1           0        3.887357    0.285752   -1.917073
     24          1           0        2.498634   -0.602937    2.045621
     25          1           0        2.561573    1.835074    2.622017
     26          7           0        3.151834   -1.698586   -0.295517
     27          8           0        2.784102   -2.475456    0.583052
     28          8           0        3.490111   -2.023658   -1.431533
 ---------------------------------------------------------------------

 SCF Done:  E(RHF) =  -868.337406023     A.U. after   16 cycles
 E2 =    -0.2601842133D+01 EUMP2 =    -0.87093924815615D+03

 The electronic state is 1-A.
 Alpha  occ. eigenvalues --  -20.61940 -20.61922 -20.60655 -20.60649 -15.86986
 Alpha  occ. eigenvalues --  -15.85708 -11.32448 -11.31035 -11.29004 -11.28980
 Alpha  occ. eigenvalues --  -11.28649 -11.27972 -11.27961 -11.27619 -11.27599
 Alpha  occ. eigenvalues --  -11.27260 -11.26613 -11.26575  -1.61015  -1.59731
 Alpha  occ. eigenvalues --   -1.40560  -1.39286  -1.20635  -1.19204  -1.09972
 Alpha  occ. eigenvalues --   -1.08597  -1.05999  -1.04607  -0.96789  -0.95443
 Alpha  occ. eigenvalues --   -0.87378  -0.86002  -0.83595  -0.82284  -0.78658
 Alpha  occ. eigenvalues --   -0.77338  -0.73176  -0.72421  -0.71926  -0.71637
 Alpha  occ. eigenvalues --   -0.71055  -0.70295  -0.66224  -0.65940  -0.64854
 Alpha  occ. eigenvalues --   -0.64619  -0.63317  -0.61960  -0.56417  -0.55502
 Alpha  occ. eigenvalues --   -0.54043  -0.53949  -0.52926  -0.52696  -0.49952
 Alpha  occ. eigenvalues --   -0.49940  -0.48684  -0.48681  -0.45927  -0.44700
 Alpha  occ. eigenvalues --   -0.38573  -0.37674  -0.37114  -0.36214
 Alpha virt. eigenvalues --    0.03808   0.05214   0.09962   0.11439   0.15335
 Alpha virt. eigenvalues --    0.16705   0.20104   0.21478   0.25564   0.26805
 Alpha virt. eigenvalues --    0.27849   0.28130   0.30108   0.30487   0.31936

 Mulliken charges:
               1
     1  C   -0.171795
     2  C   -0.221985
     3  C   -0.170952
     4  C    0.157896
     5  C   -0.170944
     6  C   -0.221421
     7  H    0.231890
     8  H    0.224179
     9  H    0.275380
    10  H    0.274557
    11  H    0.221624
    12  N    0.488057
    13  O   -0.461213
    14  O   -0.460680
    15  C   -0.170884
    16  C   -0.217237
    17  C   -0.177316
    18  C    0.148359
    19  C   -0.180107
    20  C   -0.213919
    21  H    0.231103
    22  H    0.228062
    23  H    0.279002
    24  H    0.275742
    25  H    0.228845
    26  N    0.489575
    27  O   -0.460033
    28  O   -0.455784
 Sum of Mulliken charges =  -0.00000

 Dipole moment (field-independent basis, Debye):
    X=              5.6321    Y=              5.2484    Z=              0.5717  Tot=              7.7197
 Quadrupole moment (field-independent basis, Debye-Ang):
   XX=           -139.7831   YY=           -106.5567   ZZ=            -96.8522
   XY=             16.7904   XZ=              4.5265   YZ=             -3.5545

 Normal termination of Gaussian 16 at Wed May  5 20:58:24 2021.
