 Gaussian 16, Revision A.03,
 Gaussian 16:  EM64L-G16RevA.03 25-Dec-2016

 -------------
 #p 6-31g* mp2
 -------------

 ------------------------------------------------------
 Input file generated by CHIRIPA (05-May-2021 14:57:27)
 ------------------------------------------------------
 Symbolic Z-matrix:
 Charge =  0 Multiplicity = 1

                         Standard orientation:
 ---------------------------------------------------------------------
 Center     Atomic      Atomic             Coordinates (Angstroms)
 Number     Number       Type             X           Y           Z
 ---------------------------------------------------------------------
      1          6           0       -3.492907    2.641021   -0.237957
      2          6           0       -3.879975    1.845416   -1.321337
      3          6           0       -3.825299    0.451187   -1.233686
      4          6           0       -3.376519   -0.116594   -0.042253
      5          6           0       -2.984020    0.649086    1.054545
      6          6           0       -3.046951    2.041374    0.944442
      7          1           0       -3.538588    3.723338   -0.314768
      8          1           0       -4.226723    2.308367   -2.240841
      9          1           0       -4.118906   -0.188568   -2.057049
     10          1           0       -2.642713    0.158687    1.958114
     11          1           0       -2.745715    2.656754    1.787418
     12          7           0       -3.314266   -1.591575    0.062424
     13          8           0       -2.915219   -2.067385    1.123086
     14          8           0       -3.665698   -2.243925   -0.918174
     15          6           0        1.113551   -0.882112    0.851597
     16          6           0        1.922118   -0.102947    1.685650
     17          6           0        3.183443    0.321369    1.257206
     18          6           0        3.606547   -0.053450   -0.017071
     19          6           0        2.824148   -0.828975   -0.871298
     20          6           0        1.566349   -1.242004   -0.421970
     21          1           0        0.135094   -1.207347    1.192534
     22          1           0        1.573062    0.178053    2.675218
     23          1           0        3.829874    0.925257    1.882395
     24          1           0        3.199420   -1.093253   -1.852495
     25          1           0        0.940551   -1.847041   -1.071856
     26          7           0        4.939988    0.389780   -0.481700
     27          8           0        5.289682    0.046193   -1.608776
     28          8           0        5.610197    1.072379    0.289996
 ---------------------------------------------------------------------

 SCF Done:  E(RHF) =  -868.339375074     A.U. after   16 cycles
 E2 =    -0.2599323369D+01 EUMP2 =    -0.87093869844332D+03

 The electronic state is 1-A.
 Alpha  occ. eigenvalues --  -20.61944 -20.61896 -20.60637 -20.60630 -15.86930
 Alpha  occ. eigenvalues --  -15.85689 -11.32085 -11.30982 -11.28664 -11.28578
 Alpha  occ. eigenvalues --  -11.28264 -11.27580 -11.27580 -11.27530 -11.27530
 Alpha  occ. eigenvalues --  -11.27165 -11.26562 -11.26460  -1.60980  -1.59714
 Alpha  occ. eigenvalues --   -1.40541  -1.39270  -1.20222  -1.19143  -1.09648
 Alpha  occ. eigenvalues --   -1.08531  -1.05590  -1.04543  -0.96522  -0.95379
 Alpha  occ. eigenvalues --   -0.86998  -0.85933  -0.83359  -0.82221  -0.78451
 Alpha  occ. eigenvalues --   -0.77298  -0.73145  -0.72309  -0.71906  -0.71314
 Alpha  occ. eigenvalues --   -0.71039  -0.70178  -0.65871  -0.65579  -0.64786
 Alpha  occ. eigenvalues --   -0.64537  -0.62948  -0.61896  -0.56068  -0.54962
 Alpha  occ. eigenvalues --   -0.53923  -0.53672  -0.52870  -0.52624  -0.49927
 Alpha  occ. eigenvalues --   -0.49882  -0.48667  -0.48658  -0.45970  -0.44692
 Alpha  occ. eigenvalues --   -0.38173  -0.37241  -0.37027  -0.36162
 Alpha virt. eigenvalues --    0.04030   0.05240   0.10424   0.11497   0.15576
 Alpha virt. eigenvalues --    0.16760   0.20354   0.21744   0.26178   0.27117
 Alpha virt. eigenvalues --    0.27547   0.28603   0.30384   0.31022   0.32532

 Mulliken charges:
               1
     1  C   -0.169357
     2  C   -0.217671
     3  C   -0.170725
     4  C    0.157531
     5  C   -0.174135
     6  C   -0.216808
     7  H    0.229437
     8  H    0.227000
     9  H    0.277105
    10  H    0.270906
    11  H    0.225235
    12  N    0.486901
    13  O   -0.466117
    14  O   -0.454879
    15  C   -0.178108
    16  C   -0.220199
    17  C   -0.171515
    18  C    0.157704
    19  C   -0.171376
    20  C   -0.220694
    21  H    0.237515
    22  H    0.219692
    23  H    0.273746
    24  H    0.275145
    25  H    0.228213
    26  N    0.488130
    27  O   -0.460806
    28  O   -0.461871
 Sum of Mulliken charges =  -0.00000

 Dipole moment (field-independent basis, Debye):
    X=             -5.2420    Y=              3.7197    Z=              1.1062  Tot=              6.5222
 Quadrupole moment (field-independent basis, Debye-Ang):
   XX=           -137.7901   YY=           -105.4461   ZZ=            -96.9405
   XY=            -23.0725   XZ=             10.2307   YZ=              2.5998

 Normal termination of Gaussian 16 at Wed May  5 21:16:57 2021.
