 Gaussian 16, Revision A.03,
 Gaussian 16:  EM64L-G16RevA.03 25-Dec-2016

 -------------
 #p 6-31g* mp2
 -------------

 ------------------------------------------------------
 Input file generated by CHIRIPA (05-May-2021 14:53:18)
 ------------------------------------------------------
 Symbolic Z-matrix:
 Charge =  0 Multiplicity = 1

                         Standard orientation:
 ---------------------------------------------------------------------
 Center     Atomic      Atomic             Coordinates (Angstroms)
 Number     Number       Type             X           Y           Z
 ---------------------------------------------------------------------
      1          6           0       -4.269847   -0.588724   -0.363962
      2          6           0       -5.077926   -1.174689    0.794330
      3          6           0       -5.671886   -2.545058    0.467075
      4          1           0       -4.915386   -0.508207   -1.249254
      5          1           0       -3.462496   -1.285697   -0.628172
      6          1           0       -5.882666   -0.476181    1.057188
      7          1           0       -4.430440   -1.253642    1.677021
      8          1           0       -4.879357   -3.260707    0.225525
      9          1           0       -6.339835   -2.478828   -0.397829
     10          1           0       -6.245489   -2.945395    1.308841
     11          6           0       -3.669674    0.781029   -0.052037
     12          6           0       -2.861595    1.366995   -1.210328
     13          6           0       -2.267635    2.737363   -0.883073
     14          1           0       -4.477025    1.478003    0.212174
     15          1           0       -3.024135    0.700512    0.833255
     16          1           0       -3.509081    1.445948   -2.093020
     17          1           0       -2.056855    0.668486   -1.473187
     18          1           0       -1.599686    2.671134   -0.018169
     19          1           0       -3.060164    3.453012   -0.641524
     20          1           0       -1.694033    3.137700   -1.724839
     21          6           0        1.232359    1.199419    1.279752
     22          6           0        2.424985    0.957911    1.969562
     23          6           0        3.467259    0.252820    1.360416
     24          6           0        3.282065   -0.198337    0.054487
     25          6           0        2.105724    0.026400   -0.658957
     26          6           0        1.076809    0.733714   -0.029997
     27          1           0        0.427885    1.748014    1.760648
     28          1           0        2.548582    1.318397    2.986824
     29          1           0        4.401051    0.051837    1.871354
     30          1           0        2.011962   -0.345460   -1.672045
     31          1           0        0.151701    0.919803   -0.568133
     32          7           0        4.378402   -0.945962   -0.600877
     33          8           0        4.190386   -1.332869   -1.752219
     34          8           0        5.404968   -1.130888    0.049201
 ---------------------------------------------------------------------

 SCF Done:  E(RHF) =  -669.535054952     A.U. after   15 cycles
 E2 =    -0.2092085269D+01 EUMP2 =    -0.67162714022148D+03

 The electronic state is 1-A.
 Alpha  occ. eigenvalues --  -20.60735 -20.60730 -15.85787 -11.31147 -11.27713
 Alpha  occ. eigenvalues --  -11.27698 -11.27454 -11.26736 -11.26661 -11.22785
 Alpha  occ. eigenvalues --  -11.22356 -11.22348 -11.22194 -11.22092 -11.21524
 Alpha  occ. eigenvalues --   -1.59811  -1.39364  -1.19315  -1.09319  -1.08713
 Alpha  occ. eigenvalues --   -1.04725  -1.04409  -0.96854  -0.95551  -0.87865
 Alpha  occ. eigenvalues --   -0.86118  -0.82384  -0.80494  -0.79072  -0.77435
 Alpha  occ. eigenvalues --   -0.72007  -0.71133  -0.70441  -0.66086  -0.64967
 Alpha  occ. eigenvalues --   -0.64706  -0.62295  -0.61535  -0.60238  -0.58441
 Alpha  occ. eigenvalues --   -0.56150  -0.55226  -0.53541  -0.53259  -0.53048
 Alpha  occ. eigenvalues --   -0.52769  -0.50813  -0.48814  -0.48762  -0.48733
 Alpha  occ. eigenvalues --   -0.47557  -0.46615  -0.46516  -0.44771  -0.44637
 Alpha  occ. eigenvalues --   -0.37299  -0.36315
 Alpha virt. eigenvalues --    0.05098   0.11304   0.16581   0.18616   0.22728
 Alpha virt. eigenvalues --    0.23940   0.24584   0.25652   0.27005   0.27994
 Alpha virt. eigenvalues --    0.28852   0.30047   0.30752   0.31654   0.31788

 Mulliken charges:
               1
     1  C   -0.299131
     2  C   -0.300230
     3  C   -0.476330
     4  H    0.152109
     5  H    0.150774
     6  H    0.152748
     7  H    0.151867
     8  H    0.156694
     9  H    0.156308
    10  H    0.161988
    11  C   -0.297561
    12  C   -0.306626
    13  C   -0.480863
    14  H    0.153045
    15  H    0.145050
    16  H    0.159855
    17  H    0.146866
    18  H    0.145686
    19  H    0.163088
    20  H    0.165272
    21  C   -0.175758
    22  C   -0.218334
    23  C   -0.171352
    24  C    0.158993
    25  C   -0.173865
    26  C   -0.227210
    27  H    0.226143
    28  H    0.223262
    29  H    0.275407
    30  H    0.275623
    31  H    0.239552
    32  N    0.488025
    33  O   -0.460492
    34  O   -0.460601
 Sum of Mulliken charges =  -0.00000

 Dipole moment (field-independent basis, Debye):
    X=             -4.1302    Y=              2.6378    Z=              2.2561  Tot=              5.3951
 Quadrupole moment (field-independent basis, Debye-Ang):
   XX=           -117.5814   YY=            -97.0756   ZZ=            -91.1037
   XY=              8.8058   XZ=             10.5489   YZ=             -0.2454

 Normal termination of Gaussian 16 at Thu May  6 01:16:09 2021.
