 Gaussian 16, Revision A.03,
 Gaussian 16:  EM64L-G16RevA.03 25-Dec-2016

 -------------
 #p 6-31g* mp2
 -------------

 ------------------------------------------------------
 Input file generated by CHIRIPA (05-May-2021 14:53:17)
 ------------------------------------------------------
 Symbolic Z-matrix:
 Charge =  0 Multiplicity = 1

                         Standard orientation:
 ---------------------------------------------------------------------
 Center     Atomic      Atomic             Coordinates (Angstroms)
 Number     Number       Type             X           Y           Z
 ---------------------------------------------------------------------
      1          6           0        3.217413    0.296855    0.353804
      2          6           0        4.488055   -0.445643   -0.061105
      3          6           0        5.079660   -1.284024    1.072437
      4          1           0        3.442629    0.944765    1.211962
      5          1           0        2.471538   -0.432101    0.699765
      6          1           0        5.230819    0.284384   -0.407483
      7          1           0        4.259833   -1.091716   -0.918496
      8          1           0        4.358703   -2.033932    1.413698
      9          1           0        5.335207   -0.650013    1.927614
     10          1           0        5.987292   -1.806217    0.754035
     11          6           0        2.614172    1.139350   -0.768708
     12          6           0        1.343530    1.881849   -0.353799
     13          6           0        0.751924    2.720229   -1.487341
     14          1           0        3.360046    1.868306   -1.114669
     15          1           0        2.388956    0.491440   -1.626866
     16          1           0        1.571752    2.527922    0.503592
     17          1           0        0.600766    1.151822   -0.007421
     18          1           0        0.496378    2.086219   -2.342518
     19          1           0        1.472881    3.470137   -1.828602
     20          1           0       -0.155707    3.242422   -1.168939
     21          6           0       -3.541890    1.413356    1.094948
     22          6           0       -4.054487    0.707206    0.001734
     23          6           0       -3.362718   -0.388335   -0.523427
     24          6           0       -2.155771   -0.751893    0.071885
     25          6           0       -1.619091   -0.068431    1.161904
     26          6           0       -2.327968    1.023972    1.670530
     27          1           0       -4.085918    2.263179    1.496483
     28          1           0       -4.997002    1.007351   -0.447290
     29          1           0       -3.736640   -0.952745   -1.369028
     30          1           0       -0.677095   -0.391406    1.588225
     31          1           0       -1.927478    1.570519    2.519610
     32          7           0       -1.414370   -1.910031   -0.475326
     33          8           0       -0.353117   -2.210252    0.067118
     34          8           0       -1.908551   -2.495630   -1.436314
 ---------------------------------------------------------------------

 SCF Done:  E(RHF) =  -669.535420647     A.U. after   15 cycles
 E2 =    -0.2093233042D+01 EUMP2 =    -0.67162865368965D+03

 The electronic state is 1-A.
 Alpha  occ. eigenvalues --  -20.60920 -20.60915 -15.85959 -11.31277 -11.27844
 Alpha  occ. eigenvalues --  -11.27838 -11.27582 -11.26846 -11.26836 -11.21476
 Alpha  occ. eigenvalues --  -11.21127 -11.21060 -11.21033 -11.20942 -11.20603
 Alpha  occ. eigenvalues --   -1.59984  -1.39540  -1.19458  -1.08854  -1.08102
 Alpha  occ. eigenvalues --   -1.04857  -1.03240  -0.95701  -0.95679  -0.86709
 Alpha  occ. eigenvalues --   -0.86254  -0.82528  -0.79338  -0.77943  -0.77557
 Alpha  occ. eigenvalues --   -0.72178  -0.71306  -0.70570  -0.65109  -0.64900
 Alpha  occ. eigenvalues --   -0.64670  -0.62206  -0.60638  -0.59083  -0.57308
 Alpha  occ. eigenvalues --   -0.55354  -0.54961  -0.53191  -0.52944  -0.52399
 Alpha  occ. eigenvalues --   -0.52116  -0.49619  -0.48939  -0.48931  -0.47647
 Alpha  occ. eigenvalues --   -0.46362  -0.45488  -0.45376  -0.44872  -0.43478
 Alpha  occ. eigenvalues --   -0.37421  -0.36376
 Alpha virt. eigenvalues --    0.04918   0.11114   0.16416   0.20969   0.23148
 Alpha virt. eigenvalues --    0.24595   0.25513   0.27160   0.27708   0.28198
 Alpha virt. eigenvalues --    0.29230   0.31122   0.31662   0.31971   0.32242

 Mulliken charges:
               1
     1  C   -0.303570
     2  C   -0.299283
     3  C   -0.476711
     4  H    0.143789
     5  H    0.160056
     6  H    0.149105
     7  H    0.157055
     8  H    0.159877
     9  H    0.151577
    10  H    0.159500
    11  C   -0.296883
    12  C   -0.305832
    13  C   -0.474766
    14  H    0.147429
    15  H    0.155224
    16  H    0.146145
    17  H    0.154415
    18  H    0.157327
    19  H    0.155042
    20  H    0.156060
    21  C   -0.170740
    22  C   -0.218253
    23  C   -0.170672
    24  C    0.160122
    25  C   -0.173736
    26  C   -0.217451
    27  H    0.226096
    28  H    0.223842
    29  H    0.275797
    30  H    0.277731
    31  H    0.224684
    32  N    0.488866
    33  O   -0.462583
    34  O   -0.459258
 Sum of Mulliken charges =  -0.00000

 Dipole moment (field-independent basis, Debye):
    X=             -2.7283    Y=              3.9360    Z=              1.8877  Tot=              5.1477
 Quadrupole moment (field-independent basis, Debye-Ang):
   XX=            -81.3697   YY=           -101.5900   ZZ=            -92.9059
   XY=             -6.0584   XZ=             -2.0250   YZ=              0.1780

 Normal termination of Gaussian 16 at Thu May  6 13:57:16 2021.
