 Gaussian 16, Revision A.03,
 Gaussian 16:  EM64L-G16RevA.03 25-Dec-2016

 -------------
 #p 6-31g* mp2
 -------------

 ------------------------------------------------------
 Input file generated by CHIRIPA (05-May-2021 14:51:08)
 ------------------------------------------------------
 Symbolic Z-matrix:
 Charge =  0 Multiplicity = 1

                         Standard orientation:
 ---------------------------------------------------------------------
 Center     Atomic      Atomic             Coordinates (Angstroms)
 Number     Number       Type             X           Y           Z
 ---------------------------------------------------------------------
      1          6           0       -3.730386   -0.526911   -0.142071
      2          6           0       -2.784687   -1.077259    0.925991
      3          6           0       -1.820355   -2.128908    0.376546
      4          1           0       -4.301499   -1.356990   -0.579958
      5          1           0       -3.137080   -0.091104   -0.957825
      6          1           0       -3.379617   -1.510661    1.740139
      7          1           0       -2.215897   -0.245749    1.361520
      8          1           0       -1.202115   -1.705163   -0.421464
      9          1           0       -2.372448   -2.977262   -0.040694
     10          1           0       -1.153534   -2.508819    1.156853
     11          6           0       -4.700523    0.525443    0.391888
     12          6           0       -5.646222    1.075790   -0.676174
     13          6           0       -6.610555    2.127439   -0.126729
     14          1           0       -5.293829    0.089636    1.207642
     15          1           0       -4.129410    1.355521    0.829775
     16          1           0       -6.215012    0.244281   -1.111703
     17          1           0       -5.051292    1.509193   -1.490322
     18          1           0       -6.058461    2.975793    0.290511
     19          1           0       -7.228794    1.703694    0.671281
     20          1           0       -7.277375    2.507350   -0.907036
     21          6           0        3.639873   -0.311373   -0.518261
     22          6           0        3.144235   -1.630180    0.075943
     23          6           0        1.992590   -2.242307   -0.722060
     24          1           0        2.804093    0.400243   -0.563225
     25          1           0        3.961083   -0.482183   -1.555102
     26          1           0        2.825348   -1.457215    1.111805
     27          1           0        3.981336   -2.338676    0.119675
     28          1           0        2.302156   -2.443266   -1.752781
     29          1           0        1.139600   -1.556797   -0.755014
     30          1           0        1.653842   -3.184374   -0.279771
     31          6           0        4.791037    0.312841    0.268444
     32          6           0        5.286674    1.631648   -0.325760
     33          6           0        6.438319    2.243775    0.472243
     34          1           0        4.469827    0.483652    1.305286
     35          1           0        5.626816   -0.398775    0.313408
     36          1           0        4.449574    2.340144   -0.369492
     37          1           0        5.605561    1.458683   -1.361622
     38          1           0        7.291309    1.558265    0.505197
     39          1           0        6.128753    2.444734    1.502964
     40          1           0        6.777066    3.185842    0.029954
 ---------------------------------------------------------------------

 SCF Done:  E(RHF) =  -470.732938360     A.U. after   11 cycles
 E2 =    -0.1582362545D+01 EUMP2 =    -0.47231530090497D+03

 The electronic state is 1-A.
 Alpha  occ. eigenvalues --  -11.21601 -11.21601 -11.21584 -11.21565 -11.21403
 Alpha  occ. eigenvalues --  -11.21396 -11.21343 -11.21336 -11.21072 -11.21071
 Alpha  occ. eigenvalues --  -11.21003 -11.20978  -1.08427  -1.08412  -1.03538
 Alpha  occ. eigenvalues --   -1.03487  -0.96017  -0.95905  -0.87068  -0.86889
 Alpha  occ. eigenvalues --   -0.79652  -0.79502  -0.78248  -0.78219  -0.65089
 Alpha  occ. eigenvalues --   -0.65020  -0.61050  -0.60796  -0.59384  -0.59271
 Alpha  occ. eigenvalues --   -0.57628  -0.57520  -0.55500  -0.55038  -0.52772
 Alpha  occ. eigenvalues --   -0.52538  -0.52475  -0.52289  -0.50153  -0.49645
 Alpha  occ. eigenvalues --   -0.47970  -0.47813  -0.46745  -0.46447  -0.45809
 Alpha  occ. eigenvalues --   -0.45752  -0.45717  -0.45632  -0.43827  -0.43700
 Alpha virt. eigenvalues --    0.22160   0.23039   0.23598   0.24921   0.26148
 Alpha virt. eigenvalues --    0.26783   0.27052   0.27397   0.27642   0.29124
 Alpha virt. eigenvalues --    0.29735   0.31198   0.31761   0.31826   0.32284

 Mulliken charges:
               1
     1  C   -0.298344
     2  C   -0.299993
     3  C   -0.478522
     4  H    0.149796
     5  H    0.149331
     6  H    0.151767
     7  H    0.151224
     8  H    0.159430
     9  H    0.154977
    10  H    0.160503
    11  C   -0.298228
    12  C   -0.299650
    13  C   -0.475698
    14  H    0.149557
    15  H    0.149460
    16  H    0.151995
    17  H    0.151900
    18  H    0.155118
    19  H    0.155189
    20  H    0.160265
    21  C   -0.298320
    22  C   -0.299710
    23  C   -0.478432
    24  H    0.149189
    25  H    0.149503
    26  H    0.151664
    27  H    0.151684
    28  H    0.154272
    29  H    0.159042
    30  H    0.161163
    31  C   -0.298254
    32  C   -0.299621
    33  C   -0.475694
    34  H    0.149461
    35  H    0.149699
    36  H    0.151771
    37  H    0.151924
    38  H    0.155210
    39  H    0.155157
    40  H    0.160213
 Sum of Mulliken charges =  -0.00000

 Dipole moment (field-independent basis, Debye):
    X=             -0.0064    Y=             -0.0165    Z=             -0.0067  Tot=              0.0189
 Quadrupole moment (field-independent basis, Debye-Ang):
   XX=            -85.2537   YY=            -84.8796   ZZ=            -84.7208
   XY=              0.2859   XZ=             -0.7234   YZ=             -0.3165

 Normal termination of Gaussian 16 at Thu May  6 13:12:08 2021.
