 Gaussian 16, Revision A.03,
 Gaussian 16:  EM64L-G16RevA.03 25-Dec-2016

 -------------
 #p 6-31g* mp2
 -------------

 ------------------------------------------------------
 Input file generated by CHIRIPA (05-May-2021 14:51:13)
 ------------------------------------------------------
 Symbolic Z-matrix:
 Charge =  0 Multiplicity = 1

                         Standard orientation:
 ---------------------------------------------------------------------
 Center     Atomic      Atomic             Coordinates (Angstroms)
 Number     Number       Type             X           Y           Z
 ---------------------------------------------------------------------
      1          6           0        4.314096   -0.627849   -0.117252
      2          6           0        5.821857   -0.841309    0.020866
      3          6           0        6.198303   -2.314821    0.178492
      4          1           0        3.808888   -1.044502    0.764853
      5          1           0        3.948346   -1.195449   -0.984115
      6          1           0        6.184886   -0.272368    0.886390
      7          1           0        6.323551   -0.423928   -0.861581
      8          1           0        5.863749   -2.892831   -0.689021
      9          1           0        5.724296   -2.740410    1.068881
     10          1           0        7.280716   -2.444482    0.275601
     11          6           0        3.922068    0.840129   -0.275634
     12          6           0        2.414307    1.053590   -0.413752
     13          6           0        2.037861    2.527101   -0.571378
     14          1           0        4.287818    1.407729    0.591229
     15          1           0        4.427277    1.256783   -1.157739
     16          1           0        1.912613    0.636208    0.468695
     17          1           0        2.051278    0.484648   -1.279276
     18          1           0        2.511868    2.952690   -1.461767
     19          1           0        2.372415    3.105111    0.296136
     20          1           0        0.955448    2.656762   -0.668487
     21          6           0       -4.584777   -0.688464    0.033573
     22          6           0       -6.005077   -0.246503   -0.320551
     23          6           0       -6.926880   -1.422730   -0.643910
     24          1           0       -4.167159   -1.264013   -0.803853
     25          1           0       -4.624443   -1.371570    0.893334
     26          1           0       -5.962621    0.436654   -1.178520
     27          1           0       -6.419293    0.328224    0.517739
     28          1           0       -6.998946   -2.102188    0.211511
     29          1           0       -6.539681   -1.993142   -1.494385
     30          1           0       -7.937087   -1.084087   -0.894234
     31          6           0       -3.651387    0.476184    0.359312
     32          6           0       -2.231087    0.034223    0.713437
     33          6           0       -1.309284    1.210451    1.036796
     34          1           0       -3.611722    1.159289   -0.500449
     35          1           0       -4.069006    1.051732    1.196738
     36          1           0       -1.816871   -0.540504   -0.124853
     37          1           0       -2.273543   -0.648934    1.571405
     38          1           0       -1.696484    1.780861    1.887271
     39          1           0       -1.237218    1.889908    0.181375
     40          1           0       -0.299077    0.871806    1.287119
 ---------------------------------------------------------------------

 SCF Done:  E(RHF) =  -470.732518924     A.U. after   11 cycles
 E2 =    -0.1583145775D+01 EUMP2 =    -0.47231566469899D+03

 The electronic state is 1-A.
 Alpha  occ. eigenvalues --  -11.21600 -11.21591 -11.21591 -11.21554 -11.21403
 Alpha  occ. eigenvalues --  -11.21385 -11.21343 -11.21323 -11.21070 -11.21064
 Alpha  occ. eigenvalues --  -11.21034 -11.20967  -1.08434  -1.08399  -1.03564
 Alpha  occ. eigenvalues --   -1.03463  -0.96040  -0.95885  -0.87035  -0.86926
 Alpha  occ. eigenvalues --   -0.79602  -0.79560  -0.78242  -0.78221  -0.65068
 Alpha  occ. eigenvalues --   -0.65040  -0.60990  -0.60907  -0.59522  -0.59154
 Alpha  occ. eigenvalues --   -0.57653  -0.57506  -0.55282  -0.55205  -0.52795
 Alpha  occ. eigenvalues --   -0.52564  -0.52450  -0.52267  -0.49896  -0.49878
 Alpha  occ. eigenvalues --   -0.48049  -0.47753  -0.46614  -0.46582  -0.45795
 Alpha  occ. eigenvalues --   -0.45749  -0.45702  -0.45683  -0.43749  -0.43727
 Alpha virt. eigenvalues --    0.21717   0.23042   0.23465   0.25088   0.26057
 Alpha virt. eigenvalues --    0.26528   0.26961   0.27146   0.27848   0.29058
 Alpha virt. eigenvalues --    0.29367   0.30968   0.31557   0.31857   0.32639

 Mulliken charges:
               1
     1  C   -0.298247
     2  C   -0.299612
     3  C   -0.475695
     4  H    0.149378
     5  H    0.149423
     6  H    0.151924
     7  H    0.151948
     8  H    0.155140
     9  H    0.155139
    10  H    0.160224
    11  C   -0.297781
    12  C   -0.302616
    13  C   -0.479035
    14  H    0.149437
    15  H    0.149559
    16  H    0.154534
    17  H    0.151319
    18  H    0.154285
    19  H    0.154816
    20  H    0.165199
    21  C   -0.298234
    22  C   -0.299644
    23  C   -0.475700
    24  H    0.149648
    25  H    0.149517
    26  H    0.151912
    27  H    0.151937
    28  H    0.155178
    29  H    0.155172
    30  H    0.160249
    31  C   -0.298602
    32  C   -0.299574
    33  C   -0.481756
    34  H    0.149469
    35  H    0.149657
    36  H    0.152353
    37  H    0.151625
    38  H    0.154851
    39  H    0.156503
    40  H    0.166098
 Sum of Mulliken charges =  -0.00000

 Dipole moment (field-independent basis, Debye):
    X=             -0.0146    Y=              0.0025    Z=              0.0075  Tot=              0.0166
 Quadrupole moment (field-independent basis, Debye-Ang):
   XX=            -85.6806   YY=            -86.4114   ZZ=            -82.8318
   XY=             -0.1565   XZ=             -0.5776   YZ=             -0.0263

 Normal termination of Gaussian 16 at Thu May  6 03:56:39 2021.
