 Gaussian 16, Revision A.03,
 Gaussian 16:  EM64L-G16RevA.03 25-Dec-2016

 -------------
 #p 6-31g* mp2
 -------------

 ------------------------------------------------------
 Input file generated by CHIRIPA (05-May-2021 14:53:17)
 ------------------------------------------------------
 Symbolic Z-matrix:
 Charge =  0 Multiplicity = 1

                         Standard orientation:
 ---------------------------------------------------------------------
 Center     Atomic      Atomic             Coordinates (Angstroms)
 Number     Number       Type             X           Y           Z
 ---------------------------------------------------------------------
      1          6           0       -2.854220   -0.571899   -0.173868
      2          6           0       -2.168877   -1.929169   -0.012293
      3          6           0       -0.724649   -1.925644   -0.514276
      4          1           0       -2.833447   -0.281587   -1.233223
      5          1           0       -2.277826    0.189159    0.370150
      6          1           0       -2.747153   -2.687686   -0.555307
      7          1           0       -2.191454   -2.216372    1.046774
      8          1           0       -0.127851   -1.189941    0.034518
      9          1           0       -0.686707   -1.663934   -1.576664
     10          1           0       -0.253784   -2.905706   -0.389277
     11          6           0       -4.298592   -0.559531    0.323490
     12          6           0       -4.983935    0.797739    0.161914
     13          6           0       -6.428163    0.794214    0.663898
     14          1           0       -4.874987   -1.320589   -0.220528
     15          1           0       -4.319365   -0.849842    1.382845
     16          1           0       -4.961359    1.084942   -0.897152
     17          1           0       -4.405660    1.556257    0.704928
     18          1           0       -6.466105    0.532504    1.726286
     19          1           0       -7.024961    0.058512    0.115103
     20          1           0       -6.899028    1.774276    0.538899
     21          6           0        4.458687   -1.284768    0.724727
     22          6           0        3.584115   -1.581520   -0.325789
     23          6           0        2.657684   -0.632450   -0.767990
     24          6           0        2.633138    0.608899   -0.134160
     25          6           0        3.491347    0.934553    0.914990
     26          6           0        4.409598   -0.029892    1.340679
     27          1           0        5.175183   -2.027999    1.061826
     28          1           0        3.619985   -2.555249   -0.806007
     29          1           0        1.969019   -0.835719   -1.579063
     30          1           0        3.431847    1.913904    1.374066
     31          1           0        5.087585    0.203344    2.156754
     32          7           0        1.656697    1.621774   -0.593558
     33          8           0        1.655116    2.708069   -0.018579
     34          8           0        0.911432    1.310193   -1.519914
 ---------------------------------------------------------------------

 SCF Done:  E(RHF) =  -669.535091749     A.U. after   15 cycles
 E2 =    -0.2092588190D+01 EUMP2 =    -0.67162767993925D+03

 The electronic state is 1-A.
 Alpha  occ. eigenvalues --  -20.60806 -20.60778 -15.85832 -11.31158 -11.27756
 Alpha  occ. eigenvalues --  -11.27703 -11.27494 -11.26747 -11.26723 -11.21288
 Alpha  occ. eigenvalues --  -11.21058 -11.20894 -11.20879 -11.20762 -11.20635
 Alpha  occ. eigenvalues --   -1.59863  -1.39416  -1.19349  -1.08749  -1.07950
 Alpha  occ. eigenvalues --   -1.04745  -1.03132  -0.95653  -0.95532  -0.86658
 Alpha  occ. eigenvalues --   -0.86121  -0.82416  -0.79217  -0.77743  -0.77435
 Alpha  occ. eigenvalues --   -0.72053  -0.71191  -0.70457  -0.64999  -0.64746
 Alpha  occ. eigenvalues --   -0.64583  -0.62096  -0.60539  -0.58963  -0.57191
 Alpha  occ. eigenvalues --   -0.55258  -0.54901  -0.53133  -0.52872  -0.52302
 Alpha  occ. eigenvalues --   -0.51943  -0.49536  -0.48818  -0.48808  -0.47506
 Alpha  occ. eigenvalues --   -0.46221  -0.45333  -0.45197  -0.44711  -0.43373
 Alpha  occ. eigenvalues --   -0.37326  -0.36303
 Alpha virt. eigenvalues --    0.05050   0.11265   0.16527   0.21266   0.23301
 Alpha virt. eigenvalues --    0.24584   0.26345   0.27237   0.27716   0.28169
 Alpha virt. eigenvalues --    0.28936   0.30533   0.31509   0.31994   0.32278

 Mulliken charges:
               1
     1  C   -0.297974
     2  C   -0.300298
     3  C   -0.477857
     4  H    0.155484
     5  H    0.154734
     6  H    0.149864
     7  H    0.149606
     8  H    0.156486
     9  H    0.159278
    10  H    0.150976
    11  C   -0.298511
    12  C   -0.299692
    13  C   -0.475543
    14  H    0.147210
    15  H    0.147159
    16  H    0.153868
    17  H    0.154791
    18  H    0.153668
    19  H    0.153663
    20  H    0.160116
    21  C   -0.170397
    22  C   -0.220248
    23  C   -0.168384
    24  C    0.155829
    25  C   -0.170965
    26  C   -0.219025
    27  H    0.225528
    28  H    0.223660
    29  H    0.280448
    30  H    0.275373
    31  H    0.223214
    32  N    0.488105
    33  O   -0.460660
    34  O   -0.459508
 Sum of Mulliken charges =  -0.00000

 Dipole moment (field-independent basis, Debye):
    X=              3.4813    Y=             -3.4507    Z=              1.5449  Tot=              5.1394
 Quadrupole moment (field-independent basis, Debye-Ang):
   XX=            -78.0430   YY=            -97.8361   ZZ=            -92.4676
   XY=             -6.2792   XZ=              6.0817   YZ=              4.2497

 Normal termination of Gaussian 16 at Thu May  6 10:39:38 2021.
