 Gaussian 16, Revision A.03,
 Gaussian 16:  EM64L-G16RevA.03 25-Dec-2016

 -------------
 #p 6-31g* mp2
 -------------

 ------------------------------------------------------
 Input file generated by CHIRIPA (05-May-2021 14:55:21)
 ------------------------------------------------------
 Symbolic Z-matrix:
 Charge =  0 Multiplicity = 1

                         Standard orientation:
 ---------------------------------------------------------------------
 Center     Atomic      Atomic             Coordinates (Angstroms)
 Number     Number       Type             X           Y           Z
 ---------------------------------------------------------------------
      1          6           0       -1.924023    2.133523    0.222322
      2          6           0       -2.509851    1.548817    1.349906
      3          6           0       -3.168023    0.319341    1.251177
      4          6           0       -3.221663   -0.300534    0.003712
      5          6           0       -2.647821    0.256595   -1.138042
      6          6           0       -1.994753    1.486686   -1.015871
      7          1           0       -1.414722    3.088848    0.308122
      8          1           0       -2.456477    2.048885    2.312781
      9          1           0       -3.630227   -0.155757    2.107954
     10          1           0       -2.717429   -0.265857   -2.084413
     11          1           0       -1.540702    1.938425   -1.893261
     12          7           0       -3.915738   -1.602450   -0.113217
     13          8           0       -3.949147   -2.128332   -1.223608
     14          8           0       -4.413203   -2.072359    0.907740
     15          6           0        4.442639   -0.308184    0.408752
     16          6           0        5.396634   -1.194206   -0.393023
     17          6           0        6.321180   -2.024801    0.497550
     18          1           0        5.028517    0.359499    1.055197
     19          1           0        3.840183   -0.939942    1.076078
     20          1           0        5.996144   -0.561097   -1.059639
     21          1           0        4.808420   -1.859725   -1.037776
     22          1           0        5.738316   -2.680101    1.152876
     23          1           0        6.932788   -1.374095    1.130888
     24          1           0        6.994650   -2.650753   -0.096151
     25          6           0        3.511975    0.528247   -0.467590
     26          6           0        2.557979    1.414269    0.334185
     27          6           0        1.633434    2.244865   -0.556387
     28          1           0        4.114430    1.160005   -1.134915
     29          1           0        2.926096   -0.139436   -1.114035
     30          1           0        3.146192    2.079788    0.978938
     31          1           0        1.958469    0.781161    1.000801
     32          1           0        1.021825    1.594158   -1.189726
     33          1           0        2.216298    2.900164   -1.211714
     34          1           0        0.959962    2.870816    0.037313
 ---------------------------------------------------------------------

 SCF Done:  E(RHF) =  -669.534235536     A.U. after   15 cycles
 E2 =    -0.2092365411D+01 EUMP2 =    -0.67162660094725D+03

 The electronic state is 1-A.
 Alpha  occ. eigenvalues --  -20.60760 -20.60755 -15.85814 -11.31170 -11.27752
 Alpha  occ. eigenvalues --  -11.27741 -11.27461 -11.26753 -11.26725 -11.22210
 Alpha  occ. eigenvalues --  -11.21928 -11.21850 -11.21836 -11.21697 -11.21254
 Alpha  occ. eigenvalues --   -1.59836  -1.39390  -1.19352  -1.08862  -1.08737
 Alpha  occ. eigenvalues --   -1.04758  -1.03989  -0.96477  -0.95573  -0.87505
 Alpha  occ. eigenvalues --   -0.86143  -0.82416  -0.80071  -0.78636  -0.77460
 Alpha  occ. eigenvalues --   -0.72032  -0.71161  -0.70487  -0.65483  -0.65001
 Alpha  occ. eigenvalues --   -0.64761  -0.62118  -0.61366  -0.59899  -0.58080
 Alpha  occ. eigenvalues --   -0.55767  -0.55290  -0.53323  -0.52955  -0.52884
 Alpha  occ. eigenvalues --   -0.52761  -0.50369  -0.48794  -0.48787  -0.48370
 Alpha  occ. eigenvalues --   -0.47069  -0.46188  -0.46083  -0.44798  -0.44247
 Alpha  occ. eigenvalues --   -0.37265  -0.36345
 Alpha virt. eigenvalues --    0.05054   0.11226   0.16444   0.20610   0.22596
 Alpha virt. eigenvalues --    0.24095   0.25999   0.26391   0.26566   0.27491
 Alpha virt. eigenvalues --    0.28629   0.29779   0.31212   0.31690   0.32399

 Mulliken charges:
               1
     1  C   -0.166595
     2  C   -0.220500
     3  C   -0.170783
     4  C    0.158323
     5  C   -0.172970
     6  C   -0.217729
     7  H    0.226761
     8  H    0.223287
     9  H    0.275493
    10  H    0.275392
    11  H    0.224750
    12  N    0.488099
    13  O   -0.460617
    14  O   -0.460576
    15  C   -0.298850
    16  C   -0.300128
    17  C   -0.476032
    18  H    0.149636
    19  H    0.151121
    20  H    0.151815
    21  H    0.153243
    22  H    0.156280
    23  H    0.155033
    24  H    0.161330
    25  C   -0.299238
    26  C   -0.299517
    27  C   -0.476837
    28  H    0.149692
    29  H    0.151173
    30  H    0.152406
    31  H    0.154991
    32  H    0.156616
    33  H    0.155798
    34  H    0.149130
 Sum of Mulliken charges =  -0.00000

 Dipole moment (field-independent basis, Debye):
    X=              2.5483    Y=              4.5315    Z=              0.4224  Tot=              5.2160
 Quadrupole moment (field-independent basis, Debye-Ang):
   XX=           -110.9302   YY=            -98.2910   ZZ=            -90.2815
   XY=            -14.8695   XZ=             -2.8898   YZ=              0.3890

 Normal termination of Gaussian 16 at Thu May  6 10:54:53 2021.
