 Gaussian 16, Revision A.03,
 Gaussian 16:  EM64L-G16RevA.03 25-Dec-2016

 -------------
 #p 6-31g* mp2
 -------------

 ------------------------------------------------------
 Input file generated by CHIRIPA (05-May-2021 14:55:24)
 ------------------------------------------------------
 Symbolic Z-matrix:
 Charge =  0 Multiplicity = 1

                         Standard orientation:
 ---------------------------------------------------------------------
 Center     Atomic      Atomic             Coordinates (Angstroms)
 Number     Number       Type             X           Y           Z
 ---------------------------------------------------------------------
      1          6           0       -2.197499    1.946129    1.281260
      2          6           0       -3.072114    1.084502    1.951460
      3          6           0       -3.595605   -0.039331    1.305315
      4          6           0       -3.221550   -0.272333   -0.017214
      5          6           0       -2.352308    0.567416   -0.711858
      6          6           0       -1.841015    1.685296   -0.045920
      7          1           0       -1.795576    2.816838    1.790888
      8          1           0       -3.350710    1.284584    2.982186
      9          1           0       -4.274608   -0.722884    1.800420
     10          1           0       -2.092992    0.341776   -1.739116
     11          1           0       -1.161977    2.352716   -0.568895
     12          7           0       -3.769289   -1.458934   -0.711735
     13          8           0       -3.424209   -1.642099   -1.877071
     14          8           0       -4.533316   -2.183358   -0.077614
     15          6           0        4.563925   -0.414566   -0.231368
     16          6           0        4.728611   -1.383354    0.940090
     17          6           0        5.844551   -2.403238    0.711373
     18          1           0        4.357620   -0.986999   -1.146083
     19          1           0        5.513891    0.111474   -0.399413
     20          1           0        3.778216   -1.906406    1.106761
     21          1           0        4.934358   -0.808537    1.852159
     22          1           0        6.804826   -1.897663    0.566925
     23          1           0        5.642115   -3.001770   -0.182708
     24          1           0        5.944932   -3.085807    1.561009
     25          6           0        3.452141    0.611090   -0.017597
     26          6           0        3.287455    1.579877   -1.189055
     27          6           0        2.171515    2.599761   -0.960338
     28          1           0        2.502174    0.085049    0.150448
     29          1           0        3.658445    1.183522    0.897119
     30          1           0        3.081708    1.005061   -2.101123
     31          1           0        4.237850    2.102930   -1.355726
     32          1           0        2.373951    3.198294   -0.066257
     33          1           0        1.211239    2.094187   -0.815889
     34          1           0        2.071134    3.282330   -1.809974
 ---------------------------------------------------------------------

 SCF Done:  E(RHF) =  -669.535590955     A.U. after   15 cycles
 E2 =    -0.2090971877D+01 EUMP2 =    -0.67162656283201D+03

 The electronic state is 1-A.
 Alpha  occ. eigenvalues --  -20.60771 -20.60766 -15.85825 -11.31190 -11.27766
 Alpha  occ. eigenvalues --  -11.27760 -11.27496 -11.26771 -11.26734 -11.22167
 Alpha  occ. eigenvalues --  -11.21926 -11.21821 -11.21806 -11.21658 -11.21220
 Alpha  occ. eigenvalues --   -1.59847  -1.39400  -1.19364  -1.08820  -1.08755
 Alpha  occ. eigenvalues --   -1.04769  -1.03957  -0.96429  -0.95591  -0.87458
 Alpha  occ. eigenvalues --   -0.86160  -0.82425  -0.80032  -0.78604  -0.77472
 Alpha  occ. eigenvalues --   -0.72043  -0.71171  -0.70466  -0.65460  -0.65014
 Alpha  occ. eigenvalues --   -0.64778  -0.62154  -0.61329  -0.59801  -0.58018
 Alpha  occ. eigenvalues --   -0.55749  -0.55248  -0.53173  -0.53107  -0.52986
 Alpha  occ. eigenvalues --   -0.52672  -0.50355  -0.48803  -0.48798  -0.48333
 Alpha  occ. eigenvalues --   -0.47042  -0.46155  -0.46052  -0.44806  -0.44195
 Alpha  occ. eigenvalues --   -0.37337  -0.36363
 Alpha virt. eigenvalues --    0.05057   0.11204   0.16476   0.20781   0.22591
 Alpha virt. eigenvalues --    0.23962   0.25701   0.26468   0.27290   0.28270
 Alpha virt. eigenvalues --    0.28616   0.30275   0.31210   0.31503   0.32080

 Mulliken charges:
               1
     1  C   -0.171535
     2  C   -0.218631
     3  C   -0.170760
     4  C    0.158528
     5  C   -0.172650
     6  C   -0.221496
     7  H    0.226253
     8  H    0.223464
     9  H    0.275642
    10  H    0.275547
    11  H    0.229561
    12  N    0.488103
    13  O   -0.460530
    14  O   -0.460445
    15  C   -0.298837
    16  C   -0.300125
    17  C   -0.476018
    18  H    0.151573
    19  H    0.149846
    20  H    0.153375
    21  H    0.151205
    22  H    0.155091
    23  H    0.156568
    24  H    0.161132
    25  C   -0.299234
    26  C   -0.299204
    27  C   -0.481876
    28  H    0.151133
    29  H    0.148736
    30  H    0.154473
    31  H    0.154310
    32  H    0.155368
    33  H    0.150035
    34  H    0.161398
 Sum of Mulliken charges =  -0.00000

 Dipole moment (field-independent basis, Debye):
    X=              2.0348    Y=              4.1418    Z=              2.4631  Tot=              5.2308
 Quadrupole moment (field-independent basis, Debye-Ang):
   XX=           -106.2589   YY=            -97.6712   ZZ=            -91.4323
   XY=            -12.4282   XZ=            -10.2426   YZ=             -1.5604

 Normal termination of Gaussian 16 at Thu May  6 07:56:56 2021.
