 Gaussian 16, Revision A.03,
 Gaussian 16:  EM64L-G16RevA.03 25-Dec-2016

 -------------
 #p 6-31g* mp2
 -------------

 ------------------------------------------------------
 Input file generated by CHIRIPA (05-May-2021 14:57:27)
 ------------------------------------------------------
 Symbolic Z-matrix:
 Charge =  0 Multiplicity = 1

                         Standard orientation:
 ---------------------------------------------------------------------
 Center     Atomic      Atomic             Coordinates (Angstroms)
 Number     Number       Type             X           Y           Z
 ---------------------------------------------------------------------
      1          6           0        1.842264   -0.177924    0.824888
      2          6           0        2.216224    0.638583   -0.247489
      3          6           0        3.546203    0.682776   -0.676153
      4          6           0        4.480387   -0.106112   -0.006642
      5          6           0        4.138891   -0.929725    1.064960
      6          6           0        2.803097   -0.958097    1.476541
      7          1           0        0.806847   -0.206109    1.151249
      8          1           0        1.472167    1.245547   -0.755445
      9          1           0        3.863142    1.305970   -1.503557
     10          1           0        4.903133   -1.523489    1.551578
     11          1           0        2.515550   -1.593141    2.309655
     12          7           0        5.891453   -0.067702   -0.451407
     13          8           0        6.695450   -0.772244    0.155097
     14          8           0        6.166732    0.666218   -1.398096
     15          6           0       -5.968246   -1.682477   -0.496013
     16          6           0       -6.373064   -0.410398   -0.078331
     17          6           0       -5.428546    0.591811    0.162526
     18          6           0       -4.081502    0.285969   -0.025152
     19          6           0       -3.646805   -0.971728   -0.440518
     20          6           0       -4.608805   -1.958595   -0.675457
     21          1           0       -6.708760   -2.455058   -0.680818
     22          1           0       -7.428139   -0.193118    0.061850
     23          1           0       -5.714266    1.585178    0.486571
     24          1           0       -2.587840   -1.158365   -0.571590
     25          1           0       -4.291517   -2.945610   -0.999762
     26          7           0       -3.072330    1.338842    0.226699
     27          8           0       -1.891672    1.044103    0.054039
     28          8           0       -3.481108    2.438887    0.591994
 ---------------------------------------------------------------------

 SCF Done:  E(RHF) =  -868.340281056     A.U. after   16 cycles
 E2 =    -0.2598310383D+01 EUMP2 =    -0.87093859143876D+03

 The electronic state is 1-A.
 Alpha  occ. eigenvalues --  -20.61942 -20.61855 -20.60178 -20.60170 -15.86938
 Alpha  occ. eigenvalues --  -15.85223 -11.32027 -11.30420 -11.28589 -11.28533
 Alpha  occ. eigenvalues --  -11.28231 -11.27513 -11.27486 -11.27009 -11.26921
 Alpha  occ. eigenvalues --  -11.26514 -11.25966 -11.25757  -1.60956  -1.59257
 Alpha  occ. eigenvalues --   -1.40523  -1.38815  -1.20168  -1.18556  -1.09608
 Alpha  occ. eigenvalues --   -1.07949  -1.05530  -1.03932  -0.96493  -0.94821
 Alpha  occ. eigenvalues --   -0.86940  -0.85311  -0.83342  -0.81666  -0.78422
 Alpha  occ. eigenvalues --   -0.76763  -0.73181  -0.72257  -0.71443  -0.71269
 Alpha  occ. eigenvalues --   -0.70579  -0.69572  -0.65825  -0.65524  -0.64185
 Alpha  occ. eigenvalues --   -0.63888  -0.62884  -0.61277  -0.56028  -0.54319
 Alpha  occ. eigenvalues --   -0.53871  -0.53616  -0.52281  -0.51991  -0.49935
 Alpha  occ. eigenvalues --   -0.49877  -0.48211  -0.48183  -0.45984  -0.44259
 Alpha  occ. eigenvalues --   -0.38123  -0.37121  -0.36494  -0.35556
 Alpha virt. eigenvalues --    0.04078   0.05758   0.10537   0.12111   0.15618
 Alpha virt. eigenvalues --    0.17311   0.20582   0.22345   0.26522   0.27222
 Alpha virt. eigenvalues --    0.28247   0.29119   0.30513   0.31474   0.32941

 Mulliken charges:
               1
     1  C   -0.176001
     2  C   -0.222241
     3  C   -0.172815
     4  C    0.157607
     5  C   -0.172423
     6  C   -0.219873
     7  H    0.238349
     8  H    0.236646
     9  H    0.273617
    10  H    0.272263
    11  H    0.219321
    12  N    0.488199
    13  O   -0.463156
    14  O   -0.461983
    15  C   -0.169778
    16  C   -0.218346
    17  C   -0.170280
    18  C    0.157975
    19  C   -0.171155
    20  C   -0.218282
    21  H    0.228532
    22  H    0.226225
    23  H    0.277159
    24  H    0.271976
    25  H    0.225683
    26  N    0.492122
    27  O   -0.475626
    28  O   -0.453715
 Sum of Mulliken charges =  -0.00000

 Dipole moment (field-independent basis, Debye):
    X=             -9.1752    Y=             -3.7609    Z=              0.6504  Tot=              9.9374
 Quadrupole moment (field-independent basis, Debye-Ang):
   XX=           -118.0460   YY=           -103.2882   ZZ=           -103.2769
   XY=             11.0099   XZ=             10.7240   YZ=             -1.9514

 Normal termination of Gaussian 16 at Fri May  7 02:02:24 2021.
