 Gaussian 16, Revision A.03,
 Gaussian 16:  EM64L-G16RevA.03 25-Dec-2016

 -------------
 #p 6-31g* mp2
 -------------

 ------------------------------------------------------
 Input file generated by CHIRIPA (05-May-2021 14:51:13)
 ------------------------------------------------------
 Symbolic Z-matrix:
 Charge =  0 Multiplicity = 1

                         Standard orientation:
 ---------------------------------------------------------------------
 Center     Atomic      Atomic             Coordinates (Angstroms)
 Number     Number       Type             X           Y           Z
 ---------------------------------------------------------------------
      1          6           0       -2.843614   -0.509549    0.758442
      2          6           0       -1.350600   -0.545879    0.430455
      3          6           0       -0.536625   -1.322550    1.465839
      4          1           0       -2.983750   -0.058653    1.750410
      5          1           0       -3.222075   -1.538872    0.826681
      6          1           0       -0.975369    0.483227    0.361490
      7          1           0       -1.214016   -0.996567   -0.560929
      8          1           0       -0.883281   -2.359057    1.529743
      9          1           0       -0.643278   -0.870855    2.457403
     10          1           0        0.527875   -1.335886    1.211828
     11          6           0       -3.670614    0.263313   -0.267464
     12          6           0       -5.163627    0.299644    0.060524
     13          6           0       -5.977603    1.076314   -0.974861
     14          1           0       -3.292153    1.292636   -0.335702
     15          1           0       -3.530477   -0.187583   -1.259431
     16          1           0       -5.300212    0.750331    1.051908
     17          1           0       -5.538859   -0.729463    0.129489
     18          1           0       -5.870950    0.624619   -1.966425
     19          1           0       -5.630947    2.112821   -1.038764
     20          1           0       -7.042102    1.089650   -0.720849
     21          6           0        3.599881    0.696321    0.125161
     22          6           0        3.173236    2.078993   -0.368980
     23          6           0        3.867544    3.215420    0.382194
     24          1           0        3.382578    0.614548    1.198957
     25          1           0        4.688888    0.596297    0.018133
     26          1           0        2.085182    2.175864   -0.262339
     27          1           0        3.391403    2.157415   -1.441765
     28          1           0        4.953991    3.146846    0.265870
     29          1           0        3.640348    3.165400    1.451998
     30          1           0        3.547961    4.194896    0.012932
     31          6           0        2.914347   -0.450085   -0.616140
     32          6           0        3.340991   -1.832758   -0.121999
     33          6           0        2.646684   -2.969185   -0.873172
     34          1           0        1.825340   -0.350061   -0.509112
     35          1           0        3.131650   -0.368312   -1.689935
     36          1           0        3.122824   -1.911178    0.950787
     37          1           0        4.429046   -1.929628   -0.228639
     38          1           0        2.873879   -2.919164   -1.942976
     39          1           0        1.560237   -2.900611   -0.756849
     40          1           0        2.966267   -3.948661   -0.503911
 ---------------------------------------------------------------------

 SCF Done:  E(RHF) =  -470.732853386     A.U. after   11 cycles
 E2 =    -0.1583915795D+01 EUMP2 =    -0.47231676918115D+03

 The electronic state is 1-A.
 Alpha  occ. eigenvalues --  -11.21690 -11.21627 -11.21601 -11.21600 -11.21454
 Alpha  occ. eigenvalues --  -11.21390 -11.21386 -11.21320 -11.21111 -11.21089
 Alpha  occ. eigenvalues --  -11.21071 -11.21050  -1.08496  -1.08416  -1.03610
 Alpha  occ. eigenvalues --   -1.03505  -0.96032  -0.95972  -0.87055  -0.86983
 Alpha  occ. eigenvalues --   -0.79649  -0.79586  -0.78324  -0.78207  -0.65147
 Alpha  occ. eigenvalues --   -0.65109  -0.61097  -0.60936  -0.59406  -0.59247
 Alpha  occ. eigenvalues --   -0.57631  -0.57562  -0.55383  -0.55189  -0.52717
 Alpha  occ. eigenvalues --   -0.52667  -0.52469  -0.52381  -0.49994  -0.49878
 Alpha  occ. eigenvalues --   -0.47985  -0.47870  -0.46687  -0.46616  -0.45880
 Alpha  occ. eigenvalues --   -0.45763  -0.45755  -0.45630  -0.43823  -0.43777
 Alpha virt. eigenvalues --    0.20088   0.23076   0.23562   0.24568   0.26095
 Alpha virt. eigenvalues --    0.26521   0.26675   0.27616   0.27916   0.29362
 Alpha virt. eigenvalues --    0.30643   0.31058   0.31603   0.31857   0.32260

 Mulliken charges:
               1
     1  C   -0.298689
     2  C   -0.300939
     3  C   -0.484773
     4  H    0.149918
     5  H    0.149928
     6  H    0.151752
     7  H    0.152716
     8  H    0.155741
     9  H    0.155309
    10  H    0.169143
    11  C   -0.298373
    12  C   -0.299712
    13  C   -0.475741
    14  H    0.149591
    15  H    0.149903
    16  H    0.151975
    17  H    0.152025
    18  H    0.155284
    19  H    0.155237
    20  H    0.160351
    21  C   -0.298168
    22  C   -0.299884
    23  C   -0.475734
    24  H    0.149631
    25  H    0.149669
    26  H    0.151939
    27  H    0.152047
    28  H    0.155250
    29  H    0.155169
    30  H    0.160164
    31  C   -0.306035
    32  C   -0.301963
    33  C   -0.477989
    34  H    0.156706
    35  H    0.150136
    36  H    0.152264
    37  H    0.152926
    38  H    0.155086
    39  H    0.157789
    40  H    0.160351
 Sum of Mulliken charges =  -0.00000

 Dipole moment (field-independent basis, Debye):
    X=             -0.0201    Y=             -0.0035    Z=             -0.0044  Tot=              0.0208
 Quadrupole moment (field-independent basis, Debye-Ang):
   XX=            -84.8728   YY=            -85.1936   ZZ=            -84.6749
   XY=              0.1123   XZ=             -1.1072   YZ=              0.4132

 Normal termination of Gaussian 16 at Thu May  6 03:57:05 2021.
