 Gaussian 16, Revision A.03,
 Gaussian 16:  EM64L-G16RevA.03 25-Dec-2016

 -------------
 #p 6-31g* mp2
 -------------

 ------------------------------------------------------
 Input file generated by CHIRIPA (05-May-2021 14:57:26)
 ------------------------------------------------------
 Symbolic Z-matrix:
 Charge =  0 Multiplicity = 1

                         Standard orientation:
 ---------------------------------------------------------------------
 Center     Atomic      Atomic             Coordinates (Angstroms)
 Number     Number       Type             X           Y           Z
 ---------------------------------------------------------------------
      1          6           0        4.409974    1.503550    0.307404
      2          6           0        3.189895    2.010880   -0.151446
      3          6           0        2.175057    1.146610   -0.572977
      4          6           0        2.415382   -0.225592   -0.522029
      5          6           0        3.620204   -0.761657   -0.070004
      6          6           0        4.620863    0.121337    0.346592
      7          1           0        5.192818    2.182208    0.632942
      8          1           0        3.023322    3.083869   -0.182981
      9          1           0        1.221007    1.512369   -0.932738
     10          1           0        3.756810   -1.836070   -0.050170
     11          1           0        5.567396   -0.275493    0.702466
     12          7           0        1.348523   -1.150466   -0.965673
     13          8           0        1.585107   -2.355321   -0.910993
     14          8           0        0.295937   -0.653016   -1.359680
     15          6           0       -4.259380    1.037603   -1.179890
     16          6           0       -4.092918   -0.348073   -1.086530
     17          6           0       -3.171548   -0.893535   -0.187588
     18          6           0       -2.429941   -0.020077    0.606378
     19          6           0       -2.572970    1.364827    0.536583
     20          6           0       -3.500214    1.888130   -0.369465
     21          1           0       -4.977403    1.452723   -1.880969
     22          1           0       -4.681130   -1.011014   -1.714670
     23          1           0       -3.022541   -1.962464   -0.094820
     24          1           0       -1.972217    2.000288    1.175882
     25          1           0       -3.627379    2.964663   -0.439822
     26          7           0       -1.451418   -0.585804    1.561809
     27          8           0       -0.810214    0.205150    2.250201
     28          8           0       -1.344186   -1.809464    1.604192
 ---------------------------------------------------------------------

 SCF Done:  E(RHF) =  -868.338637978     A.U. after   16 cycles
 E2 =    -0.2601391358D+01 EUMP2 =    -0.87094002933531D+03

 The electronic state is 1-A.
 Alpha  occ. eigenvalues --  -20.60457 -20.60357 -20.60020 -20.59940 -15.85434
 Alpha  occ. eigenvalues --  -15.85013 -11.30682 -11.30250 -11.27298 -11.27236
 Alpha  occ. eigenvalues --  -11.27020 -11.26937 -11.26754 -11.26649 -11.26295
 Alpha  occ. eigenvalues --  -11.26254 -11.25970 -11.25834  -1.59459  -1.59047
 Alpha  occ. eigenvalues --   -1.39027  -1.38608  -1.18853  -1.18434  -1.08281
 Alpha  occ. eigenvalues --   -1.07873  -1.04262  -1.03865  -0.95139  -0.94733
 Alpha  occ. eigenvalues --   -0.85673  -0.85276  -0.81993  -0.81591  -0.77044
 Alpha  occ. eigenvalues --   -0.76635  -0.71722  -0.71263  -0.71043  -0.70011
 Alpha  occ. eigenvalues --   -0.69992  -0.69624  -0.64535  -0.64298  -0.64135
 Alpha  occ. eigenvalues --   -0.63924  -0.61633  -0.61240  -0.54798  -0.54427
 Alpha  occ. eigenvalues --   -0.52567  -0.52383  -0.52141  -0.52000  -0.48454
 Alpha  occ. eigenvalues --   -0.48410  -0.48036  -0.47993  -0.44476  -0.44045
 Alpha  occ. eigenvalues --   -0.36835  -0.36350  -0.35838  -0.35437
 Alpha virt. eigenvalues --    0.05435   0.06019   0.11797   0.12203   0.16987
 Alpha virt. eigenvalues --    0.17450   0.21789   0.22172   0.27599   0.28057
 Alpha virt. eigenvalues --    0.28641   0.29129   0.31179   0.31716   0.32786

 Mulliken charges:
               1
     1  C   -0.169821
     2  C   -0.217450
     3  C   -0.166175
     4  C    0.162868
     5  C   -0.167776
     6  C   -0.218161
     7  H    0.223936
     8  H    0.220080
     9  H    0.270466
    10  H    0.276055
    11  H    0.222469
    12  N    0.491256
    13  O   -0.453185
    14  O   -0.473071
    15  C   -0.170670
    16  C   -0.218393
    17  C   -0.158367
    18  C    0.173158
    19  C   -0.175347
    20  C   -0.219353
    21  H    0.221696
    22  H    0.221647
    23  H    0.278262
    24  H    0.267924
    25  H    0.217288
    26  N    0.487148
    27  O   -0.471683
    28  O   -0.454802
 Sum of Mulliken charges =  -0.00000

 Dipole moment (field-independent basis, Debye):
    X=              0.4551    Y=              4.8465    Z=             -1.8406  Tot=              5.2042
 Quadrupole moment (field-independent basis, Debye-Ang):
   XX=            -69.2449   YY=            -99.4155   ZZ=           -111.8746
   XY=              1.4138   XZ=              9.5443   YZ=             -0.1411

 Normal termination of Gaussian 16 at Wed May  5 19:36:48 2021.
