 Gaussian 16, Revision A.03,
 Gaussian 16:  EM64L-G16RevA.03 25-Dec-2016

 -------------
 #p 6-31g* mp2
 -------------

 ------------------------------------------------------
 Input file generated by CHIRIPA (05-May-2021 14:57:21)
 ------------------------------------------------------
 Symbolic Z-matrix:
 Charge =  0 Multiplicity = 1

                         Standard orientation:
 ---------------------------------------------------------------------
 Center     Atomic      Atomic             Coordinates (Angstroms)
 Number     Number       Type             X           Y           Z
 ---------------------------------------------------------------------
      1          6           0       -1.417438   -1.947257   -0.344189
      2          6           0       -2.741713   -2.369744   -0.500144
      3          6           0       -3.797287   -1.464089   -0.358367
      4          6           0       -3.491005   -0.137468   -0.059105
      5          6           0       -2.182037    0.314018    0.102303
      6          6           0       -1.142311   -0.609083   -0.043993
      7          1           0       -0.603598   -2.657568   -0.456080
      8          1           0       -2.958354   -3.408373   -0.733296
      9          1           0       -4.831708   -1.764206   -0.473784
     10          1           0       -1.997426    1.355842    0.334556
     11          1           0       -0.114828   -0.278148    0.077680
     12          7           0       -4.600104    0.830544    0.093380
     13          8           0       -4.303803    1.993839    0.357170
     14          8           0       -5.744717    0.407646   -0.053780
     15          6           0        4.146050   -2.070311    0.328678
     16          6           0        3.130990   -1.596981    1.166611
     17          6           0        2.659001   -0.287103    1.040145
     18          6           0        3.227213    0.525872    0.060604
     19          6           0        4.239734    0.083446   -0.789307
     20          6           0        4.696212   -1.230069   -0.644891
     21          1           0        4.506678   -3.089268    0.433892
     22          1           0        2.701870   -2.247288    1.923580
     23          1           0        1.874227    0.105068    1.675557
     24          1           0        4.647941    0.755269   -1.534584
     25          1           0        5.484632   -1.594965   -1.297033
     26          7           0        2.735749    1.914506   -0.082781
     27          8           0        3.252858    2.610841   -0.953615
     28          8           0        1.842736    2.280287    0.678381
 ---------------------------------------------------------------------

 SCF Done:  E(RHF) =  -868.337773434     A.U. after   16 cycles
 E2 =    -0.2600875685D+01 EUMP2 =    -0.87093864911849D+03

 The electronic state is 1-A.
 Alpha  occ. eigenvalues --  -20.61739 -20.61698 -20.60488 -20.60466 -15.86761
 Alpha  occ. eigenvalues --  -15.85533 -11.32221 -11.30944 -11.28802 -11.28707
 Alpha  occ. eigenvalues --  -11.28469 -11.27818 -11.27734 -11.27574 -11.27442
 Alpha  occ. eigenvalues --  -11.27361 -11.26624 -11.26498  -1.60784  -1.59556
 Alpha  occ. eigenvalues --   -1.40337  -1.39105  -1.20382  -1.19141  -1.09745
 Alpha  occ. eigenvalues --   -1.08548  -1.05786  -1.04537  -0.96569  -0.95362
 Alpha  occ. eigenvalues --   -0.87177  -0.85950  -0.83388  -0.82182  -0.78447
 Alpha  occ. eigenvalues --   -0.77203  -0.72963  -0.72116  -0.71752  -0.71455
 Alpha  occ. eigenvalues --   -0.70881  -0.70274  -0.66013  -0.65773  -0.64792
 Alpha  occ. eigenvalues --   -0.64573  -0.63112  -0.61851  -0.56240  -0.55105
 Alpha  occ. eigenvalues --   -0.54136  -0.53852  -0.52892  -0.52585  -0.49735
 Alpha  occ. eigenvalues --   -0.49720  -0.48521  -0.48497  -0.45710  -0.44499
 Alpha  occ. eigenvalues --   -0.38343  -0.37399  -0.37166  -0.36146
 Alpha virt. eigenvalues --    0.04050   0.05312   0.10096   0.11466   0.15562
 Alpha virt. eigenvalues --    0.16751   0.20302   0.21794   0.26096   0.26965
 Alpha virt. eigenvalues --    0.28171   0.28382   0.29990   0.30929   0.32259

 Mulliken charges:
               1
     1  C   -0.174060
     2  C   -0.218751
     3  C   -0.171276
     4  C    0.158565
     5  C   -0.172565
     6  C   -0.226799
     7  H    0.220820
     8  H    0.221078
     9  H    0.274858
    10  H    0.285713
    11  H    0.228417
    12  N    0.487787
    13  O   -0.457089
    14  O   -0.462301
    15  C   -0.171609
    16  C   -0.221268
    17  C   -0.184329
    18  C    0.160983
    19  C   -0.170076
    20  C   -0.217321
    21  H    0.228567
    22  H    0.226194
    23  H    0.276394
    24  H    0.279126
    25  H    0.227380
    26  N    0.488442
    27  O   -0.453531
    28  O   -0.463347
 Sum of Mulliken charges =  -0.00000

 Dipole moment (field-independent basis, Debye):
    X=              5.9734    Y=             -8.1280    Z=             -0.0855  Tot=             10.0873
 Quadrupole moment (field-independent basis, Debye-Ang):
   XX=           -116.2210   YY=           -107.0278   ZZ=           -102.8404
   XY=             -0.7063   XZ=              1.0074   YZ=              0.2774

 Normal termination of Gaussian 16 at Thu May  6 04:53:06 2021.
