 Gaussian 16, Revision A.03,
 Gaussian 16:  EM64L-G16RevA.03 25-Dec-2016

 -------------
 #p 6-31g* mp2
 -------------

 ------------------------------------------------------
 Input file generated by CHIRIPA (05-May-2021 14:51:10)
 ------------------------------------------------------
 Symbolic Z-matrix:
 Charge =  0 Multiplicity = 1

                         Standard orientation:
 ---------------------------------------------------------------------
 Center     Atomic      Atomic             Coordinates (Angstroms)
 Number     Number       Type             X           Y           Z
 ---------------------------------------------------------------------
      1          6           0        3.742406    0.717657    0.155558
      2          6           0        3.302003    2.149532   -0.150651
      3          6           0        4.210151    3.197764    0.492987
      4          1           0        3.759808    0.571036    1.244202
      5          1           0        4.773920    0.575716   -0.195478
      6          1           0        2.271144    2.288314    0.199614
      7          1           0        3.285463    2.292704   -1.238697
      8          1           0        5.239031    3.087930    0.135297
      9          1           0        4.218949    3.083515    1.581781
     10          1           0        3.877083    4.214230    0.261205
     11          6           0        2.844358   -0.341609   -0.480991
     12          6           0        3.284761   -1.773484   -0.174782
     13          6           0        2.376614   -2.821716   -0.818420
     14          1           0        1.812844   -0.199668   -0.129955
     15          1           0        2.826956   -0.194987   -1.569634
     16          1           0        3.301302   -1.916655    0.913264
     17          1           0        4.315620   -1.912266   -0.525047
     18          1           0        2.367815   -2.707467   -1.907213
     19          1           0        1.347733   -2.711881   -0.460730
     20          1           0        2.709681   -3.838182   -0.586637
     21          6           0       -3.064686   -0.916229    0.133606
     22          6           0       -1.724526   -1.159152    0.828549
     23          6           0       -1.280386   -2.620687    0.761838
     24          1           0       -3.830532   -1.555067    0.594377
     25          1           0       -2.987156   -1.229279   -0.916814
     26          1           0       -1.804145   -0.844451    1.876995
     27          1           0       -0.961820   -0.519521    0.366198
     28          1           0       -1.173054   -2.943589   -0.278746
     29          1           0       -2.020165   -3.270365    1.240636
     30          1           0       -0.320112   -2.771820    1.264722
     31          6           0       -3.522079    0.540181    0.191826
     32          6           0       -4.862238    0.783103   -0.503116
     33          6           0       -5.306378    2.244639   -0.436406
     34          1           0       -3.599608    0.853230    1.242247
     35          1           0       -2.756232    1.179019   -0.268944
     36          1           0       -5.624944    0.143473   -0.040764
     37          1           0       -4.782618    0.468403   -1.551563
     38          1           0       -4.566599    2.894316   -0.915204
     39          1           0       -5.413709    2.567540    0.604178
     40          1           0       -6.266653    2.395771   -0.939290
 ---------------------------------------------------------------------

 SCF Done:  E(RHF) =  -470.732736830     A.U. after   11 cycles
 E2 =    -0.1583368431D+01 EUMP2 =    -0.47231610526066D+03

 The electronic state is 1-A.
 Alpha  occ. eigenvalues --  -11.21681 -11.21623 -11.21598 -11.21555 -11.21445
 Alpha  occ. eigenvalues --  -11.21393 -11.21384 -11.21333 -11.21131 -11.21087
 Alpha  occ. eigenvalues --  -11.21067 -11.20905  -1.08478  -1.08406  -1.03598
 Alpha  occ. eigenvalues --   -1.03480  -0.96065  -0.95911  -0.87106  -0.86906
 Alpha  occ. eigenvalues --   -0.79669  -0.79537  -0.78292  -0.78221  -0.65169
 Alpha  occ. eigenvalues --   -0.64992  -0.61134  -0.60798  -0.59415  -0.59288
 Alpha  occ. eigenvalues --   -0.57657  -0.57544  -0.55490  -0.55091  -0.52787
 Alpha  occ. eigenvalues --   -0.52624  -0.52454  -0.52317  -0.50147  -0.49676
 Alpha  occ. eigenvalues --   -0.47959  -0.47856  -0.46693  -0.46539  -0.45917
 Alpha  occ. eigenvalues --   -0.45766  -0.45744  -0.45571  -0.43812  -0.43753
 Alpha virt. eigenvalues --    0.20530   0.23153   0.23627   0.24960   0.25532
 Alpha virt. eigenvalues --    0.26813   0.26975   0.27379   0.28448   0.29159
 Alpha virt. eigenvalues --    0.30752   0.31231   0.31475   0.31753   0.32256

 Mulliken charges:
               1
     1  C   -0.298028
     2  C   -0.299701
     3  C   -0.475679
     4  H    0.149676
     5  H    0.149653
     6  H    0.151777
     7  H    0.151773
     8  H    0.155191
     9  H    0.155243
    10  H    0.160204
    11  C   -0.302475
    12  C   -0.298938
    13  C   -0.485729
    14  H    0.152725
    15  H    0.149430
    16  H    0.151086
    17  H    0.151732
    18  H    0.153816
    19  H    0.167920
    20  H    0.159485
    21  C   -0.298340
    22  C   -0.304661
    23  C   -0.480278
    24  H    0.149992
    25  H    0.150176
    26  H    0.152299
    27  H    0.155126
    28  H    0.157308
    29  H    0.156825
    30  H    0.162085
    31  C   -0.298463
    32  C   -0.299711
    33  C   -0.475757
    34  H    0.149501
    35  H    0.149832
    36  H    0.151992
    37  H    0.152099
    38  H    0.155288
    39  H    0.155172
    40  H    0.160355
 Sum of Mulliken charges =  -0.00000

 Dipole moment (field-independent basis, Debye):
    X=             -0.0596    Y=             -0.0100    Z=              0.0110  Tot=              0.0614
 Quadrupole moment (field-independent basis, Debye-Ang):
   XX=            -84.8141   YY=            -86.5424   ZZ=            -83.4775
   XY=              0.1840   XZ=             -1.1267   YZ=             -0.5275

 Normal termination of Gaussian 16 at Wed May  5 18:12:51 2021.
