 Gaussian 16, Revision A.03,
 Gaussian 16:  EM64L-G16RevA.03 25-Dec-2016

 -------------
 #p 6-31g* mp2
 -------------

 ------------------------------------------------------
 Input file generated by CHIRIPA (05-May-2021 14:53:17)
 ------------------------------------------------------
 Symbolic Z-matrix:
 Charge =  0 Multiplicity = 1

                         Standard orientation:
 ---------------------------------------------------------------------
 Center     Atomic      Atomic             Coordinates (Angstroms)
 Number     Number       Type             X           Y           Z
 ---------------------------------------------------------------------
      1          6           0       -3.621346   -0.464919   -0.352561
      2          6           0       -4.686203   -1.324721    0.329206
      3          6           0       -4.537034   -2.812833    0.011299
      4          1           0       -3.677216   -0.616575   -1.439218
      5          1           0       -2.626065   -0.809695   -0.039608
      6          1           0       -5.679211   -0.977534    0.016136
      7          1           0       -4.627918   -1.170854    1.414353
      8          1           0       -3.559510   -3.180763    0.339437
      9          1           0       -4.616775   -2.986344   -1.066725
     10          1           0       -5.308380   -3.408935    0.508841
     11          6           0       -3.757249    1.025138   -0.044360
     12          6           0       -2.692392    1.884940   -0.726128
     13          6           0       -2.841561    3.373052   -0.408221
     14          1           0       -4.752530    1.369914   -0.357313
     15          1           0       -3.701379    1.176794    1.042297
     16          1           0       -2.750677    1.731073   -1.811275
     17          1           0       -1.699384    1.537752   -0.413057
     18          1           0       -2.761820    3.546562    0.669804
     19          1           0       -3.819086    3.740981   -0.736358
     20          1           0       -2.070215    3.969154   -0.905762
     21          6           0        0.465271   -0.394537    0.857329
     22          6           0        1.243097    0.684713    1.289450
     23          6           0        2.583380    0.792278    0.906539
     24          6           0        3.115930   -0.201849    0.087154
     25          6           0        2.366738   -1.289152   -0.359808
     26          6           0        1.028580   -1.376294    0.035527
     27          1           0       -0.575067   -0.470163    1.159609
     28          1           0        0.808277    1.448636    1.927727
     29          1           0        3.208290    1.617191    1.226575
     30          1           0        2.828147   -2.035095   -0.995487
     31          1           0        0.426894   -2.215564   -0.301583
     32          7           0        4.533701   -0.098785   -0.324795
     33          8           0        4.979273   -0.987760   -1.047171
     34          8           0        5.172533    0.869018    0.082498
 ---------------------------------------------------------------------

 SCF Done:  E(RHF) =  -669.535274047     A.U. after   15 cycles
 E2 =    -0.2092386903D+01 EUMP2 =    -0.67162766095012D+03

 The electronic state is 1-A.
 Alpha  occ. eigenvalues --  -20.60781 -20.60776 -15.85835 -11.31219 -11.27785
 Alpha  occ. eigenvalues --  -11.27780 -11.27517 -11.26814 -11.26796 -11.22525
 Alpha  occ. eigenvalues --  -11.22457 -11.22378 -11.22287 -11.21941 -11.21763
 Alpha  occ. eigenvalues --   -1.59856  -1.39409  -1.19393  -1.09376  -1.08785
 Alpha  occ. eigenvalues --   -1.04794  -1.04378  -0.96841  -0.95621  -0.87848
 Alpha  occ. eigenvalues --   -0.86192  -0.82451  -0.80439  -0.79194  -0.77489
 Alpha  occ. eigenvalues --   -0.72053  -0.71179  -0.70544  -0.66026  -0.65046
 Alpha  occ. eigenvalues --   -0.64782  -0.62144  -0.61781  -0.60195  -0.58443
 Alpha  occ. eigenvalues --   -0.56198  -0.55272  -0.53487  -0.53253  -0.53122
 Alpha  occ. eigenvalues --   -0.52884  -0.50793  -0.48814  -0.48808  -0.48750
 Alpha  occ. eigenvalues --   -0.47496  -0.46698  -0.46651  -0.44811  -0.44660
 Alpha  occ. eigenvalues --   -0.37338  -0.36394
 Alpha virt. eigenvalues --    0.05001   0.11194   0.16365   0.18973   0.22994
 Alpha virt. eigenvalues --    0.23191   0.25358   0.26283   0.26848   0.27379
 Alpha virt. eigenvalues --    0.30038   0.30480   0.30983   0.31347   0.31964

 Mulliken charges:
               1
     1  C   -0.300696
     2  C   -0.300234
     3  C   -0.475289
     4  H    0.154657
     5  H    0.138255
     6  H    0.156237
     7  H    0.151418
     8  H    0.149972
     9  H    0.157604
    10  H    0.164105
    11  C   -0.299498
    12  C   -0.304518
    13  C   -0.475994
    14  H    0.154178
    15  H    0.146467
    16  H    0.155693
    17  H    0.150735
    18  H    0.152394
    19  H    0.157851
    20  H    0.163664
    21  C   -0.172059
    22  C   -0.219874
    23  C   -0.170701
    24  C    0.158638
    25  C   -0.170897
    26  C   -0.220637
    27  H    0.231284
    28  H    0.224159
    29  H    0.275799
    30  H    0.275876
    31  H    0.223923
    32  N    0.488030
    33  O   -0.460261
    34  O   -0.460282
 Sum of Mulliken charges =  -0.00000

 Dipole moment (field-independent basis, Debye):
    X=             -5.1354    Y=             -0.3358    Z=              1.3671  Tot=              5.3248
 Quadrupole moment (field-independent basis, Debye-Ang):
   XX=           -125.2648   YY=            -92.1775   ZZ=            -93.0669
   XY=              0.2357   XZ=              5.1646   YZ=              1.9412

 Normal termination of Gaussian 16 at Thu May  6 09:07:28 2021.
