 Gaussian 16, Revision A.03,
 Gaussian 16:  EM64L-G16RevA.03 25-Dec-2016

 -------------
 #p 6-31g* mp2
 -------------

 ------------------------------------------------------
 Input file generated by CHIRIPA (05-May-2021 14:57:27)
 ------------------------------------------------------
 Symbolic Z-matrix:
 Charge =  0 Multiplicity = 1

                         Standard orientation:
 ---------------------------------------------------------------------
 Center     Atomic      Atomic             Coordinates (Angstroms)
 Number     Number       Type             X           Y           Z
 ---------------------------------------------------------------------
      1          6           0        5.733734    1.582787   -0.159792
      2          6           0        4.412801    2.041979   -0.188070
      3          6           0        3.346271    1.138543   -0.158648
      4          6           0        3.638309   -0.223311   -0.100710
      5          6           0        4.943602   -0.711816   -0.071342
      6          6           0        5.994459    0.209776   -0.101621
      7          1           0        6.556153    2.291649   -0.182980
      8          1           0        4.207334    3.107712   -0.233244
      9          1           0        2.314133    1.466681   -0.179486
     10          1           0        5.116972   -1.780147   -0.026290
     11          1           0        7.019316   -0.149706   -0.079549
     12          7           0        2.517518   -1.189349   -0.069109
     13          8           0        2.801355   -2.384116   -0.018082
     14          8           0        1.376426   -0.733469   -0.095965
     15          6           0       -6.178641    0.696228   -0.540166
     16          6           0       -5.300043    1.671053   -0.056118
     17          6           0       -3.992603    1.332196    0.304887
     18          6           0       -3.595297    0.002985    0.168379
     19          6           0       -4.447183   -0.991005   -0.310750
     20          6           0       -5.750163   -0.629353   -0.665714
     21          1           0       -7.192560    0.968314   -0.818257
     22          1           0       -5.630067    2.701303    0.042441
     23          1           0       -3.291701    2.066802    0.682390
     24          1           0       -4.089353   -2.009723   -0.397869
     25          1           0       -6.430322   -1.388519   -1.041341
     26          7           0       -2.213530   -0.367814    0.547363
     27          8           0       -1.887855   -1.545847    0.417702
     28          8           0       -1.482339    0.526608    0.966893
 ---------------------------------------------------------------------

 SCF Done:  E(RHF) =  -868.334624291     A.U. after   15 cycles
 E2 =    -0.2601041628D+01 EUMP2 =    -0.87093566591938D+03

 The electronic state is 1-A.
 Alpha  occ. eigenvalues --  -20.59644 -20.59578 -20.59381 -20.59248 -15.84693
 Alpha  occ. eigenvalues --  -15.84376 -11.30489 -11.30183 -11.27132 -11.27081
 Alpha  occ. eigenvalues --  -11.26927 -11.26837 -11.26767 -11.26665 -11.26233
 Alpha  occ. eigenvalues --  -11.26198 -11.25948 -11.25922  -1.58658  -1.58398
 Alpha  occ. eigenvalues --   -1.38216  -1.37935  -1.18698  -1.18408  -1.08009
 Alpha  occ. eigenvalues --   -1.07727  -1.04167  -1.03874  -0.94777  -0.94473
 Alpha  occ. eigenvalues --   -0.85545  -0.85252  -0.81617  -0.81303  -0.76585
 Alpha  occ. eigenvalues --   -0.76274  -0.70895  -0.70618  -0.69971  -0.69805
 Alpha  occ. eigenvalues --   -0.69756  -0.69512  -0.64343  -0.64178  -0.64038
 Alpha  occ. eigenvalues --   -0.63887  -0.61512  -0.61210  -0.54651  -0.54379
 Alpha  occ. eigenvalues --   -0.52471  -0.52266  -0.52187  -0.51973  -0.47809
 Alpha  occ. eigenvalues --   -0.47657  -0.47297  -0.47137  -0.43536  -0.43229
 Alpha  occ. eigenvalues --   -0.36702  -0.36426  -0.35791  -0.35500
 Alpha virt. eigenvalues --    0.05957   0.06261   0.11857   0.12148   0.17375
 Alpha virt. eigenvalues --    0.17667   0.21933   0.22216   0.27812   0.28092
 Alpha virt. eigenvalues --    0.28853   0.29172   0.31445   0.31729   0.33110

 Mulliken charges:
               1
     1  C   -0.172317
     2  C   -0.218991
     3  C   -0.171930
     4  C    0.158557
     5  C   -0.171940
     6  C   -0.218824
     7  H    0.221725
     8  H    0.220113
     9  H    0.281319
    10  H    0.273981
    11  H    0.219988
    12  N    0.486049
    13  O   -0.467193
    14  O   -0.441592
    15  C   -0.172286
    16  C   -0.218451
    17  C   -0.172061
    18  C    0.160221
    19  C   -0.171397
    20  C   -0.218485
    21  H    0.222887
    22  H    0.220270
    23  H    0.272499
    24  H    0.276955
    25  H    0.221714
    26  N    0.488095
    27  O   -0.447062
    28  O   -0.461842
 Sum of Mulliken charges =  -0.00000

 Dipole moment (field-independent basis, Debye):
    X=             -1.0773    Y=              4.5304    Z=             -1.4061  Tot=              4.8644
 Quadrupole moment (field-independent basis, Debye-Ang):
   XX=            -43.2343   YY=            -99.6446   ZZ=           -106.7603
   XY=              5.3947   XZ=              3.7690   YZ=              1.0892

 Normal termination of Gaussian 16 at Thu May  6 05:14:36 2021.
