 Gaussian 16, Revision A.03,
 Gaussian 16:  EM64L-G16RevA.03 25-Dec-2016

 -------------
 #p 6-31g* mp2
 -------------

 ------------------------------------------------------
 Input file generated by CHIRIPA (05-May-2021 14:51:14)
 ------------------------------------------------------
 Symbolic Z-matrix:
 Charge =  0 Multiplicity = 1

                         Standard orientation:
 ---------------------------------------------------------------------
 Center     Atomic      Atomic             Coordinates (Angstroms)
 Number     Number       Type             X           Y           Z
 ---------------------------------------------------------------------
      1          6           0       -2.815199   -0.708360    0.225322
      2          6           0       -4.011822   -0.672312   -0.725876
      3          6           0       -4.364667   -2.051156   -1.284520
      4          1           0       -1.946844   -1.124437   -0.303624
      5          1           0       -3.035052   -1.395504    1.054112
      6          1           0       -3.790325    0.015618   -1.551895
      7          1           0       -4.877379   -0.256095   -0.194660
      8          1           0       -4.611716   -2.743743   -0.473415
      9          1           0       -3.518485   -2.470486   -1.838361
     10          1           0       -5.222818   -2.002234   -1.962047
     11          6           0       -2.450282    0.662548    0.792046
     12          6           0       -1.253659    0.626500    1.743244
     13          6           0       -0.900814    2.005344    2.301888
     14          1           0       -2.230430    1.349692   -0.036744
     15          1           0       -3.318638    1.078624    1.320992
     16          1           0       -0.388102    0.210283    1.212029
     17          1           0       -1.475156   -0.061430    2.569263
     18          1           0       -1.746996    2.424674    2.855729
     19          1           0       -0.653766    2.697931    1.490783
     20          1           0       -0.042663    1.956421    2.979416
     21          6           0        2.858755   -0.706306   -0.533160
     22          6           0        3.542366   -1.172730    0.752574
     23          6           0        3.988833   -2.633661    0.688234
     24          1           0        1.989839   -1.348303   -0.732582
     25          1           0        3.548693   -0.842992   -1.377374
     26          1           0        2.851843   -1.033914    1.594313
     27          1           0        4.409643   -0.529427    0.949060
     28          1           0        4.697418   -2.784143   -0.132658
     29          1           0        3.130767   -3.291497    0.516261
     30          1           0        4.475014   -2.946180    1.617654
     31          6           0        2.406726    0.752119   -0.484208
     32          6           0        1.723116    1.218542   -1.769942
     33          6           0        1.276649    2.679473   -1.705603
     34          1           0        1.716788    0.888805    0.360006
     35          1           0        3.275642    1.394117   -0.284786
     36          1           0        0.855838    0.575239   -1.966429
     37          1           0        2.413638    1.079727   -2.611682
     38          1           0        2.134714    3.337310   -1.533630
     39          1           0        0.568064    2.829956   -0.884711
     40          1           0        0.790468    2.991992   -2.635022
 ---------------------------------------------------------------------

 SCF Done:  E(RHF) =  -470.733154683     A.U. after   11 cycles
 E2 =    -0.1584091699D+01 EUMP2 =    -0.47231724638168D+03

 The electronic state is 1-A.
 Alpha  occ. eigenvalues --  -11.21666 -11.21654 -11.21640 -11.21615 -11.21465
 Alpha  occ. eigenvalues --  -11.21422 -11.21406 -11.21356 -11.21145 -11.21128
 Alpha  occ. eigenvalues --  -11.21102 -11.21077  -1.08514  -1.08439  -1.03608
 Alpha  occ. eigenvalues --   -1.03543  -0.96038  -0.96009  -0.87059  -0.87019
 Alpha  occ. eigenvalues --   -0.79655  -0.79623  -0.78335  -0.78244  -0.65402
 Alpha  occ. eigenvalues --   -0.64862  -0.61172  -0.60766  -0.59409  -0.59372
 Alpha  occ. eigenvalues --   -0.57704  -0.57569  -0.55334  -0.55307  -0.52727
 Alpha  occ. eigenvalues --   -0.52703  -0.52492  -0.52408  -0.50096  -0.49854
 Alpha  occ. eigenvalues --   -0.48045  -0.47889  -0.46713  -0.46647  -0.46022
 Alpha  occ. eigenvalues --   -0.45780  -0.45770  -0.45463  -0.43840  -0.43811
 Alpha virt. eigenvalues --    0.18786   0.22711   0.23272   0.24928   0.25556
 Alpha virt. eigenvalues --    0.26052   0.26661   0.28173   0.29097   0.29372
 Alpha virt. eigenvalues --    0.30132   0.31653   0.31695   0.32024   0.32242

 Mulliken charges:
               1
     1  C   -0.298466
     2  C   -0.299754
     3  C   -0.475760
     4  H    0.149041
     5  H    0.149772
     6  H    0.152198
     7  H    0.152146
     8  H    0.155235
     9  H    0.155164
    10  H    0.160473
    11  C   -0.298914
    12  C   -0.306017
    13  C   -0.479406
    14  H    0.150334
    15  H    0.150124
    16  H    0.156416
    17  H    0.152533
    18  H    0.155928
    19  H    0.158246
    20  H    0.160801
    21  C   -0.298503
    22  C   -0.299948
    23  C   -0.475730
    24  H    0.149097
    25  H    0.149787
    26  H    0.152186
    27  H    0.152078
    28  H    0.155163
    29  H    0.155333
    30  H    0.160346
    31  C   -0.305924
    32  C   -0.299632
    33  C   -0.480197
    34  H    0.157470
    35  H    0.150157
    36  H    0.151109
    37  H    0.152429
    38  H    0.155867
    39  H    0.158434
    40  H    0.160383
 Sum of Mulliken charges =  -0.00000

 Dipole moment (field-independent basis, Debye):
    X=             -0.0066    Y=              0.0107    Z=              0.0176  Tot=              0.0216
 Quadrupole moment (field-independent basis, Debye-Ang):
   XX=            -83.7377   YY=            -86.6002   ZZ=            -84.2484
   XY=              0.4265   XZ=             -1.0792   YZ=             -0.5596

 Normal termination of Gaussian 16 at Thu May  6 04:01:45 2021.
