 Gaussian 16, Revision A.03,
 Gaussian 16:  EM64L-G16RevA.03 25-Dec-2016

 -------------
 #p 6-31g* mp2
 -------------

 ------------------------------------------------------
 Input file generated by CHIRIPA (05-May-2021 14:53:17)
 ------------------------------------------------------
 Symbolic Z-matrix:
 Charge =  0 Multiplicity = 1

                         Standard orientation:
 ---------------------------------------------------------------------
 Center     Atomic      Atomic             Coordinates (Angstroms)
 Number     Number       Type             X           Y           Z
 ---------------------------------------------------------------------
      1          6           0       -2.719355   -0.739451   -0.516056
      2          6           0       -1.559482   -1.417892    0.213600
      3          6           0       -0.350860   -1.657578   -0.691705
      4          1           0       -3.018133   -1.359258   -1.372511
      5          1           0       -2.373610    0.218371   -0.928892
      6          1           0       -1.907682   -2.373506    0.626121
      7          1           0       -1.263557   -0.796491    1.068530
      8          1           0        0.023789   -0.710350   -1.092950
      9          1           0       -0.623997   -2.296325   -1.537873
     10          1           0        0.466546   -2.143460   -0.149832
     11          6           0       -3.934955   -0.493136    0.375782
     12          6           0       -5.094828    0.185304   -0.353875
     13          6           0       -6.303449    0.424991    0.551431
     14          1           0       -4.280700   -1.450958    0.788617
     15          1           0       -3.636177    0.126671    1.232237
     16          1           0       -5.390753   -0.436096   -1.208805
     17          1           0       -4.746627    1.140919   -0.766396
     18          1           0       -6.030313    1.063737    1.397598
     19          1           0       -6.678098   -0.522238    0.952675
     20          1           0       -7.120856    0.910872    0.009558
     21          6           0        1.019754    2.426435   -0.241819
     22          6           0        1.551645    1.779488   -1.362119
     23          6           0        2.427798    0.700753   -1.209686
     24          6           0        2.752048    0.293448    0.083471
     25          6           0        2.238637    0.917562    1.219332
     26          6           0        1.364340    1.994169    1.043066
     27          1           0        0.339858    3.263596   -0.369489
     28          1           0        1.285798    2.113030   -2.361179
     29          1           0        2.854151    0.181860   -2.059622
     30          1           0        2.522230    0.562294    2.202580
     31          1           0        0.952795    2.494705    1.914926
     32          7           0        3.678610   -0.847434    0.257459
     33          8           0        3.948585   -1.187039    1.407423
     34          8           0        4.117329   -1.380448   -0.759428
 ---------------------------------------------------------------------

 SCF Done:  E(RHF) =  -669.534297898     A.U. after   15 cycles
 E2 =    -0.2094040422D+01 EUMP2 =    -0.67162833831989D+03

 The electronic state is 1-A.
 Alpha  occ. eigenvalues --  -20.60811 -20.60803 -15.85863 -11.31228 -11.27862
 Alpha  occ. eigenvalues --  -11.27804 -11.27624 -11.26888 -11.26849 -11.21900
 Alpha  occ. eigenvalues --  -11.21657 -11.21633 -11.21562 -11.21351 -11.20877
 Alpha  occ. eigenvalues --   -1.59885  -1.39437  -1.19460  -1.08841  -1.08626
 Alpha  occ. eigenvalues --   -1.04874  -1.03671  -0.96126  -0.95664  -0.87145
 Alpha  occ. eigenvalues --   -0.86254  -0.82499  -0.79755  -0.78448  -0.77535
 Alpha  occ. eigenvalues --   -0.72084  -0.71213  -0.70562  -0.65273  -0.65106
 Alpha  occ. eigenvalues --   -0.64862  -0.62206  -0.61117  -0.59499  -0.57739
 Alpha  occ. eigenvalues --   -0.55614  -0.55366  -0.53277  -0.52950  -0.52741
 Alpha  occ. eigenvalues --   -0.52427  -0.49971  -0.48844  -0.48835  -0.48050
 Alpha  occ. eigenvalues --   -0.46785  -0.45975  -0.45922  -0.44835  -0.43949
 Alpha  occ. eigenvalues --   -0.37413  -0.36380
 Alpha virt. eigenvalues --    0.04977   0.11137   0.16432   0.21283   0.22629
 Alpha virt. eigenvalues --    0.24123   0.26415   0.27027   0.27377   0.27821
 Alpha virt. eigenvalues --    0.28334   0.30779   0.31329   0.31710   0.31828

 Mulliken charges:
               1
     1  C   -0.297551
     2  C   -0.297960
     3  C   -0.483118
     4  H    0.150426
     5  H    0.144281
     6  H    0.153026
     7  H    0.148984
     8  H    0.160309
     9  H    0.154112
    10  H    0.161842
    11  C   -0.297869
    12  C   -0.299177
    13  C   -0.475591
    14  H    0.151448
    15  H    0.147033
    16  H    0.153023
    17  H    0.148666
    18  H    0.154028
    19  H    0.156601
    20  H    0.160403
    21  C   -0.170312
    22  C   -0.219775
    23  C   -0.173877
    24  C    0.166239
    25  C   -0.171164
    26  C   -0.218409
    27  H    0.226152
    28  H    0.224379
    29  H    0.276537
    30  H    0.276179
    31  H    0.223931
    32  N    0.487844
    33  O   -0.460739
    34  O   -0.459899
 Sum of Mulliken charges =  -0.00000

 Dipole moment (field-independent basis, Debye):
    X=             -3.1618    Y=              4.0292    Z=             -0.6169  Tot=              5.1587
 Quadrupole moment (field-independent basis, Debye-Ang):
   XX=           -114.2965   YY=            -92.2364   ZZ=            -90.1436
   XY=             10.7958   XZ=             -1.8853   YZ=              0.7587

 Normal termination of Gaussian 16 at Thu May  6 07:34:46 2021.
