 Gaussian 16, Revision A.03,
 Gaussian 16:  EM64L-G16RevA.03 25-Dec-2016

 -------------
 #p 6-31g* mp2
 -------------

 ------------------------------------------------------
 Input file generated by CHIRIPA (05-May-2021 14:55:23)
 ------------------------------------------------------
 Symbolic Z-matrix:
 Charge =  0 Multiplicity = 1

                         Standard orientation:
 ---------------------------------------------------------------------
 Center     Atomic      Atomic             Coordinates (Angstroms)
 Number     Number       Type             X           Y           Z
 ---------------------------------------------------------------------
      1          6           0       -3.861282   -2.136288   -0.692832
      2          6           0       -2.667779   -1.871920   -0.012992
      3          6           0       -2.327580   -0.563083    0.341635
      4          6           0       -3.208108    0.461941   -0.000836
      5          6           0       -4.404482    0.230576   -0.677925
      6          6           0       -4.724302   -1.086048   -1.022547
      7          1           0       -4.117641   -3.156048   -0.964428
      8          1           0       -1.995633   -2.685574    0.244361
      9          1           0       -1.410015   -0.330155    0.868166
     10          1           0       -5.054357    1.062480   -0.920856
     11          1           0       -5.651863   -1.288397   -1.550496
     12          7           0       -2.858742    1.851670    0.369296
     13          8           0       -3.651502    2.737147    0.056088
     14          8           0       -1.798763    2.029148    0.965605
     15          6           0        4.943359   -0.272586    0.065509
     16          6           0        5.497130    0.831690   -0.835545
     17          6           0        7.025541    0.870028   -0.852385
     18          1           0        5.319173   -0.126151    1.087402
     19          1           0        5.331678   -1.242701   -0.274318
     20          1           0        5.106782    1.799291   -0.494968
     21          1           0        5.119800    0.682718   -1.855371
     22          1           0        7.430803   -0.080958   -1.212924
     23          1           0        7.417711    1.041959    0.155208
     24          1           0        7.400007    1.666723   -1.502702
     25          6           0        3.416802   -0.323631    0.092796
     26          6           0        2.863032   -1.427907    0.993849
     27          6           0        1.334620   -1.466245    1.010689
     28          1           0        3.028484    0.646484    0.432622
     29          1           0        3.040987   -0.470067   -0.929097
     30          1           0        3.240361   -1.278936    2.013675
     31          1           0        3.253379   -2.395509    0.653272
     32          1           0        0.942450   -1.638176    0.003096
     33          1           0        0.929358   -0.515260    1.371229
     34          1           0        0.960154   -2.262941    1.661006
 ---------------------------------------------------------------------

 SCF Done:  E(RHF) =  -669.535652434     A.U. after   15 cycles
 E2 =    -0.2091474761D+01 EUMP2 =    -0.67162712719470D+03

 The electronic state is 1-A.
 Alpha  occ. eigenvalues --  -20.60713 -20.60708 -15.85762 -11.31072 -11.27668
 Alpha  occ. eigenvalues --  -11.27578 -11.27408 -11.26678 -11.26634 -11.21949
 Alpha  occ. eigenvalues --  -11.21735 -11.21560 -11.21481 -11.21402 -11.21026
 Alpha  occ. eigenvalues --   -1.59786  -1.39342  -1.19256  -1.08665  -1.08555
 Alpha  occ. eigenvalues --   -1.04653  -1.03728  -0.96214  -0.95502  -0.87255
 Alpha  occ. eigenvalues --   -0.86052  -0.82336  -0.79819  -0.78331  -0.77373
 Alpha  occ. eigenvalues --   -0.71984  -0.71107  -0.70374  -0.65183  -0.64909
 Alpha  occ. eigenvalues --   -0.64662  -0.62019  -0.61118  -0.59588  -0.57787
 Alpha  occ. eigenvalues --   -0.55502  -0.55172  -0.53026  -0.52941  -0.52860
 Alpha  occ. eigenvalues --   -0.52451  -0.50135  -0.48740  -0.48737  -0.48098
 Alpha  occ. eigenvalues --   -0.46798  -0.45883  -0.45772  -0.44757  -0.43965
 Alpha  occ. eigenvalues --   -0.37251  -0.36247
 Alpha virt. eigenvalues --    0.05132   0.11395   0.16598   0.20699   0.22814
 Alpha virt. eigenvalues --    0.24060   0.25670   0.26350   0.27377   0.28043
 Alpha virt. eigenvalues --    0.29365   0.29579   0.31284   0.31624   0.32274

 Mulliken charges:
               1
     1  C   -0.170597
     2  C   -0.224303
     3  C   -0.177047
     4  C    0.157897
     5  C   -0.170228
     6  C   -0.219249
     7  H    0.225082
     8  H    0.225139
     9  H    0.288597
    10  H    0.275159
    11  H    0.222940
    12  N    0.487589
    13  O   -0.460606
    14  O   -0.461862
    15  C   -0.298731
    16  C   -0.300162
    17  C   -0.475863
    18  H    0.150455
    19  H    0.148356
    20  H    0.154829
    21  H    0.151901
    22  H    0.154329
    23  H    0.155519
    24  H    0.160998
    25  C   -0.300224
    26  C   -0.298538
    27  C   -0.489676
    28  H    0.156468
    29  H    0.149459
    30  H    0.155196
    31  H    0.151717
    32  H    0.153800
    33  H    0.164843
    34  H    0.156814
 Sum of Mulliken charges =  -0.00000

 Dipole moment (field-independent basis, Debye):
    X=             -1.0644    Y=             -4.8293    Z=             -1.2830  Tot=              5.1089
 Quadrupole moment (field-independent basis, Debye-Ang):
   XX=            -84.4424   YY=            -99.1258   ZZ=            -94.0032
   XY=             13.7448   XZ=              6.5326   YZ=             -0.7743

 Normal termination of Gaussian 16 at Wed May  5 16:03:17 2021.
