 Gaussian 16, Revision A.03,
 Gaussian 16:  EM64L-G16RevA.03 25-Dec-2016

 -------------
 #p 6-31g* mp2
 -------------

 ------------------------------------------------------
 Input file generated by CHIRIPA (05-May-2021 14:55:24)
 ------------------------------------------------------
 Symbolic Z-matrix:
 Charge =  0 Multiplicity = 1

                         Standard orientation:
 ---------------------------------------------------------------------
 Center     Atomic      Atomic             Coordinates (Angstroms)
 Number     Number       Type             X           Y           Z
 ---------------------------------------------------------------------
      1          6           0       -2.999610    2.762289   -0.026663
      2          6           0       -1.888177    1.963743   -0.315735
      3          6           0       -1.997511    0.569986   -0.321516
      4          6           0       -3.238997    0.005669   -0.032464
      5          6           0       -4.364725    0.774333    0.259393
      6          6           0       -4.232164    2.166086    0.259474
      7          1           0       -2.905655    3.844214   -0.024386
      8          1           0       -0.929714    2.424016   -0.538320
      9          1           0       -1.153295   -0.071998   -0.541911
     10          1           0       -5.307049    0.286571    0.477411
     11          1           0       -5.097018    2.783755    0.484327
     12          7           0       -3.367039   -1.468778   -0.035567
     13          8           0       -4.471865   -1.941509    0.222351
     14          8           0       -2.360147   -2.123801   -0.295859
     15          6           0        3.554408   -0.679461    0.407427
     16          6           0        2.418865   -1.123448   -0.515286
     17          6           0        1.297039   -1.844498    0.232637
     18          1           0        3.962669   -1.558321    0.924992
     19          1           0        3.147976   -0.019068    1.185944
     20          1           0        2.827551   -1.781701   -1.292650
     21          1           0        2.013386   -0.243455   -1.030859
     22          1           0        0.862138   -1.192147    0.996771
     23          1           0        1.680928   -2.739133    0.733492
     24          1           0        0.495758   -2.153102   -0.446019
     25          6           0        4.683400    0.042851   -0.325629
     26          6           0        5.818943    0.486838    0.597086
     27          6           0        6.940769    1.207886   -0.150838
     28          1           0        5.089832   -0.617544   -1.104145
     29          1           0        4.275139    0.921710   -0.843193
     30          1           0        6.224422   -0.393157    1.112658
     31          1           0        5.410257    1.145090    1.374450
     32          1           0        6.556879    2.102522   -0.651693
     33          1           0        7.375670    0.555537   -0.914972
     34          1           0        7.742050    1.516491    0.527817
 ---------------------------------------------------------------------

 SCF Done:  E(RHF) =  -669.535632890     A.U. after   15 cycles
 E2 =    -0.2091692549D+01 EUMP2 =    -0.67162732543882D+03

 The electronic state is 1-A.
 Alpha  occ. eigenvalues --  -20.60808 -20.60802 -15.85854 -11.31188 -11.27766
 Alpha  occ. eigenvalues --  -11.27724 -11.27511 -11.26779 -11.26766 -11.21718
 Alpha  occ. eigenvalues --  -11.21643 -11.21508 -11.21429 -11.21195 -11.20706
 Alpha  occ. eigenvalues --   -1.59878  -1.39433  -1.19365  -1.08769  -1.08507
 Alpha  occ. eigenvalues --   -1.04766  -1.03557  -0.95981  -0.95598  -0.86979
 Alpha  occ. eigenvalues --   -0.86162  -0.82443  -0.79617  -0.78327  -0.77487
 Alpha  occ. eigenvalues --   -0.72085  -0.71195  -0.70480  -0.65165  -0.65023
 Alpha  occ. eigenvalues --   -0.64770  -0.62152  -0.60948  -0.59316  -0.57578
 Alpha  occ. eigenvalues --   -0.55371  -0.55180  -0.53098  -0.52899  -0.52557
 Alpha  occ. eigenvalues --   -0.52376  -0.49922  -0.48829  -0.48826  -0.47909
 Alpha  occ. eigenvalues --   -0.46686  -0.45861  -0.45807  -0.44843  -0.43757
 Alpha  occ. eigenvalues --   -0.37351  -0.36366
 Alpha virt. eigenvalues --    0.05034   0.11261   0.16533   0.20314   0.22860
 Alpha virt. eigenvalues --    0.23868   0.26298   0.27034   0.27402   0.27795
 Alpha virt. eigenvalues --    0.29333   0.30904   0.31466   0.31741   0.31979

 Mulliken charges:
               1
     1  C   -0.170327
     2  C   -0.221626
     3  C   -0.175280
     4  C    0.155965
     5  C   -0.170194
     6  C   -0.219027
     7  H    0.225558
     8  H    0.223449
     9  H    0.287824
    10  H    0.275556
    11  H    0.223434
    12  N    0.491275
    13  O   -0.460036
    14  O   -0.464819
    15  C   -0.297640
    16  C   -0.301161
    17  C   -0.487849
    18  H    0.152186
    19  H    0.147042
    20  H    0.154834
    21  H    0.140670
    22  H    0.149038
    23  H    0.159617
    24  H    0.182952
    25  C   -0.297586
    26  C   -0.299552
    27  C   -0.475585
    28  H    0.150764
    29  H    0.146164
    30  H    0.153217
    31  H    0.150830
    32  H    0.153859
    33  H    0.155918
    34  H    0.160529
 Sum of Mulliken charges =  -0.00000

 Dipole moment (field-independent basis, Debye):
    X=              0.3994    Y=              5.0411    Z=              0.0150  Tot=              5.0570
 Quadrupole moment (field-independent basis, Debye-Ang):
   XX=            -93.6225   YY=            -94.3634   ZZ=            -95.5549
   XY=            -18.6183   XZ=             -1.0867   YZ=              0.3413

 Normal termination of Gaussian 16 at Thu May  6 09:31:08 2021.
