 Gaussian 16, Revision A.03,
 Gaussian 16:  EM64L-G16RevA.03 25-Dec-2016

 -------------
 #p 6-31g* mp2
 -------------

 ------------------------------------------------------
 Input file generated by CHIRIPA (05-May-2021 14:51:08)
 ------------------------------------------------------
 Symbolic Z-matrix:
 Charge =  0 Multiplicity = 1

                         Standard orientation:
 ---------------------------------------------------------------------
 Center     Atomic      Atomic             Coordinates (Angstroms)
 Number     Number       Type             X           Y           Z
 ---------------------------------------------------------------------
      1          6           0        3.344520   -0.821569   -0.036427
      2          6           0        3.779549    0.638936   -0.161564
      3          6           0        5.298838    0.800184   -0.221179
      4          1           0        3.796479   -1.256135    0.865698
      5          1           0        3.741257   -1.389428   -0.889382
      6          1           0        3.380950    1.204154    0.690647
      7          1           0        3.326348    1.070130   -1.063394
      8          1           0        5.710016    0.261118   -1.080796
      9          1           0        5.764928    0.395903    0.683210
     10          1           0        5.587720    1.852050   -0.310543
     11          6           0        1.828424   -0.999020    0.024326
     12          6           0        1.393394   -2.459525    0.149463
     13          6           0       -0.125895   -2.620773    0.209078
     14          1           0        1.431687   -0.431161    0.877280
     15          1           0        1.376465   -0.564454   -0.877799
     16          1           0        1.846596   -2.890719    1.051292
     17          1           0        1.791994   -3.024743   -0.702748
     18          1           0       -0.591984   -2.216492   -0.695311
     19          1           0       -0.537072   -2.081707    1.068695
     20          1           0       -0.414777   -3.672639    0.298442
     21          6           0       -2.857704    0.197985    0.055855
     22          6           0       -4.346109    0.091198   -0.277660
     23          6           0       -4.874043   -1.339972   -0.173584
     24          1           0       -2.289066   -0.454247   -0.621040
     25          1           0       -2.688612   -0.183173    1.072478
     26          1           0       -4.512549    0.473728   -1.292837
     27          1           0       -4.911253    0.743907    0.399982
     28          1           0       -4.736969   -1.728333    0.840806
     29          1           0       -4.336000   -2.000048   -0.861631
     30          1           0       -5.939965   -1.393313   -0.416122
     31          6           0       -2.315240    1.622604   -0.043754
     32          6           0       -0.826835    1.729390    0.289761
     33          6           0       -0.298900    3.160561    0.185684
     34          1           0       -2.484331    2.003762   -1.060377
     35          1           0       -2.883879    2.274837    0.633141
     36          1           0       -0.261691    1.076682   -0.387881
     37          1           0       -0.660394    1.346861    1.304939
     38          1           0       -0.836944    3.820637    0.873733
     39          1           0       -0.435975    3.548923   -0.828705
     40          1           0        0.767021    3.213902    0.428224
 ---------------------------------------------------------------------

 SCF Done:  E(RHF) =  -470.731360862     A.U. after   11 cycles
 E2 =    -0.1585421804D+01 EUMP2 =    -0.47231678266638D+03

 The electronic state is 1-A.
 Alpha  occ. eigenvalues --  -11.21621 -11.21574 -11.21525 -11.21426 -11.21384
 Alpha  occ. eigenvalues --  -11.21308 -11.21291 -11.21227 -11.21083 -11.21010
 Alpha  occ. eigenvalues --  -11.21006 -11.20988  -1.08459  -1.08308  -1.03526
 Alpha  occ. eigenvalues --   -1.03441  -0.96001  -0.95867  -0.87040  -0.86865
 Alpha  occ. eigenvalues --   -0.79666  -0.79523  -0.78506  -0.77835  -0.65150
 Alpha  occ. eigenvalues --   -0.64899  -0.60924  -0.60858  -0.59360  -0.59264
 Alpha  occ. eigenvalues --   -0.57782  -0.57331  -0.55342  -0.55115  -0.52673
 Alpha  occ. eigenvalues --   -0.52646  -0.52563  -0.52113  -0.50015  -0.49744
 Alpha  occ. eigenvalues --   -0.48102  -0.47800  -0.46743  -0.46623  -0.46197
 Alpha  occ. eigenvalues --   -0.45888  -0.45367  -0.44818  -0.43773  -0.43676
 Alpha virt. eigenvalues --    0.21299   0.22582   0.23789   0.24107   0.24256
 Alpha virt. eigenvalues --    0.25938   0.26894   0.27441   0.28966   0.30074
 Alpha virt. eigenvalues --    0.30643   0.30927   0.31602   0.31690   0.32189

 Mulliken charges:
               1
     1  C   -0.297531
     2  C   -0.300684
     3  C   -0.475630
     4  H    0.149484
     5  H    0.149185
     6  H    0.152218
     7  H    0.151975
     8  H    0.155260
     9  H    0.155241
    10  H    0.160330
    11  C   -0.302430
    12  C   -0.299612
    13  C   -0.477661
    14  H    0.155343
    15  H    0.149716
    16  H    0.151527
    17  H    0.151199
    18  H    0.155715
    19  H    0.158076
    20  H    0.159772
    21  C   -0.301717
    22  C   -0.299404
    23  C   -0.475463
    24  H    0.155016
    25  H    0.149036
    26  H    0.151278
    27  H    0.151474
    28  H    0.155140
    29  H    0.155178
    30  H    0.159822
    31  C   -0.297712
    32  C   -0.304995
    33  C   -0.476540
    34  H    0.148445
    35  H    0.148640
    36  H    0.161010
    37  H    0.149499
    38  H    0.154499
    39  H    0.154459
    40  H    0.160844
 Sum of Mulliken charges =  -0.00000

 Dipole moment (field-independent basis, Debye):
    X=              0.0358    Y=             -0.0388    Z=              0.0020  Tot=              0.0528
 Quadrupole moment (field-independent basis, Debye-Ang):
   XX=            -86.4122   YY=            -86.0107   ZZ=            -82.7428
   XY=             -0.7394   XZ=             -0.1050   YZ=              0.2427

 Normal termination of Gaussian 16 at Thu May  6 00:30:16 2021.
