 Gaussian 16, Revision A.03,
 Gaussian 16:  EM64L-G16RevA.03 25-Dec-2016

 -------------
 #p 6-31g* mp2
 -------------

 ------------------------------------------------------
 Input file generated by CHIRIPA (05-May-2021 14:51:07)
 ------------------------------------------------------
 Symbolic Z-matrix:
 Charge =  0 Multiplicity = 1

                         Standard orientation:
 ---------------------------------------------------------------------
 Center     Atomic      Atomic             Coordinates (Angstroms)
 Number     Number       Type             X           Y           Z
 ---------------------------------------------------------------------
      1          6           0       -4.158320   -0.560339   -0.354334
      2          6           0       -3.734851   -1.874647    0.302366
      3          6           0       -4.644016   -3.044318   -0.075897
      4          1           0       -5.193153   -0.330431   -0.065876
      5          1           0       -4.158954   -0.687392   -1.445779
      6          1           0       -3.733681   -1.744744    1.392201
      7          1           0       -2.700841   -2.101355    0.012465
      8          1           0       -4.637697   -3.202474   -1.159202
      9          1           0       -5.676405   -2.843837    0.228373
     10          1           0       -4.323158   -3.973879    0.404547
     11          6           0       -3.259064    0.618328    0.014188
     12          6           0       -3.682533    1.932636   -0.642512
     13          6           0       -2.773368    3.102307   -0.264248
     14          1           0       -3.258430    0.745382    1.105633
     15          1           0       -2.224231    0.388420   -0.274270
     16          1           0       -4.716543    2.159344   -0.352611
     17          1           0       -3.683703    1.802733   -1.732346
     18          1           0       -1.740979    2.901826   -0.568519
     19          1           0       -2.779687    3.260463    0.819056
     20          1           0       -3.094226    4.031868   -0.744692
     21          6           0        4.212486   -0.469666   -0.197939
     22          6           0        5.654747    0.021961   -0.070772
     23          6           0        6.650897   -0.869993   -0.812324
     24          1           0        4.146226   -1.495929    0.188507
     25          1           0        3.941429   -0.518126   -1.261694
     26          1           0        5.922547    0.070799    0.992484
     27          1           0        5.717542    1.047241   -0.457390
     28          1           0        6.411463   -0.910231   -1.879870
     29          1           0        6.617632   -1.892222   -0.421758
     30          1           0        7.675727   -0.500208   -0.708192
     31          6           0        3.204898    0.411677    0.538085
     32          6           0        1.762637   -0.079950    0.410918
     33          6           0        0.766487    0.812003    1.152470
     34          1           0        3.475955    0.460136    1.601839
     35          1           0        3.271158    1.437939    0.151638
     36          1           0        1.699842   -1.105231    0.797535
     37          1           0        1.494837   -0.128788   -0.652338
     38          1           0        0.799752    1.834233    0.761904
     39          1           0        1.005920    0.852242    2.220015
     40          1           0       -0.258343    0.442218    1.048338
 ---------------------------------------------------------------------

 SCF Done:  E(RHF) =  -470.733121092     A.U. after   11 cycles
 E2 =    -0.1582887216D+01 EUMP2 =    -0.47231600830801D+03

 The electronic state is 1-A.
 Alpha  occ. eigenvalues --  -11.21616 -11.21596 -11.21596 -11.21586 -11.21406
 Alpha  occ. eigenvalues --  -11.21394 -11.21346 -11.21334 -11.21080 -11.21068
 Alpha  occ. eigenvalues --  -11.21034 -11.20966  -1.08445  -1.08411  -1.03538
 Alpha  occ. eigenvalues --   -1.03499  -0.95983  -0.95950  -0.87004  -0.86962
 Alpha  occ. eigenvalues --   -0.79636  -0.79535  -0.78269  -0.78222  -0.65089
 Alpha  occ. eigenvalues --   -0.65034  -0.60964  -0.60872  -0.59438  -0.59251
 Alpha  occ. eigenvalues --   -0.57691  -0.57477  -0.55281  -0.55223  -0.52764
 Alpha  occ. eigenvalues --   -0.52635  -0.52478  -0.52246  -0.49947  -0.49869
 Alpha  occ. eigenvalues --   -0.47934  -0.47866  -0.46661  -0.46572  -0.45787
 Alpha  occ. eigenvalues --   -0.45767  -0.45715  -0.45689  -0.43793  -0.43684
 Alpha virt. eigenvalues --    0.21543   0.23119   0.23679   0.24580   0.26403
 Alpha virt. eigenvalues --    0.26458   0.26814   0.27040   0.27922   0.29306
 Alpha virt. eigenvalues --    0.30708   0.31485   0.31694   0.31832   0.32245

 Mulliken charges:
               1
     1  C   -0.297541
     2  C   -0.300165
     3  C   -0.475617
     4  H    0.149711
     5  H    0.149411
     6  H    0.151957
     7  H    0.151843
     8  H    0.155233
     9  H    0.155264
    10  H    0.160306
    11  C   -0.303831
    12  C   -0.299303
    13  C   -0.477092
    14  H    0.149879
    15  H    0.155096
    16  H    0.151891
    17  H    0.151590
    18  H    0.157046
    19  H    0.155666
    20  H    0.159819
    21  C   -0.298227
    22  C   -0.299641
    23  C   -0.475692
    24  H    0.149597
    25  H    0.149313
    26  H    0.151956
    27  H    0.151940
    28  H    0.155119
    29  H    0.155160
    30  H    0.160246
    31  C   -0.298145
    32  C   -0.299851
    33  C   -0.483597
    34  H    0.149666
    35  H    0.149598
    36  H    0.151811
    37  H    0.150789
    38  H    0.155453
    39  H    0.154723
    40  H    0.168619
 Sum of Mulliken charges =  -0.00000

 Dipole moment (field-independent basis, Debye):
    X=             -0.0278    Y=              0.0017    Z=              0.0062  Tot=              0.0285
 Quadrupole moment (field-independent basis, Debye-Ang):
   XX=            -85.4803   YY=            -85.6274   ZZ=            -83.6846
   XY=             -0.2696   XZ=             -0.0930   YZ=             -0.7554

 Normal termination of Gaussian 16 at Thu May  6 00:28:28 2021.
