 Gaussian 16, Revision A.03,
 Gaussian 16:  EM64L-G16RevA.03 25-Dec-2016

 -------------
 #p 6-31g* mp2
 -------------

 ------------------------------------------------------
 Input file generated by CHIRIPA (05-May-2021 14:51:12)
 ------------------------------------------------------
 Symbolic Z-matrix:
 Charge =  0 Multiplicity = 1

                         Standard orientation:
 ---------------------------------------------------------------------
 Center     Atomic      Atomic             Coordinates (Angstroms)
 Number     Number       Type             X           Y           Z
 ---------------------------------------------------------------------
      1          6           0        2.501899   -0.226584   -0.981457
      2          6           0        2.567870   -1.710002   -0.616623
      3          6           0        2.376413   -2.625356   -1.826278
      4          1           0        1.533006   -0.014451   -1.453889
      5          1           0        3.271525   -0.006718   -1.734272
      6          1           0        1.799259   -1.926712    0.136298
      7          1           0        3.536642   -1.918589   -0.144831
      8          1           0        3.150505   -2.438039   -2.577473
      9          1           0        1.403251   -2.446209   -2.294746
     10          1           0        2.427225   -3.681245   -1.542767
     11          6           0        2.691541    0.701131    0.217338
     12          6           0        2.625570    2.184549   -0.147497
     13          6           0        2.817027    3.099903    1.062158
     14          1           0        1.921915    0.481265    0.970152
     15          1           0        3.660434    0.488998    0.689769
     16          1           0        1.656798    2.393136   -0.619288
     17          1           0        3.394181    2.401259   -0.900418
     18          1           0        3.790189    2.920756    1.530626
     19          1           0        2.042935    2.912586    1.813353
     20          1           0        2.766215    4.155791    0.778648
     21          6           0       -2.718126    0.269031   -0.176821
     22          6           0       -4.196313    0.442394   -0.527384
     23          6           0       -4.423072    1.458514   -1.647151
     24          1           0       -2.301431    1.241627    0.118759
     25          1           0       -2.169825   -0.045831   -1.075501
     26          1           0       -4.741896    0.755497    0.372016
     27          1           0       -4.609585   -0.530764   -0.821980
     28          1           0       -3.904176    1.148178   -2.559861
     29          1           0       -4.037239    2.441747   -1.359080
     30          1           0       -5.486617    1.566817   -1.881678
     31          6           0       -2.475314   -0.743577    0.940941
     32          6           0       -0.997127   -0.916941    1.291503
     33          6           0       -0.770368   -1.933060    2.411270
     34          1           0       -3.023615   -0.428715    1.839620
     35          1           0       -2.892010   -1.716173    0.645361
     36          1           0       -0.583856    0.056216    1.586100
     37          1           0       -0.451545   -1.230043    0.392103
     38          1           0       -1.156201   -2.916294    2.123199
     39          1           0       -1.289264   -1.622725    3.323980
     40          1           0        0.293177   -2.041364    2.645798
 ---------------------------------------------------------------------

 SCF Done:  E(RHF) =  -470.732827621     A.U. after   11 cycles
 E2 =    -0.1584350490D+01 EUMP2 =    -0.47231717811133D+03

 The electronic state is 1-A.
 Alpha  occ. eigenvalues --  -11.21687 -11.21657 -11.21561 -11.21545 -11.21483
 Alpha  occ. eigenvalues --  -11.21424 -11.21348 -11.21278 -11.21159 -11.21114
 Alpha  occ. eigenvalues --  -11.21076 -11.21060  -1.08528  -1.08374  -1.03619
 Alpha  occ. eigenvalues --   -1.03497  -0.96054  -0.95953  -0.87067  -0.86972
 Alpha  occ. eigenvalues --   -0.79697  -0.79563  -0.78386  -0.78145  -0.65219
 Alpha  occ. eigenvalues --   -0.64983  -0.61201  -0.60740  -0.59433  -0.59298
 Alpha  occ. eigenvalues --   -0.57668  -0.57560  -0.55356  -0.55227  -0.52748
 Alpha  occ. eigenvalues --   -0.52649  -0.52481  -0.52378  -0.50047  -0.49863
 Alpha  occ. eigenvalues --   -0.48020  -0.47909  -0.46870  -0.46425  -0.46076
 Alpha  occ. eigenvalues --   -0.45781  -0.45657  -0.45410  -0.43857  -0.43748
 Alpha virt. eigenvalues --    0.20133   0.23103   0.23237   0.23873   0.25935
 Alpha virt. eigenvalues --    0.26061   0.26968   0.27853   0.28817   0.29746
 Alpha virt. eigenvalues --    0.30355   0.31175   0.31634   0.31920   0.32198

 Mulliken charges:
               1
     1  C   -0.298190
     2  C   -0.306951
     3  C   -0.475800
     4  H    0.149725
     5  H    0.149502
     6  H    0.158926
     7  H    0.152020
     8  H    0.155504
     9  H    0.154109
    10  H    0.160210
    11  C   -0.303544
    12  C   -0.299759
    13  C   -0.475520
    14  H    0.156118
    15  H    0.148982
    16  H    0.152192
    17  H    0.151761
    18  H    0.155208
    19  H    0.154326
    20  H    0.160137
    21  C   -0.298558
    22  C   -0.299684
    23  C   -0.475804
    24  H    0.149505
    25  H    0.149061
    26  H    0.152189
    27  H    0.152170
    28  H    0.155245
    29  H    0.155266
    30  H    0.160520
    31  C   -0.297636
    32  C   -0.307144
    33  C   -0.478126
    34  H    0.149806
    35  H    0.149992
    36  H    0.153123
    37  H    0.157547
    38  H    0.155781
    39  H    0.155874
    40  H    0.161914
 Sum of Mulliken charges =  -0.00000

 Dipole moment (field-independent basis, Debye):
    X=             -0.0403    Y=             -0.0134    Z=              0.0233  Tot=              0.0485
 Quadrupole moment (field-independent basis, Debye-Ang):
   XX=            -83.9055   YY=            -85.3764   ZZ=            -85.5127
   XY=              0.0795   XZ=             -0.5584   YZ=              0.4201

 Normal termination of Gaussian 16 at Wed May  5 23:10:43 2021.
