 Gaussian 16, Revision A.03,
 Gaussian 16:  EM64L-G16RevA.03 25-Dec-2016

 -------------
 #p 6-31g* mp2
 -------------

 ------------------------------------------------------
 Input file generated by CHIRIPA (05-May-2021 14:51:10)
 ------------------------------------------------------
 Symbolic Z-matrix:
 Charge =  0 Multiplicity = 1

                         Standard orientation:
 ---------------------------------------------------------------------
 Center     Atomic      Atomic             Coordinates (Angstroms)
 Number     Number       Type             X           Y           Z
 ---------------------------------------------------------------------
      1          6           0       -2.577477   -0.269143   -0.354762
      2          6           0       -3.394949   -1.560827   -0.390510
      3          6           0       -2.570869   -2.769869   -0.834248
      4          1           0       -2.156274   -0.081570   -1.351932
      5          1           0       -1.724402   -0.402017    0.324947
      6          1           0       -4.247006   -1.425092   -1.068885
      7          1           0       -3.814413   -1.745246    0.606814
      8          1           0       -1.729432   -2.933479   -0.153206
      9          1           0       -2.164483   -2.611507   -1.838426
     10          1           0       -3.174800   -3.682440   -0.852692
     11          6           0       -3.387506    0.948416    0.086975
     12          6           0       -2.570033    2.240099    0.122724
     13          6           0       -3.394114    3.449141    0.566461
     14          1           0       -4.240580    1.081289   -0.592733
     15          1           0       -3.808709    0.760842    1.084146
     16          1           0       -2.150569    2.424518   -0.874600
     17          1           0       -1.717977    2.104365    0.801098
     18          1           0       -3.800500    3.290779    1.570639
     19          1           0       -4.235550    3.612751   -0.114580
     20          1           0       -2.790183    4.361713    0.584906
     21          6           0        2.674651   -0.805887    0.654735
     22          6           0        1.716045   -1.835540    0.055672
     23          6           0        1.108262   -2.761045    1.110109
     24          1           0        3.477429   -1.330192    1.191014
     25          1           0        2.137585   -0.207351    1.403541
     26          1           0        2.254398   -2.431041   -0.692774
     27          1           0        0.915561   -1.308727   -0.479405
     28          1           0        0.547044   -2.183725    1.851956
     29          1           0        1.893487   -3.312417    1.637375
     30          1           0        0.426203   -3.489128    0.660053
     31          6           0        3.290332    0.126614   -0.386948
     32          6           0        4.248937    1.156268    0.212114
     33          6           0        4.856721    2.081773   -0.842322
     34          1           0        3.827397   -0.471921   -1.135755
     35          1           0        2.487553    0.650920   -0.923227
     36          1           0        5.049422    0.629455    0.747192
     37          1           0        3.710585    1.751769    0.960560
     38          1           0        4.071495    2.633145   -1.369590
     39          1           0        5.417940    1.504454   -1.584170
     40          1           0        5.538779    2.809855   -0.392267
 ---------------------------------------------------------------------

 SCF Done:  E(RHF) =  -470.733149625     A.U. after   11 cycles
 E2 =    -0.1583330066D+01 EUMP2 =    -0.47231647969016D+03

 The electronic state is 1-A.
 Alpha  occ. eigenvalues --  -11.21649 -11.21606 -11.21592 -11.21570 -11.21442
 Alpha  occ. eigenvalues --  -11.21394 -11.21383 -11.21334 -11.21106 -11.21092
 Alpha  occ. eigenvalues --  -11.21063 -11.21013  -1.08466  -1.08414  -1.03573
 Alpha  occ. eigenvalues --   -1.03501  -0.96032  -0.95950  -0.87063  -0.86954
 Alpha  occ. eigenvalues --   -0.79617  -0.79584  -0.78300  -0.78208  -0.65150
 Alpha  occ. eigenvalues --   -0.64997  -0.61058  -0.60842  -0.59447  -0.59291
 Alpha  occ. eigenvalues --   -0.57739  -0.57472  -0.55339  -0.55220  -0.52786
 Alpha  occ. eigenvalues --   -0.52681  -0.52489  -0.52244  -0.49984  -0.49855
 Alpha  occ. eigenvalues --   -0.47936  -0.47876  -0.46640  -0.46618  -0.45917
 Alpha  occ. eigenvalues --   -0.45763  -0.45722  -0.45583  -0.43807  -0.43765
 Alpha virt. eigenvalues --    0.20461   0.23353   0.23359   0.24943   0.26041
 Alpha virt. eigenvalues --    0.26588   0.26748   0.27601   0.28208   0.29234
 Alpha virt. eigenvalues --    0.30287   0.31295   0.31593   0.31658   0.32137

 Mulliken charges:
               1
     1  C   -0.301314
     2  C   -0.299040
     3  C   -0.483801
     4  H    0.149495
     5  H    0.152085
     6  H    0.151873
     7  H    0.151869
     8  H    0.164311
     9  H    0.154901
    10  H    0.159930
    11  C   -0.298289
    12  C   -0.299605
    13  C   -0.475706
    14  H    0.149854
    15  H    0.149795
    16  H    0.151826
    17  H    0.151296
    18  H    0.155305
    19  H    0.155382
    20  H    0.160283
    21  C   -0.298073
    22  C   -0.303469
    23  C   -0.479759
    24  H    0.149596
    25  H    0.148916
    26  H    0.152043
    27  H    0.156485
    28  H    0.154056
    29  H    0.155809
    30  H    0.163748
    31  C   -0.298393
    32  C   -0.299618
    33  C   -0.475716
    34  H    0.149490
    35  H    0.150119
    36  H    0.151871
    37  H    0.151859
    38  H    0.155238
    39  H    0.155151
    40  H    0.160198
 Sum of Mulliken charges =  -0.00000

 Dipole moment (field-independent basis, Debye):
    X=             -0.0039    Y=             -0.0082    Z=             -0.0041  Tot=              0.0100
 Quadrupole moment (field-independent basis, Debye-Ang):
   XX=            -84.6334   YY=            -85.7842   ZZ=            -84.3507
   XY=             -0.5504   XZ=              0.5729   YZ=              0.0680

 Normal termination of Gaussian 16 at Wed May  5 19:47:24 2021.
