 Gaussian 16, Revision A.03,
 Gaussian 16:  EM64L-G16RevA.03 25-Dec-2016

 -------------
 #p 6-31g* mp2
 -------------

 ------------------------------------------------------
 Input file generated by CHIRIPA (05-May-2021 14:51:11)
 ------------------------------------------------------
 Symbolic Z-matrix:
 Charge =  0 Multiplicity = 1

                         Standard orientation:
 ---------------------------------------------------------------------
 Center     Atomic      Atomic             Coordinates (Angstroms)
 Number     Number       Type             X           Y           Z
 ---------------------------------------------------------------------
      1          6           0       -3.637039    1.067414   -0.252599
      2          6           0       -2.643015    2.092536    0.294235
      3          6           0       -3.103072    3.534803    0.079738
      4          1           0       -3.789096    1.249601   -1.325274
      5          1           0       -4.611981    1.218087    0.231322
      6          1           0       -1.669873    1.939080   -0.189563
      7          1           0       -2.493160    1.907767    1.365692
      8          1           0       -4.062365    3.711156    0.576986
      9          1           0       -3.234400    3.742647   -0.987105
     10          1           0       -2.377708    4.251034    0.478135
     11          6           0       -3.191115   -0.378982   -0.045666
     12          6           0       -4.185138   -1.404104   -0.592500
     13          6           0       -3.725082   -2.846371   -0.378003
     14          1           0       -2.216172   -0.529655   -0.529587
     15          1           0       -3.039057   -0.561169    1.027009
     16          1           0       -4.334993   -1.219335   -1.663957
     17          1           0       -5.158281   -1.250648   -0.108703
     18          1           0       -3.593754   -3.054215    0.688840
     19          1           0       -2.765788   -3.022724   -0.875251
     20          1           0       -4.450445   -3.562602   -0.776401
     21          6           0        4.039585    0.065569    0.304851
     22          6           0        5.064797    0.061979   -0.829571
     23          6           0        6.310614    0.886082   -0.503088
     24          1           0        3.748339    1.101946    0.524037
     25          1           0        4.510881   -0.326211    1.216873
     26          1           0        4.591312    0.452356   -1.739534
     27          1           0        5.353494   -0.974524   -1.046212
     28          1           0        6.808607    0.494293    0.389720
     29          1           0        6.042095    1.929280   -0.307541
     30          1           0        7.030172    0.869807   -1.327606
     31          6           0        2.788569   -0.754001   -0.006585
     32          6           0        1.763356   -0.750412    1.127836
     33          6           0        0.517540   -1.574515    0.801353
     34          1           0        2.317274   -0.362222   -0.918608
     35          1           0        3.079815   -1.790378   -0.225773
     36          1           0        1.474660    0.286091    1.344477
     37          1           0        2.236840   -1.140788    2.037799
     38          1           0        0.786059   -2.617711    0.605807
     39          1           0        0.019546   -1.182725   -0.091455
     40          1           0       -0.202019   -1.558239    1.625871
 ---------------------------------------------------------------------

 SCF Done:  E(RHF) =  -470.732942540     A.U. after   11 cycles
 E2 =    -0.1583034837D+01 EUMP2 =    -0.47231597737626D+03

 The electronic state is 1-A.
 Alpha  occ. eigenvalues --  -11.21611 -11.21601 -11.21566 -11.21555 -11.21399
 Alpha  occ. eigenvalues --  -11.21367 -11.21340 -11.21284 -11.21081 -11.21071
 Alpha  occ. eigenvalues --  -11.21011 -11.20993  -1.08428  -1.08393  -1.03522
 Alpha  occ. eigenvalues --   -1.03494  -0.95983  -0.95928  -0.87011  -0.86936
 Alpha  occ. eigenvalues --   -0.79637  -0.79519  -0.78275  -0.78163  -0.65106
 Alpha  occ. eigenvalues --   -0.64991  -0.60944  -0.60877  -0.59360  -0.59287
 Alpha  occ. eigenvalues --   -0.57573  -0.57566  -0.55350  -0.55156  -0.52702
 Alpha  occ. eigenvalues --   -0.52623  -0.52410  -0.52340  -0.50016  -0.49810
 Alpha  occ. eigenvalues --   -0.47946  -0.47853  -0.46715  -0.46564  -0.45868
 Alpha  occ. eigenvalues --   -0.45733  -0.45717  -0.45409  -0.43767  -0.43735
 Alpha virt. eigenvalues --    0.21471   0.23101   0.23951   0.24274   0.25272
 Alpha virt. eigenvalues --    0.26538   0.26992   0.27655   0.27946   0.29621
 Alpha virt. eigenvalues --    0.30832   0.31300   0.31656   0.31983   0.32147

 Mulliken charges:
               1
     1  C   -0.298093
     2  C   -0.299544
     3  C   -0.475635
     4  H    0.149231
     5  H    0.149367
     6  H    0.151045
     7  H    0.151986
     8  H    0.155352
     9  H    0.155124
    10  H    0.160055
    11  C   -0.302317
    12  C   -0.299526
    13  C   -0.475919
    14  H    0.155394
    15  H    0.149732
    16  H    0.151399
    17  H    0.151522
    18  H    0.155143
    19  H    0.156248
    20  H    0.159813
    21  C   -0.298242
    22  C   -0.299626
    23  C   -0.475698
    24  H    0.149640
    25  H    0.149581
    26  H    0.151778
    27  H    0.151936
    28  H    0.155206
    29  H    0.155173
    30  H    0.160226
    31  C   -0.298322
    32  C   -0.300208
    33  C   -0.477648
    34  H    0.148912
    35  H    0.149633
    36  H    0.152259
    37  H    0.151658
    38  H    0.154436
    39  H    0.157546
    40  H    0.161385
 Sum of Mulliken charges =  -0.00000

 Dipole moment (field-independent basis, Debye):
    X=             -0.0024    Y=             -0.0114    Z=              0.0083  Tot=              0.0143
 Quadrupole moment (field-independent basis, Debye-Ang):
   XX=            -85.4660   YY=            -85.6401   ZZ=            -83.8115
   XY=             -0.6712   XZ=             -0.3795   YZ=             -0.3203

 Normal termination of Gaussian 16 at Wed May  5 19:52:46 2021.
