 Gaussian 16, Revision A.03,
 Gaussian 16:  EM64L-G16RevA.03 25-Dec-2016

 -------------
 #p 6-31g* mp2
 -------------

 ------------------------------------------------------
 Input file generated by CHIRIPA (05-May-2021 14:53:14)
 ------------------------------------------------------
 Symbolic Z-matrix:
 Charge =  0 Multiplicity = 1

                         Standard orientation:
 ---------------------------------------------------------------------
 Center     Atomic      Atomic             Coordinates (Angstroms)
 Number     Number       Type             X           Y           Z
 ---------------------------------------------------------------------
      1          6           0        3.973881    0.245275   -0.160763
      2          6           0        3.627705    1.463130   -1.018071
      3          6           0        2.133780    1.788488   -1.006988
      4          1           0        3.405424   -0.622786   -0.521691
      5          1           0        3.644897    0.426979    0.871782
      6          1           0        3.958490    1.279745   -2.048394
      7          1           0        4.197198    2.328350   -0.655180
      8          1           0        1.792605    1.997604    0.012066
      9          1           0        1.552541    0.943041   -1.389065
     10          1           0        1.908632    2.662425   -1.626183
     11          6           0        5.463713   -0.092552   -0.161758
     12          6           0        5.809890   -1.310407    0.695550
     13          6           0        7.303815   -1.635765    0.684468
     14          1           0        5.792698   -0.274256   -1.194302
     15          1           0        6.032171    0.775510    0.199171
     16          1           0        5.240397   -2.175626    0.332659
     17          1           0        5.479105   -1.127022    1.725874
     18          1           0        7.885054   -0.790317    1.066544
     19          1           0        7.644990   -1.844880   -0.334587
     20          1           0        7.528963   -2.509702    1.303662
     21          6           0       -1.590908    1.220237    0.705669
     22          6           0       -1.614685    0.388477   -0.418667
     23          6           0       -2.770330   -0.325417   -0.749409
     24          6           0       -3.889161   -0.183393    0.069943
     25          6           0       -3.896656    0.637364    1.196704
     26          6           0       -2.729960    1.341811    1.508352
     27          1           0       -0.688883    1.771138    0.955180
     28          1           0       -0.731566    0.292129   -1.043856
     29          1           0       -2.816257   -0.976348   -1.614047
     30          1           0       -4.792623    0.713046    1.800802
     31          1           0       -2.714378    1.987031    2.382131
     32          7           0       -5.118440   -0.934160   -0.270091
     33          8           0       -6.090935   -0.791844    0.467903
     34          8           0       -5.086175   -1.650711   -1.268165
 ---------------------------------------------------------------------

 SCF Done:  E(RHF) =  -669.535319333     A.U. after   15 cycles
 E2 =    -0.2091308414D+01 EUMP2 =    -0.67162662774682D+03

 The electronic state is 1-A.
 Alpha  occ. eigenvalues --  -20.60689 -20.60684 -15.85741 -11.31082 -11.27653
 Alpha  occ. eigenvalues --  -11.27639 -11.27357 -11.26662 -11.26606 -11.22612
 Alpha  occ. eigenvalues --  -11.22496 -11.22227 -11.22134 -11.22016 -11.21502
 Alpha  occ. eigenvalues --   -1.59765  -1.39319  -1.19249  -1.09215  -1.08644
 Alpha  occ. eigenvalues --   -1.04652  -1.04352  -0.96835  -0.95484  -0.87866
 Alpha  occ. eigenvalues --   -0.86044  -0.82322  -0.80439  -0.78980  -0.77375
 Alpha  occ. eigenvalues --   -0.71960  -0.71088  -0.70357  -0.65847  -0.64898
 Alpha  occ. eigenvalues --   -0.64677  -0.62057  -0.61720  -0.60207  -0.58403
 Alpha  occ. eigenvalues --   -0.56193  -0.55111  -0.53530  -0.53307  -0.52980
 Alpha  occ. eigenvalues --   -0.52691  -0.50766  -0.48771  -0.48717  -0.48676
 Alpha  occ. eigenvalues --   -0.47440  -0.46532  -0.46422  -0.44730  -0.44576
 Alpha  occ. eigenvalues --   -0.37223  -0.36257
 Alpha virt. eigenvalues --    0.05160   0.11394   0.16661   0.19666   0.22334
 Alpha virt. eigenvalues --    0.23834   0.24453   0.25527   0.26968   0.27067
 Alpha virt. eigenvalues --    0.29081   0.29548   0.31119   0.31700   0.32074

 Mulliken charges:
               1
     1  C   -0.298976
     2  C   -0.299592
     3  C   -0.482171
     4  H    0.149616
     5  H    0.148762
     6  H    0.156108
     7  H    0.155533
     8  H    0.149991
     9  H    0.151016
    10  H    0.166574
    11  C   -0.298949
    12  C   -0.300225
    13  C   -0.476160
    14  H    0.151160
    15  H    0.150825
    16  H    0.152882
    17  H    0.152182
    18  H    0.155723
    19  H    0.156101
    20  H    0.161981
    21  C   -0.175151
    22  C   -0.223503
    23  C   -0.172295
    24  C    0.158687
    25  C   -0.171178
    26  C   -0.219063
    27  H    0.229546
    28  H    0.230612
    29  H    0.275423
    30  H    0.275095
    31  H    0.222994
    32  N    0.488000
    33  O   -0.460796
    34  O   -0.460753
 Sum of Mulliken charges =  -0.00000

 Dipole moment (field-independent basis, Debye):
    X=              4.6346    Y=              2.6658    Z=              1.1655  Tot=              5.4721
 Quadrupole moment (field-independent basis, Debye-Ang):
   XX=           -128.1584   YY=            -95.2800   ZZ=            -91.0207
   XY=            -11.6858   XZ=             -6.6131   YZ=              2.2644

 Normal termination of Gaussian 16 at Thu May  6 01:03:16 2021.
