 Gaussian 16, Revision A.03,
 Gaussian 16:  EM64L-G16RevA.03 25-Dec-2016

 -------------
 #p 6-31g* mp2
 -------------

 ------------------------------------------------------
 Input file generated by CHIRIPA (05-May-2021 14:55:23)
 ------------------------------------------------------
 Symbolic Z-matrix:
 Charge =  0 Multiplicity = 1

                         Standard orientation:
 ---------------------------------------------------------------------
 Center     Atomic      Atomic             Coordinates (Angstroms)
 Number     Number       Type             X           Y           Z
 ---------------------------------------------------------------------
      1          6           0       -4.615657    2.238749    0.220977
      2          6           0       -4.925098    1.409258   -0.861942
      3          6           0       -4.258482    0.193033   -1.037913
      4          6           0       -3.283574   -0.164127   -0.107707
      5          6           0       -2.952804    0.640639    0.981436
      6          6           0       -3.632231    1.852473    1.137593
      7          1           0       -5.138476    3.181837    0.349979
      8          1           0       -5.688385    1.706684   -1.575367
      9          1           0       -4.478216   -0.468258   -1.867268
     10          1           0       -2.187142    0.317159    1.676087
     11          1           0       -3.389837    2.494662    1.979546
     12          7           0       -2.571077   -1.449366   -0.283512
     13          8           0       -1.716217   -1.741235    0.549954
     14          8           0       -2.880971   -2.140531   -1.251444
     15          6           0        3.898318   -0.671656    0.040785
     16          6           0        2.705941   -0.635709    0.997304
     17          6           0        1.805044   -1.864035    0.865415
     18          1           0        3.530061   -0.748924   -0.991379
     19          1           0        4.485588   -1.580475    0.231983
     20          1           0        2.121866    0.273469    0.805293
     21          1           0        3.077074   -0.558326    2.027298
     22          1           0        2.367644   -2.778969    1.077494
     23          1           0        1.407008   -1.942448   -0.151453
     24          1           0        0.959058   -1.817684    1.558249
     25          6           0        4.808249    0.549555    0.160769
     26          6           0        6.000626    0.513607   -0.795750
     27          6           0        6.901523    1.741933   -0.663860
     28          1           0        4.220979    1.458374   -0.030428
     29          1           0        5.176507    0.626822    1.192933
     30          1           0        5.629492    0.436224   -1.825744
     31          1           0        6.584701   -0.395571   -0.603739
     32          1           0        7.299559    1.820346    0.353008
     33          1           0        6.338923    2.656867   -0.875940
     34          1           0        7.747509    1.695582   -1.356695
 ---------------------------------------------------------------------

 SCF Done:  E(RHF) =  -669.535589588     A.U. after   15 cycles
 E2 =    -0.2090932163D+01 EUMP2 =    -0.67162652175136D+03

 The electronic state is 1-A.
 Alpha  occ. eigenvalues --  -20.60868 -20.60852 -15.85901 -11.31257 -11.27826
 Alpha  occ. eigenvalues --  -11.27821 -11.27566 -11.26839 -11.26829 -11.21248
 Alpha  occ. eigenvalues --  -11.20948 -11.20812 -11.20811 -11.20735 -11.19690
 Alpha  occ. eigenvalues --   -1.59929  -1.39485  -1.19429  -1.08827  -1.07870
 Alpha  occ. eigenvalues --   -1.04830  -1.02878  -0.95670  -0.95280  -0.86293
 Alpha  occ. eigenvalues --   -0.86225  -0.82498  -0.78964  -0.77674  -0.77542
 Alpha  occ. eigenvalues --   -0.72131  -0.71249  -0.70538  -0.65086  -0.64833
 Alpha  occ. eigenvalues --   -0.64511  -0.62178  -0.60283  -0.58699  -0.56896
 Alpha  occ. eigenvalues --   -0.55333  -0.54580  -0.53161  -0.52923  -0.51922
 Alpha  occ. eigenvalues --   -0.51712  -0.49260  -0.48882  -0.48851  -0.47259
 Alpha  occ. eigenvalues --   -0.46037  -0.45201  -0.45156  -0.44844  -0.43094
 Alpha  occ. eigenvalues --   -0.37409  -0.36434
 Alpha virt. eigenvalues --    0.04978   0.11220   0.16461   0.21277   0.23366
 Alpha virt. eigenvalues --    0.24879   0.27095   0.27235   0.27813   0.28100
 Alpha virt. eigenvalues --    0.28984   0.30816   0.31930   0.32100   0.32305

 Mulliken charges:
               1
     1  C   -0.170748
     2  C   -0.218542
     3  C   -0.170922
     4  C    0.157934
     5  C   -0.170700
     6  C   -0.218540
     7  H    0.225854
     8  H    0.223677
     9  H    0.275776
    10  H    0.275412
    11  H    0.223766
    12  N    0.491882
    13  O   -0.462535
    14  O   -0.459885
    15  C   -0.297509
    16  C   -0.300608
    17  C   -0.473686
    18  H    0.149851
    19  H    0.149165
    20  H    0.145798
    21  H    0.146999
    22  H    0.149115
    23  H    0.161367
    24  H    0.172490
    25  C   -0.297338
    26  C   -0.299206
    27  C   -0.475282
    28  H    0.146995
    29  H    0.148097
    30  H    0.151777
    31  H    0.151951
    32  H    0.154421
    33  H    0.153841
    34  H    0.159333
 Sum of Mulliken charges =  -0.00000

 Dipole moment (field-independent basis, Debye):
    X=             -2.7586    Y=              4.4375    Z=              0.6039  Tot=              5.2598
 Quadrupole moment (field-independent basis, Debye-Ang):
   XX=            -78.5304   YY=            -97.1237   ZZ=            -91.3064
   XY=            -15.2579   XZ=              1.1258   YZ=             -0.0066

 Normal termination of Gaussian 16 at Thu May  6 04:41:30 2021.
