 Gaussian 16, Revision A.03,
 Gaussian 16:  EM64L-G16RevA.03 25-Dec-2016

 -------------
 #p 6-31g* mp2
 -------------

 ------------------------------------------------------
 Input file generated by CHIRIPA (05-May-2021 14:51:07)
 ------------------------------------------------------
 Symbolic Z-matrix:
 Charge =  0 Multiplicity = 1

                         Standard orientation:
 ---------------------------------------------------------------------
 Center     Atomic      Atomic             Coordinates (Angstroms)
 Number     Number       Type             X           Y           Z
 ---------------------------------------------------------------------
      1          6           0        3.227818   -0.556366   -0.293930
      2          6           0        2.520959   -1.856294   -0.679313
      3          6           0        3.351966   -3.098821   -0.357836
      4          1           0        4.191273   -0.500783   -0.818916
      5          1           0        3.457944   -0.576853    0.780322
      6          1           0        2.290999   -1.832769   -1.752244
      7          1           0        1.558989   -1.908698   -0.153496
      8          1           0        3.569988   -3.149786    0.713831
      9          1           0        4.306158   -3.073425   -0.894001
     10          1           0        2.827787   -4.016790   -0.641436
     11          6           0        2.409608    0.694593   -0.609148
     12          6           0        3.116467    1.994521   -0.223764
     13          6           0        2.285460    3.237048   -0.545242
     14          1           0        2.179482    0.715080   -1.683400
     15          1           0        1.446153    0.639010   -0.084162
     16          1           0        4.078437    2.046925   -0.749581
     17          1           0        3.346427    1.970996    0.849167
     18          1           0        1.331268    3.211652   -0.009077
     19          1           0        2.067438    3.288013   -1.616909
     20          1           0        2.809639    4.155017   -0.261642
     21          6           0       -3.306727    0.279644   -0.021369
     22          6           0       -4.333282   -0.669105   -0.641085
     23          6           0       -5.302587    0.043390   -1.584796
     24          1           0       -3.833812    1.074574    0.523804
     25          1           0       -2.741980    0.772959   -0.824548
     26          1           0       -4.894985   -1.161517    0.163052
     27          1           0       -3.803689   -1.461977   -1.184686
     28          1           0       -4.759243    0.520395   -2.406894
     29          1           0       -5.856740    0.822562   -1.051498
     30          1           0       -6.027706   -0.653475   -2.016586
     31          6           0       -2.330699   -0.417871    0.924447
     32          6           0       -1.304144    0.530878    1.544162
     33          6           0       -0.334839   -0.181617    2.487874
     34          1           0       -2.895446   -0.911186    1.727626
     35          1           0       -1.803614   -1.212801    0.379274
     36          1           0       -1.833737    1.323749    2.087763
     37          1           0       -0.742442    1.023290    0.740025
     38          1           0        0.219314   -0.960789    1.954576
     39          1           0       -0.878182   -0.658623    3.309971
     40          1           0        0.390280    0.515248    2.919663
 ---------------------------------------------------------------------

 SCF Done:  E(RHF) =  -470.733055597     A.U. after   11 cycles
 E2 =    -0.1584138961D+01 EUMP2 =    -0.47231719455742D+03

 The electronic state is 1-A.
 Alpha  occ. eigenvalues --  -11.21663 -11.21642 -11.21612 -11.21599 -11.21440
 Alpha  occ. eigenvalues --  -11.21394 -11.21374 -11.21326 -11.21166 -11.21091
 Alpha  occ. eigenvalues --  -11.21079 -11.21076  -1.08492  -1.08417  -1.03582
 Alpha  occ. eigenvalues --   -1.03542  -0.96040  -0.95975  -0.87043  -0.87004
 Alpha  occ. eigenvalues --   -0.79682  -0.79571  -0.78321  -0.78220  -0.65347
 Alpha  occ. eigenvalues --   -0.64871  -0.60995  -0.60936  -0.59420  -0.59329
 Alpha  occ. eigenvalues --   -0.57643  -0.57590  -0.55417  -0.55169  -0.52720
 Alpha  occ. eigenvalues --   -0.52687  -0.52453  -0.52412  -0.50026  -0.49886
 Alpha  occ. eigenvalues --   -0.48004  -0.47942  -0.46881  -0.46467  -0.46034
 Alpha  occ. eigenvalues --   -0.45749  -0.45742  -0.45384  -0.43823  -0.43790
 Alpha virt. eigenvalues --    0.19431   0.22875   0.23242   0.24426   0.25889
 Alpha virt. eigenvalues --    0.26759   0.26884   0.27862   0.28269   0.29709
 Alpha virt. eigenvalues --    0.29958   0.31373   0.31591   0.31894   0.32391

 Mulliken charges:
               1
     1  C   -0.297347
     2  C   -0.303809
     3  C   -0.475617
     4  H    0.149741
     5  H    0.150168
     6  H    0.151981
     7  H    0.153946
     8  H    0.155567
     9  H    0.155428
    10  H    0.160202
    11  C   -0.308892
    12  C   -0.299010
    13  C   -0.477435
    14  H    0.148678
    15  H    0.161244
    16  H    0.151940
    17  H    0.151869
    18  H    0.156319
    19  H    0.155027
    20  H    0.160440
    21  C   -0.298546
    22  C   -0.299746
    23  C   -0.475754
    24  H    0.149714
    25  H    0.150198
    26  H    0.151883
    27  H    0.152160
    28  H    0.155336
    29  H    0.155184
    30  H    0.160291
    31  C   -0.298579
    32  C   -0.306718
    33  C   -0.480522
    34  H    0.149841
    35  H    0.149958
    36  H    0.152801
    37  H    0.156928
    38  H    0.158652
    39  H    0.156270
    40  H    0.160208
 Sum of Mulliken charges =  -0.00000

 Dipole moment (field-independent basis, Debye):
    X=             -0.0159    Y=             -0.0017    Z=              0.0099  Tot=              0.0188
 Quadrupole moment (field-independent basis, Debye-Ang):
   XX=            -84.9973   YY=            -85.8939   ZZ=            -83.8251
   XY=              0.6492   XZ=             -1.5108   YZ=              0.5310

 Normal termination of Gaussian 16 at Wed May  5 21:15:58 2021.
