 Gaussian 16, Revision A.03,
 Gaussian 16:  EM64L-G16RevA.03 25-Dec-2016

 -------------
 #p 6-31g* mp2
 -------------

 ------------------------------------------------------
 Input file generated by CHIRIPA (05-May-2021 14:53:18)
 ------------------------------------------------------
 Symbolic Z-matrix:
 Charge =  0 Multiplicity = 1

                         Standard orientation:
 ---------------------------------------------------------------------
 Center     Atomic      Atomic             Coordinates (Angstroms)
 Number     Number       Type             X           Y           Z
 ---------------------------------------------------------------------
      1          6           0        2.876541    0.818475   -0.347730
      2          6           0        3.702786    1.830172    0.447112
      3          6           0        3.283526    3.276047    0.179793
      4          1           0        2.973047    1.037468   -1.419958
      5          1           0        1.814248    0.945492   -0.097140
      6          1           0        4.763340    1.700358    0.196135
      7          1           0        3.604455    1.608627    1.517563
      8          1           0        2.233014    3.428360    0.447798
      9          1           0        3.398483    3.520612   -0.881138
     10          1           0        3.887069    3.982525    0.758139
     11          6           0        3.283853   -0.631352   -0.091163
     12          6           0        2.457608   -1.643049   -0.886005
     13          6           0        2.876868   -3.088924   -0.618686
     14          1           0        4.346146   -0.758369   -0.341753
     15          1           0        3.187347   -0.850345    0.981065
     16          1           0        2.555938   -1.421504   -1.956456
     17          1           0        1.397054   -1.513235   -0.635028
     18          1           0        2.761910   -3.333488    0.442245
     19          1           0        3.927380   -3.241237   -0.886691
     20          1           0        2.273324   -3.795402   -1.197032
     21          6           0       -1.186911   -2.138580    0.954088
     22          6           0       -0.631238   -0.873342    1.170705
     23          6           0       -1.298082    0.277971    0.741351
     24          6           0       -2.524300    0.126588    0.095780
     25          6           0       -3.103816   -1.120130   -0.134752
     26          6           0       -2.419254   -2.257726    0.303199
     27          1           0       -0.662009   -3.027619    1.290959
     28          1           0        0.325668   -0.777791    1.675923
     29          1           0       -0.890737    1.269713    0.896069
     30          1           0       -4.059261   -1.183537   -0.641230
     31          1           0       -2.853191   -3.239042    0.133610
     32          7           0       -3.239636    1.338171   -0.363309
     33          8           0       -4.318623    1.177918   -0.929651
     34          8           0       -2.707785    2.425120   -0.148106
 ---------------------------------------------------------------------

 SCF Done:  E(RHF) =  -669.534593937     A.U. after   15 cycles
 E2 =    -0.2094064256D+01 EUMP2 =    -0.67162865819288D+03

 The electronic state is 1-A.
 Alpha  occ. eigenvalues --  -20.60828 -20.60822 -15.85882 -11.31287 -11.27855
 Alpha  occ. eigenvalues --  -11.27847 -11.27589 -11.26875 -11.26864 -11.22081
 Alpha  occ. eigenvalues --  -11.22043 -11.22021 -11.21915 -11.21781 -11.21324
 Alpha  occ. eigenvalues --   -1.59902  -1.39454  -1.19469  -1.09019  -1.08837
 Alpha  occ. eigenvalues --   -1.04881  -1.04038  -0.96507  -0.95677  -0.87514
 Alpha  occ. eigenvalues --   -0.86271  -0.82512  -0.80092  -0.78806  -0.77551
 Alpha  occ. eigenvalues --   -0.72101  -0.71225  -0.70560  -0.65796  -0.65121
 Alpha  occ. eigenvalues --   -0.64794  -0.62201  -0.61447  -0.59872  -0.58096
 Alpha  occ. eigenvalues --   -0.55841  -0.55336  -0.53292  -0.53119  -0.52958
 Alpha  occ. eigenvalues --   -0.52900  -0.50451  -0.48862  -0.48853  -0.48398
 Alpha  occ. eigenvalues --   -0.47147  -0.46326  -0.46289  -0.44850  -0.44308
 Alpha  occ. eigenvalues --   -0.37392  -0.36403
 Alpha virt. eigenvalues --    0.04938   0.11078   0.16306   0.18956   0.22872
 Alpha virt. eigenvalues --    0.23406   0.25462   0.26179   0.26751   0.28826
 Alpha virt. eigenvalues --    0.29553   0.30862   0.31258   0.31502   0.32027

 Mulliken charges:
               1
     1  C   -0.300960
     2  C   -0.300185
     3  C   -0.475846
     4  H    0.154942
     5  H    0.145161
     6  H    0.153874
     7  H    0.148326
     8  H    0.156073
     9  H    0.158215
    10  H    0.161938
    11  C   -0.299134
    12  C   -0.310303
    13  C   -0.475579
    14  H    0.153227
    15  H    0.141098
    16  H    0.155663
    17  H    0.160173
    18  H    0.147357
    19  H    0.158830
    20  H    0.160361
    21  C   -0.170890
    22  C   -0.220545
    23  C   -0.171603
    24  C    0.158492
    25  C   -0.170725
    26  C   -0.218189
    27  H    0.227683
    28  H    0.228315
    29  H    0.275916
    30  H    0.276100
    31  H    0.224175
    32  N    0.488167
    33  O   -0.460064
    34  O   -0.460063
 Sum of Mulliken charges =  -0.00000

 Dipole moment (field-independent basis, Debye):
    X=              2.4872    Y=             -4.2031    Z=              1.5175  Tot=              5.1142
 Quadrupole moment (field-independent basis, Debye-Ang):
   XX=           -104.4095   YY=            -95.6795   ZZ=            -93.9050
   XY=             14.2464   XZ=             -3.2280   YZ=              0.9954

 Normal termination of Gaussian 16 at Wed May  5 17:19:00 2021.
