 Gaussian 16, Revision A.03,
 Gaussian 16:  EM64L-G16RevA.03 25-Dec-2016

 -------------
 #p 6-31g* mp2
 -------------

 ------------------------------------------------------
 Input file generated by CHIRIPA (05-May-2021 14:57:21)
 ------------------------------------------------------
 Symbolic Z-matrix:
 Charge =  0 Multiplicity = 1

                         Standard orientation:
 ---------------------------------------------------------------------
 Center     Atomic      Atomic             Coordinates (Angstroms)
 Number     Number       Type             X           Y           Z
 ---------------------------------------------------------------------
      1          6           0        2.359606    2.463628    0.658017
      2          6           0        3.544809    1.875393    1.111663
      3          6           0        3.937789    0.617966    0.643695
      4          6           0        3.117931   -0.025957   -0.281771
      5          6           0        1.931381    0.533975   -0.752796
      6          6           0        1.558088    1.792225   -0.271126
      7          1           0        2.061976    3.440747    1.026868
      8          1           0        4.169247    2.394499    1.833224
      9          1           0        4.850300    0.139507    0.978086
     10          1           0        1.329653   -0.007873   -1.472340
     11          1           0        0.637116    2.246639   -0.625195
     12          7           0        3.523540   -1.357574   -0.784440
     13          8           0        2.783732   -1.904291   -1.599560
     14          8           0        4.573585   -1.829365   -0.353794
     15          6           0       -4.729338    0.627702   -1.496655
     16          6           0       -3.362024    0.831823   -1.709515
     17          6           0       -2.423192    0.381082   -0.776789
     18          6           0       -2.888834   -0.272902    0.362847
     19          6           0       -4.244463   -0.491393    0.603310
     20          6           0       -5.165424   -0.032092   -0.342956
     21          1           0       -5.451704    0.981174   -2.226478
     22          1           0       -3.020472    1.343915   -2.604584
     23          1           0       -1.358788    0.525764   -0.916532
     24          1           0       -4.554573   -1.005170    1.505132
     25          1           0       -6.226682   -0.192013   -0.175020
     26          7           0       -1.904394   -0.754613    1.357448
     27          8           0       -2.340261   -1.327988    2.353389
     28          8           0       -0.715564   -0.549680    1.122244
 ---------------------------------------------------------------------

 SCF Done:  E(RHF) =  -868.336250197     A.U. after   16 cycles
 E2 =    -0.2601701906D+01 EUMP2 =    -0.87093795210343D+03

 The electronic state is 1-A.
 Alpha  occ. eigenvalues --  -20.61120 -20.61109 -20.60139 -20.60134 -15.86163
 Alpha  occ. eigenvalues --  -15.85196 -11.31647 -11.30506 -11.28314 -11.28158
 Alpha  occ. eigenvalues --  -11.27921 -11.27276 -11.27192 -11.27190 -11.27102
 Alpha  occ. eigenvalues --  -11.26903 -11.26229 -11.26115  -1.60187  -1.59207
 Alpha  occ. eigenvalues --   -1.39742  -1.38767  -1.19810  -1.18700  -1.09172
 Alpha  occ. eigenvalues --   -1.08114  -1.05241  -1.04147  -0.96002  -0.94960
 Alpha  occ. eigenvalues --   -0.86629  -0.85556  -0.82838  -0.81835  -0.77904
 Alpha  occ. eigenvalues --   -0.76858  -0.72393  -0.71508  -0.71431  -0.70926
 Alpha  occ. eigenvalues --   -0.70509  -0.69875  -0.65463  -0.65255  -0.64400
 Alpha  occ. eigenvalues --   -0.64228  -0.62653  -0.61491  -0.55704  -0.54682
 Alpha  occ. eigenvalues --   -0.53541  -0.53335  -0.52382  -0.52306  -0.49155
 Alpha  occ. eigenvalues --   -0.49132  -0.48181  -0.48177  -0.45119  -0.44187
 Alpha  occ. eigenvalues --   -0.37764  -0.36842  -0.36657  -0.35636
 Alpha virt. eigenvalues --    0.04645   0.05717   0.10776   0.11981   0.16158
 Alpha virt. eigenvalues --    0.17085   0.19484   0.22182   0.25271   0.27367
 Alpha virt. eigenvalues --    0.28454   0.29339   0.31001   0.31081   0.32327

 Mulliken charges:
               1
     1  C   -0.169425
     2  C   -0.218068
     3  C   -0.169271
     4  C    0.159020
     5  C   -0.152672
     6  C   -0.208901
     7  H    0.222582
     8  H    0.221445
     9  H    0.274394
    10  H    0.266890
    11  H    0.208934
    12  N    0.489298
    13  O   -0.462540
    14  O   -0.461813
    15  C   -0.170336
    16  C   -0.219797
    17  C   -0.174026
    18  C    0.158545
    19  C   -0.169622
    20  C   -0.218027
    21  H    0.227306
    22  H    0.222988
    23  H    0.271385
    24  H    0.277501
    25  H    0.225478
    26  N    0.489889
    27  O   -0.457652
    28  O   -0.463505
 Sum of Mulliken charges =  -0.00000

 Dipole moment (field-independent basis, Debye):
    X=             -5.0639    Y=              6.2429    Z=             -1.5604  Tot=              8.1885
 Quadrupole moment (field-independent basis, Debye-Ang):
   XX=            -87.2881   YY=           -107.0727   ZZ=           -106.2227
   XY=             12.4684   XZ=             15.4788   YZ=             -0.8344

 Normal termination of Gaussian 16 at Wed May  5 16:13:36 2021.
