 Gaussian 16, Revision A.03,
 Gaussian 16:  EM64L-G16RevA.03 25-Dec-2016

 -------------
 #p 6-31g* mp2
 -------------

 ------------------------------------------------------
 Input file generated by CHIRIPA (05-May-2021 14:57:24)
 ------------------------------------------------------
 Symbolic Z-matrix:
 Charge =  0 Multiplicity = 1

                         Standard orientation:
 ---------------------------------------------------------------------
 Center     Atomic      Atomic             Coordinates (Angstroms)
 Number     Number       Type             X           Y           Z
 ---------------------------------------------------------------------
      1          6           0        4.295282    2.054053   -0.062939
      2          6           0        3.765211    1.402201   -1.181257
      3          6           0        3.056762    0.205716   -1.036104
      4          6           0        2.896534   -0.313059    0.247831
      5          6           0        3.412680    0.312799    1.381492
      6          6           0        4.117637    1.508234    1.212618
      7          1           0        4.844266    2.983104   -0.184911
      8          1           0        3.901622    1.823776   -2.173080
      9          1           0        2.635831   -0.319749   -1.884704
     10          1           0        3.260362   -0.131850    2.357455
     11          1           0        4.528189    2.012288    2.082917
     12          7           0        2.148379   -1.579168    0.414055
     13          8           0        2.021012   -2.015607    1.555955
     14          8           0        1.703509   -2.111132   -0.600707
     15          6           0       -4.955065    1.188730    0.981657
     16          6           0       -4.077650    1.968804    0.221297
     17          6           0       -3.001996    1.378697   -0.448995
     18          6           0       -2.832749   -0.000442   -0.336650
     19          6           0       -3.689762   -0.804549    0.413172
     20          6           0       -4.758666   -0.193021    1.075004
     21          1           0       -5.788037    1.655459    1.499071
     22          1           0       -4.227731    3.042117    0.147014
     23          1           0       -2.307573    1.958868   -1.044475
     24          1           0       -3.514395   -1.872079    0.468369
     25          1           0       -5.438490   -0.801325    1.664793
     26          7           0       -1.697575   -0.636500   -1.041780
     27          8           0       -1.570214   -1.853553   -0.926888
     28          8           0       -0.956680    0.094053   -1.696000
 ---------------------------------------------------------------------

 SCF Done:  E(RHF) =  -868.336168955     A.U. after   16 cycles
 E2 =    -0.2600851405D+01 EUMP2 =    -0.87093702036025D+03

 The electronic state is 1-A.
 Alpha  occ. eigenvalues --  -20.60202 -20.60068 -20.59611 -20.59430 -15.85189
 Alpha  occ. eigenvalues --  -15.84562 -11.30771 -11.30186 -11.27404 -11.27325
 Alpha  occ. eigenvalues --  -11.27159 -11.26881 -11.26713 -11.26670 -11.26457
 Alpha  occ. eigenvalues --  -11.26404 -11.25952 -11.25856  -1.59196  -1.58593
 Alpha  occ. eigenvalues --   -1.38749  -1.38133  -1.18965  -1.18411  -1.08321
 Alpha  occ. eigenvalues --   -1.07772  -1.04400  -1.03850  -0.95120  -0.94551
 Alpha  occ. eigenvalues --   -0.85789  -0.85239  -0.81952  -0.81380  -0.76963
 Alpha  occ. eigenvalues --   -0.76368  -0.71409  -0.70806  -0.70583  -0.70077
 Alpha  occ. eigenvalues --   -0.69862  -0.69533  -0.64616  -0.64408  -0.64061
 Alpha  occ. eigenvalues --   -0.63871  -0.61745  -0.61182  -0.54900  -0.54385
 Alpha  occ. eigenvalues --   -0.52719  -0.52498  -0.52177  -0.51950  -0.48200
 Alpha  occ. eigenvalues --   -0.48149  -0.47562  -0.47506  -0.44117  -0.43410
 Alpha  occ. eigenvalues --   -0.36961  -0.36435  -0.36013  -0.35458
 Alpha virt. eigenvalues --    0.05537   0.06205   0.11638   0.12188   0.17014
 Alpha virt. eigenvalues --    0.17597   0.21736   0.22229   0.27630   0.28122
 Alpha virt. eigenvalues --    0.28651   0.29186   0.31260   0.31729   0.32912

 Mulliken charges:
               1
     1  C   -0.172239
     2  C   -0.220269
     3  C   -0.163612
     4  C    0.156560
     5  C   -0.172874
     6  C   -0.219768
     7  H    0.221250
     8  H    0.221413
     9  H    0.284794
    10  H    0.272214
    11  H    0.218777
    12  N    0.485141
    13  O   -0.470604
    14  O   -0.441348
    15  C   -0.171542
    16  C   -0.218622
    17  C   -0.171915
    18  C    0.158901
    19  C   -0.170018
    20  C   -0.218581
    21  H    0.223914
    22  H    0.220861
    23  H    0.272451
    24  H    0.278923
    25  H    0.223134
    26  N    0.486484
    27  O   -0.443043
    28  O   -0.470385
 Sum of Mulliken charges =  -0.00000

 Dipole moment (field-independent basis, Debye):
    X=             -1.5460    Y=              6.3011    Z=              1.6489  Tot=              6.6943
 Quadrupole moment (field-independent basis, Debye-Ang):
   XX=            -69.2401   YY=           -104.4229   ZZ=           -102.2814
   XY=              7.3490   XZ=             -7.3485   YZ=             -0.6632

 Normal termination of Gaussian 16 at Fri May  7 04:57:44 2021.
