 Gaussian 16, Revision A.03,
 Gaussian 16:  EM64L-G16RevA.03 25-Dec-2016

 -------------
 #p 6-31g* mp2
 -------------

 ------------------------------------------------------
 Input file generated by CHIRIPA (05-May-2021 14:53:13)
 ------------------------------------------------------
 Symbolic Z-matrix:
 Charge =  0 Multiplicity = 1

                         Standard orientation:
 ---------------------------------------------------------------------
 Center     Atomic      Atomic             Coordinates (Angstroms)
 Number     Number       Type             X           Y           Z
 ---------------------------------------------------------------------
      1          6           0       -3.064066    0.940997   -0.131979
      2          6           0       -2.163301    1.726773    0.821521
      3          6           0       -2.451032    3.228337    0.803884
      4          1           0       -2.934468    1.328664   -1.151716
      5          1           0       -4.114458    1.117197    0.138256
      6          1           0       -1.114881    1.548046    0.550432
      7          1           0       -2.294917    1.337063    1.839076
      8          1           0       -3.487711    3.425385    1.095552
      9          1           0       -2.300971    3.637567   -0.200414
     10          1           0       -1.795866    3.770767    1.492641
     11          6           0       -2.788438   -0.561573   -0.125590
     12          6           0       -3.689204   -1.347350   -1.079089
     13          6           0       -3.401473   -2.848914   -1.061452
     14          1           0       -1.738047   -0.737773   -0.395825
     15          1           0       -2.918037   -0.949241    0.894147
     16          1           0       -3.557588   -0.957639   -2.096644
     17          1           0       -4.737623   -1.168623   -0.808001
     18          1           0       -3.551534   -3.258144   -0.057155
     19          1           0       -2.364794   -3.045961   -1.353120
     20          1           0       -4.056639   -3.391344   -1.750210
     21          6           0        2.895616    1.486624   -1.721959
     22          6           0        2.118422    1.905527   -0.637058
     23          6           0        1.774692    1.008335    0.378541
     24          6           0        2.227212   -0.306262    0.276812
     25          6           0        3.002944   -0.753898   -0.791436
     26          6           0        3.334622    0.160585   -1.795555
     27          1           0        3.157953    2.190301   -2.506442
     28          1           0        1.776085    2.934739   -0.577276
     29          1           0        1.174244    1.305926    1.229611
     30          1           0        3.329459   -1.786268   -0.823348
     31          1           0        3.938330   -0.167542   -2.636931
     32          7           0        1.869699   -1.265233    1.345906
     33          8           0        2.280818   -2.417991    1.232912
     34          8           0        1.185132   -0.845956    2.276611
 ---------------------------------------------------------------------

 SCF Done:  E(RHF) =  -669.535276373     A.U. after   15 cycles
 E2 =    -0.2092455870D+01 EUMP2 =    -0.67162773224231D+03

 The electronic state is 1-A.
 Alpha  occ. eigenvalues --  -20.60792 -20.60782 -15.85844 -11.31243 -11.27815
 Alpha  occ. eigenvalues --  -11.27786 -11.27557 -11.26835 -11.26824 -11.21667
 Alpha  occ. eigenvalues --  -11.21397 -11.21354 -11.21331 -11.21135 -11.20774
 Alpha  occ. eigenvalues --   -1.59863  -1.39415  -1.19421  -1.08805  -1.08341
 Alpha  occ. eigenvalues --   -1.04828  -1.03482  -0.95926  -0.95635  -0.86940
 Alpha  occ. eigenvalues --   -0.86219  -0.82465  -0.79560  -0.78135  -0.77492
 Alpha  occ. eigenvalues --   -0.72060  -0.71188  -0.70528  -0.65083  -0.65003
 Alpha  occ. eigenvalues --   -0.64793  -0.62202  -0.60863  -0.59311  -0.57529
 Alpha  occ. eigenvalues --   -0.55328  -0.55203  -0.53166  -0.52926  -0.52635
 Alpha  occ. eigenvalues --   -0.52334  -0.49857  -0.48823  -0.48813  -0.47851
 Alpha  occ. eigenvalues --   -0.46582  -0.45678  -0.45579  -0.44793  -0.43717
 Alpha  occ. eigenvalues --   -0.37397  -0.36393
 Alpha virt. eigenvalues --    0.04981   0.11157   0.16451   0.20878   0.23026
 Alpha virt. eigenvalues --    0.24189   0.26276   0.27022   0.27552   0.28072
 Alpha virt. eigenvalues --    0.29033   0.30669   0.31493   0.31588   0.32022

 Mulliken charges:
               1
     1  C   -0.297745
     2  C   -0.304514
     3  C   -0.476442
     4  H    0.146648
     5  H    0.150019
     6  H    0.147030
     7  H    0.160293
     8  H    0.158504
     9  H    0.151613
    10  H    0.156596
    11  C   -0.297946
    12  C   -0.299910
    13  C   -0.475585
    14  H    0.148231
    15  H    0.156566
    16  H    0.149170
    17  H    0.151288
    18  H    0.158627
    19  H    0.155975
    20  H    0.158602
    21  C   -0.170718
    22  C   -0.219921
    23  C   -0.170975
    24  C    0.157074
    25  C   -0.171333
    26  C   -0.218335
    27  H    0.225897
    28  H    0.224691
    29  H    0.279017
    30  H    0.275860
    31  H    0.223716
    32  N    0.488145
    33  O   -0.460472
    34  O   -0.459664
 Sum of Mulliken charges =  -0.00000

 Dipole moment (field-independent basis, Debye):
    X=              1.2617    Y=              3.2757    Z=             -3.6895  Tot=              5.0926
 Quadrupole moment (field-independent basis, Debye-Ang):
   XX=            -87.8241   YY=            -95.9882   ZZ=            -95.6747
   XY=              5.5005   XZ=            -10.4631   YZ=              3.7567

 Normal termination of Gaussian 16 at Thu May  6 18:43:12 2021.
