 Gaussian 16, Revision A.03,
 Gaussian 16:  EM64L-G16RevA.03 25-Dec-2016

 -------------
 #p 6-31g* mp2
 -------------

 ------------------------------------------------------
 Input file generated by CHIRIPA (05-May-2021 14:57:22)
 ------------------------------------------------------
 Symbolic Z-matrix:
 Charge =  0 Multiplicity = 1

                         Standard orientation:
 ---------------------------------------------------------------------
 Center     Atomic      Atomic             Coordinates (Angstroms)
 Number     Number       Type             X           Y           Z
 ---------------------------------------------------------------------
      1          6           0        5.746319    0.837698   -1.656870
      2          6           0        6.030125   -0.371629   -1.013827
      3          6           0        5.138434   -0.904626   -0.078227
      4          6           0        3.967040   -0.198665    0.191483
      5          6           0        3.656027    1.008437   -0.432590
      6          6           0        4.562263    1.522664   -1.364714
      7          1           0        6.444655    1.244453   -2.382316
      8          1           0        6.948910   -0.905756   -1.238743
      9          1           0        5.333221   -1.838889    0.434248
     10          1           0        2.732038    1.517966   -0.187554
     11          1           0        4.339242    2.462048   -1.862573
     12          7           0        3.015347   -0.752990    1.180121
     13          8           0        1.990185   -0.111690    1.400150
     14          8           0        3.312594   -1.818274    1.716266
     15          6           0       -2.501660    1.551225    1.255742
     16          6           0       -2.146014    0.246555    0.898147
     17          6           0       -3.036884   -0.562458    0.186530
     18          6           0       -4.280721   -0.032287   -0.152704
     19          6           0       -4.664282    1.263600    0.189125
     20          6           0       -3.757445    2.054695    0.900717
     21          1           0       -1.803409    2.172726    1.808533
     22          1           0       -1.171435   -0.147087    1.172524
     23          1           0       -2.787341   -1.576008   -0.103061
     24          1           0       -5.642939    1.628179   -0.098507
     25          1           0       -4.036346    3.067550    1.177094
     26          7           0       -5.232297   -0.879269   -0.906046
     27          8           0       -6.322086   -0.388698   -1.192991
     28          8           0       -4.870335   -2.017666   -1.195307
 ---------------------------------------------------------------------

 SCF Done:  E(RHF) =  -868.340047378     A.U. after   16 cycles
 E2 =    -0.2598213073D+01 EUMP2 =    -0.87093826045060D+03

 The electronic state is 1-A.
 Alpha  occ. eigenvalues --  -20.61712 -20.61647 -20.60235 -20.60226 -15.86716
 Alpha  occ. eigenvalues --  -15.85277 -11.31830 -11.30508 -11.28393 -11.28346
 Alpha  occ. eigenvalues --  -11.28053 -11.27331 -11.27305 -11.27083 -11.26964
 Alpha  occ. eigenvalues --  -11.26704 -11.26097 -11.25805  -1.60739  -1.59311
 Alpha  occ. eigenvalues --   -1.40303  -1.38868  -1.19976  -1.18642  -1.09414
 Alpha  occ. eigenvalues --   -1.08057  -1.05343  -1.04003  -0.96293  -0.94924
 Alpha  occ. eigenvalues --   -0.86752  -0.85398  -0.83139  -0.81747  -0.78216
 Alpha  occ. eigenvalues --   -0.76817  -0.72952  -0.72040  -0.71499  -0.71081
 Alpha  occ. eigenvalues --   -0.70633  -0.69744  -0.65635  -0.65341  -0.64279
 Alpha  occ. eigenvalues --   -0.63950  -0.62697  -0.61328  -0.55845  -0.54497
 Alpha  occ. eigenvalues --   -0.53682  -0.53432  -0.52372  -0.52051  -0.49713
 Alpha  occ. eigenvalues --   -0.49664  -0.48263  -0.48240  -0.45759  -0.44304
 Alpha  occ. eigenvalues --   -0.37935  -0.36934  -0.36625  -0.35613
 Alpha virt. eigenvalues --    0.04290   0.05675   0.10725   0.12039   0.15822
 Alpha virt. eigenvalues --    0.17218   0.20859   0.22305   0.26803   0.27570
 Alpha virt. eigenvalues --    0.28407   0.29050   0.30490   0.31761   0.32086

 Mulliken charges:
               1
     1  C   -0.169779
     2  C   -0.218373
     3  C   -0.170151
     4  C    0.157954
     5  C   -0.170257
     6  C   -0.218202
     7  H    0.227983
     8  H    0.225787
     9  H    0.276939
    10  H    0.272444
    11  H    0.224932
    12  N    0.491444
    13  O   -0.473087
    14  O   -0.455068
    15  C   -0.173798
    16  C   -0.227835
    17  C   -0.173603
    18  C    0.158328
    19  C   -0.173180
    20  C   -0.218927
    21  H    0.226545
    22  H    0.247820
    23  H    0.275545
    24  H    0.272694
    25  H    0.219993
    26  N    0.488039
    27  O   -0.462950
    28  O   -0.461237
 Sum of Mulliken charges =  -0.00000

 Dipole moment (field-independent basis, Debye):
    X=              7.2410    Y=              4.8518    Z=             -0.8234  Tot=              8.7550
 Quadrupole moment (field-independent basis, Debye-Ang):
   XX=           -103.6433   YY=           -100.5528   ZZ=           -108.2971
   XY=            -11.2954   XZ=            -25.2666   YZ=             -0.3399

 Normal termination of Gaussian 16 at Thu May  6 08:06:58 2021.
