 Gaussian 16, Revision A.03,
 Gaussian 16:  EM64L-G16RevA.03 25-Dec-2016

 -------------
 #p 6-31g* mp2
 -------------

 ------------------------------------------------------
 Input file generated by CHIRIPA (05-May-2021 14:57:25)
 ------------------------------------------------------
 Symbolic Z-matrix:
 Charge =  0 Multiplicity = 1

                         Standard orientation:
 ---------------------------------------------------------------------
 Center     Atomic      Atomic             Coordinates (Angstroms)
 Number     Number       Type             X           Y           Z
 ---------------------------------------------------------------------
      1          6           0       -4.303346    2.295135    0.038064
      2          6           0       -5.103744    1.148542    0.003282
      3          6           0       -4.526358   -0.116217   -0.143547
      4          6           0       -3.139077   -0.198029   -0.253311
      5          6           0       -2.314785    0.925744   -0.222179
      6          6           0       -2.913871    2.180279   -0.074579
      7          1           0       -4.760302    3.273659    0.152424
      8          1           0       -6.183097    1.234724    0.090534
      9          1           0       -5.122320   -1.020288   -0.173582
     10          1           0       -1.241671    0.808041   -0.311558
     11          1           0       -2.289790    3.069017   -0.047892
     12          7           0       -2.516338   -1.531561   -0.409161
     13          8           0       -1.291745   -1.576796   -0.503836
     14          8           0       -3.264619   -2.506296   -0.433690
     15          6           0        4.877446    0.942610   -1.433789
     16          6           0        4.246519   -0.277079   -1.699887
     17          6           0        3.338427   -0.820853   -0.786527
     18          6           0        3.083575   -0.114984    0.388244
     19          6           0        3.696160    1.102291    0.681962
     20          6           0        4.600741    1.627196   -0.245808
     21          1           0        5.581510    1.357699   -2.148906
     22          1           0        4.459484   -0.810938   -2.621672
     23          1           0        2.835845   -1.763271   -0.967301
     24          1           0        3.463560    1.611274    1.609459
     25          1           0        5.089246    2.574615   -0.036507
     26          7           0        2.124077   -0.680666    1.362805
     27          8           0        1.916695   -0.039213    2.390505
     28          8           0        1.597573   -1.754789    1.080513
 ---------------------------------------------------------------------

 SCF Done:  E(RHF) =  -868.336374938     A.U. after   16 cycles
 E2 =    -0.2600322826D+01 EUMP2 =    -0.87093669776397D+03

 The electronic state is 1-A.
 Alpha  occ. eigenvalues --  -20.60261 -20.60088 -20.60060 -20.59977 -15.85213
 Alpha  occ. eigenvalues --  -15.85069 -11.30816 -11.30633 -11.27464 -11.27338
 Alpha  occ. eigenvalues --  -11.27238 -11.27234 -11.27215 -11.27028 -11.26516
 Alpha  occ. eigenvalues --  -11.26439 -11.26304 -11.26295  -1.59250  -1.59088
 Alpha  occ. eigenvalues --   -1.38790  -1.38634  -1.19017  -1.18829  -1.08374
 Alpha  occ. eigenvalues --   -1.08191  -1.04445  -1.04267  -0.95166  -0.94990
 Alpha  occ. eigenvalues --   -0.85831  -0.85658  -0.81995  -0.81812  -0.77000
 Alpha  occ. eigenvalues --   -0.76832  -0.71499  -0.71243  -0.70579  -0.70383
 Alpha  occ. eigenvalues --   -0.70113  -0.69950  -0.64658  -0.64481  -0.64447
 Alpha  occ. eigenvalues --   -0.64284  -0.61776  -0.61620  -0.54948  -0.54777
 Alpha  occ. eigenvalues --   -0.52780  -0.52577  -0.52532  -0.52372  -0.48233
 Alpha  occ. eigenvalues --   -0.48179  -0.48061  -0.48045  -0.44264  -0.43830
 Alpha  occ. eigenvalues --   -0.37026  -0.36821  -0.36065  -0.35873
 Alpha virt. eigenvalues --    0.05483   0.05765   0.11586   0.11779   0.16930
 Alpha virt. eigenvalues --    0.17208   0.21703   0.21831   0.27617   0.27686
 Alpha virt. eigenvalues --    0.28576   0.28746   0.31107   0.31419   0.32825

 Mulliken charges:
               1
     1  C   -0.171410
     2  C   -0.218529
     3  C   -0.171117
     4  C    0.159881
     5  C   -0.167117
     6  C   -0.218018
     7  H    0.223413
     8  H    0.221679
     9  H    0.274928
    10  H    0.273179
    11  H    0.220973
    12  N    0.488589
    13  O   -0.453199
    14  O   -0.463830
    15  C   -0.171842
    16  C   -0.219349
    17  C   -0.169787
    18  C    0.156065
    19  C   -0.173919
    20  C   -0.219293
    21  H    0.223927
    22  H    0.223719
    23  H    0.283342
    24  H    0.273091
    25  H    0.220932
    26  N    0.485523
    27  O   -0.469351
    28  O   -0.442480
 Sum of Mulliken charges =  -0.00000

 Dipole moment (field-independent basis, Debye):
    X=              1.1946    Y=              6.3755    Z=             -2.9171  Tot=              7.1122
 Quadrupole moment (field-independent basis, Debye-Ang):
   XX=            -68.0492   YY=           -103.9112   ZZ=           -107.6076
   XY=             -6.1661   XZ=            -10.6318   YZ=              2.4608

 Normal termination of Gaussian 16 at Wed May  5 22:46:38 2021.
