 Gaussian 16, Revision A.03,
 Gaussian 16:  EM64L-G16RevA.03 25-Dec-2016

 -------------
 #p 6-31g* mp2
 -------------

 ------------------------------------------------------
 Input file generated by CHIRIPA (05-May-2021 14:55:22)
 ------------------------------------------------------
 Symbolic Z-matrix:
 Charge =  0 Multiplicity = 1

                         Standard orientation:
 ---------------------------------------------------------------------
 Center     Atomic      Atomic             Coordinates (Angstroms)
 Number     Number       Type             X           Y           Z
 ---------------------------------------------------------------------
      1          6           0        4.478530    1.388148   -1.194836
      2          6           0        3.117381    1.371202   -1.516563
      3          6           0        2.226675    0.572658   -0.793018
      4          6           0        2.733632   -0.199922    0.250727
      5          6           0        4.084345   -0.204581    0.595462
      6          6           0        4.956824    0.601589   -0.141707
      7          1           0        5.163372    2.011438   -1.762195
      8          1           0        2.743118    1.981028   -2.333927
      9          1           0        1.168125    0.540530   -1.020744
     10          1           0        4.427783   -0.823292    1.415623
     11          1           0        6.013408    0.612757    0.110387
     12          7           0        1.800329   -1.049342    1.023924
     13          8           0        2.271988   -1.720862    1.938929
     14          8           0        0.614819   -1.027512    0.700310
     15          6           0       -3.951860   -0.629903   -0.294337
     16          6           0       -2.891926   -1.552927   -0.896458
     17          6           0       -3.419040   -2.963038   -1.163914
     18          1           0       -4.321419   -1.068593    0.642638
     19          1           0       -4.812316   -0.577598   -0.975715
     20          1           0       -2.033144   -1.602383   -0.214796
     21          1           0       -2.524710   -1.111895   -1.832011
     22          1           0       -4.262077   -2.933251   -1.861768
     23          1           0       -3.767718   -3.426527   -0.235365
     24          1           0       -2.644972   -3.606084   -1.594228
     25          6           0       -3.440015    0.783318   -0.021299
     26          6           0       -4.499950    1.706342    0.580823
     27          6           0       -3.972835    3.116452    0.848277
     28          1           0       -2.579560    0.731013    0.660079
     29          1           0       -3.070457    1.222007   -0.958274
     30          1           0       -4.867166    1.265310    1.516375
     31          1           0       -5.358731    1.755797   -0.100840
     32          1           0       -3.624156    3.579941   -0.080271
     33          1           0       -3.129798    3.086666    1.546131
     34          1           0       -4.746902    3.759499    1.278592
 ---------------------------------------------------------------------

 SCF Done:  E(RHF) =  -669.536262540     A.U. after   15 cycles
 E2 =    -0.2091014504D+01 EUMP2 =    -0.67162727704350D+03

 The electronic state is 1-A.
 Alpha  occ. eigenvalues --  -20.60938 -20.60927 -15.85980 -11.31277 -11.27842
 Alpha  occ. eigenvalues --  -11.27830 -11.27579 -11.26846 -11.26835 -11.21093
 Alpha  occ. eigenvalues --  -11.20715 -11.20702 -11.20575 -11.20471 -11.20194
 Alpha  occ. eigenvalues --   -1.60001  -1.39557  -1.19446  -1.08855  -1.07687
 Alpha  occ. eigenvalues --   -1.04839  -1.02804  -0.95700  -0.95295  -0.86316
 Alpha  occ. eigenvalues --   -0.86240  -0.82537  -0.78878  -0.77630  -0.77426
 Alpha  occ. eigenvalues --   -0.72205  -0.71315  -0.70555  -0.65105  -0.64843
 Alpha  occ. eigenvalues --   -0.64305  -0.62185  -0.60191  -0.58673  -0.56889
 Alpha  occ. eigenvalues --   -0.55346  -0.54591  -0.53173  -0.52931  -0.52002
 Alpha  occ. eigenvalues --   -0.51721  -0.49253  -0.48958  -0.48955  -0.47196
 Alpha  occ. eigenvalues --   -0.45895  -0.45057  -0.44969  -0.44839  -0.43061
 Alpha  occ. eigenvalues --   -0.37427  -0.36440
 Alpha virt. eigenvalues --    0.04936   0.11215   0.16432   0.21239   0.23520
 Alpha virt. eigenvalues --    0.24985   0.26820   0.27312   0.27589   0.28539
 Alpha virt. eigenvalues --    0.29052   0.31062   0.32024   0.32150   0.32688

 Mulliken charges:
               1
     1  C   -0.170560
     2  C   -0.218596
     3  C   -0.170878
     4  C    0.157306
     5  C   -0.170641
     6  C   -0.218647
     7  H    0.225953
     8  H    0.223932
     9  H    0.276808
    10  H    0.275734
    11  H    0.223725
    12  N    0.495968
    13  O   -0.459140
    14  O   -0.468316
    15  C   -0.296952
    16  C   -0.311480
    17  C   -0.474522
    18  H    0.150266
    19  H    0.144629
    20  H    0.183013
    21  H    0.142030
    22  H    0.149613
    23  H    0.155569
    24  H    0.159287
    25  C   -0.300111
    26  C   -0.298927
    27  C   -0.475312
    28  H    0.159308
    29  H    0.142253
    30  H    0.152864
    31  H    0.149796
    32  H    0.151544
    33  H    0.155781
    34  H    0.158702
 Sum of Mulliken charges =  -0.00000

 Dipole moment (field-independent basis, Debye):
    X=              3.5466    Y=              2.9219    Z=             -2.5828  Tot=              5.2713
 Quadrupole moment (field-independent basis, Debye-Ang):
   XX=            -74.9624   YY=            -97.5464   ZZ=            -94.4267
   XY=              6.1356   XZ=             -4.5739   YZ=             -0.6199

 Normal termination of Gaussian 16 at Wed May  5 23:53:17 2021.
