 Gaussian 16, Revision A.03,
 Gaussian 16:  EM64L-G16RevA.03 25-Dec-2016

 -------------
 #p 6-31g* mp2
 -------------

 ------------------------------------------------------
 Input file generated by CHIRIPA (05-May-2021 14:55:23)
 ------------------------------------------------------
 Symbolic Z-matrix:
 Charge =  0 Multiplicity = 1

                         Standard orientation:
 ---------------------------------------------------------------------
 Center     Atomic      Atomic             Coordinates (Angstroms)
 Number     Number       Type             X           Y           Z
 ---------------------------------------------------------------------
      1          6           0        0.586311   -0.496498   -0.300921
      2          6           0        1.412063   -1.577204    0.025773
      3          6           0        2.791115   -1.398740    0.170386
      4          6           0        3.313143   -0.120209   -0.019706
      5          6           0        2.516594    0.976365   -0.345782
      6          6           0        1.140236    0.774597   -0.485331
      7          1           0       -0.483924   -0.644185   -0.411293
      8          1           0        0.984640   -2.565473    0.169577
      9          1           0        3.453475   -2.217880    0.422788
     10          1           0        2.971773    1.949720   -0.482934
     11          1           0        0.501366    1.615722   -0.739100
     12          7           0        4.771658    0.081059    0.130708
     13          8           0        5.206996    1.217409   -0.041997
     14          8           0        5.451888   -0.901348    0.418461
     15          6           0       -4.343860   -0.409425    0.275595
     16          6           0       -3.898389   -1.714493   -0.384963
     17          6           0       -4.729577   -2.917289    0.062480
     18          1           0       -4.277735   -0.517057    1.366919
     19          1           0       -5.402862   -0.231539    0.042650
     20          1           0       -2.840168   -1.889157   -0.151987
     21          1           0       -3.965400   -1.603677   -1.474846
     22          1           0       -5.785791   -2.768999   -0.184546
     23          1           0       -4.654167   -3.056101    1.145829
     24          1           0       -4.394129   -3.839629   -0.421899
     25          6           0       -3.522412    0.802078   -0.161684
     26          6           0       -3.967882    2.107146    0.498874
     27          6           0       -3.136695    3.309941    0.051432
     28          1           0       -2.463408    0.624192    0.071262
     29          1           0       -3.588537    0.909710   -1.253008
     30          1           0       -3.900872    1.996330    1.588758
     31          1           0       -5.026102    2.281810    0.265898
     32          1           0       -3.212104    3.448754   -1.031918
     33          1           0       -2.080480    3.161652    0.298458
     34          1           0       -3.472142    4.232282    0.535810
 ---------------------------------------------------------------------

 SCF Done:  E(RHF) =  -669.535483872     A.U. after   15 cycles
 E2 =    -0.2091932588D+01 EUMP2 =    -0.67162741646033D+03

 The electronic state is 1-A.
 Alpha  occ. eigenvalues --  -20.60721 -20.60715 -15.85774 -11.31131 -11.27702
 Alpha  occ. eigenvalues --  -11.27698 -11.27390 -11.26707 -11.26695 -11.22775
 Alpha  occ. eigenvalues --  -11.22628 -11.22553 -11.22425 -11.22039 -11.21982
 Alpha  occ. eigenvalues --   -1.59797  -1.39350  -1.19300  -1.09532  -1.08693
 Alpha  occ. eigenvalues --   -1.04704  -1.04555  -0.96995  -0.95533  -0.88007
 Alpha  occ. eigenvalues --   -0.86099  -0.82370  -0.80630  -0.79387  -0.77416
 Alpha  occ. eigenvalues --   -0.71992  -0.71120  -0.70430  -0.66157  -0.64950
 Alpha  occ. eigenvalues --   -0.64698  -0.62073  -0.61928  -0.60360  -0.58620
 Alpha  occ. eigenvalues --   -0.56302  -0.55208  -0.53652  -0.53416  -0.53032
 Alpha  occ. eigenvalues --   -0.52791  -0.50934  -0.48946  -0.48749  -0.48747
 Alpha  occ. eigenvalues --   -0.47670  -0.46875  -0.46800  -0.44827  -0.44758
 Alpha  occ. eigenvalues --   -0.37272  -0.36312
 Alpha virt. eigenvalues --    0.05109   0.11314   0.16566   0.18728   0.21992
 Alpha virt. eigenvalues --    0.22673   0.24969   0.25650   0.26134   0.27550
 Alpha virt. eigenvalues --    0.29627   0.30447   0.30869   0.31210   0.31983

 Mulliken charges:
               1
     1  C   -0.179913
     2  C   -0.220352
     3  C   -0.170771
     4  C    0.158215
     5  C   -0.170737
     6  C   -0.223723
     7  H    0.238740
     8  H    0.223042
     9  H    0.275340
    10  H    0.275532
    11  H    0.225838
    12  N    0.488016
    13  O   -0.460555
    14  O   -0.460611
    15  C   -0.298878
    16  C   -0.302487
    17  C   -0.476245
    18  H    0.152649
    19  H    0.154439
    20  H    0.143167
    21  H    0.154581
    22  H    0.159023
    23  H    0.157273
    24  H    0.161987
    25  C   -0.304102
    26  C   -0.299794
    27  C   -0.477585
    28  H    0.142134
    29  H    0.151558
    30  H    0.155321
    31  H    0.156144
    32  H    0.156287
    33  H    0.150744
    34  H    0.165723
 Sum of Mulliken charges =  -0.00000

 Dipole moment (field-independent basis, Debye):
    X=             -5.4685    Y=             -0.6769    Z=             -0.5019  Tot=              5.5330
 Quadrupole moment (field-independent basis, Debye-Ang):
   XX=           -127.7732   YY=            -90.3485   ZZ=            -94.7819
   XY=             -3.0315   XZ=             -1.0311   YZ=             -0.9877

 Normal termination of Gaussian 16 at Wed May  5 23:56:53 2021.
