 Gaussian 16, Revision A.03,
 Gaussian 16:  EM64L-G16RevA.03 25-Dec-2016

 -------------
 #p 6-31g* mp2
 -------------

 ------------------------------------------------------
 Input file generated by CHIRIPA (05-May-2021 14:55:21)
 ------------------------------------------------------
 Symbolic Z-matrix:
 Charge =  0 Multiplicity = 1

                         Standard orientation:
 ---------------------------------------------------------------------
 Center     Atomic      Atomic             Coordinates (Angstroms)
 Number     Number       Type             X           Y           Z
 ---------------------------------------------------------------------
      1          6           0       -2.983802   -2.662125    0.470038
      2          6           0       -1.845671   -2.003808    0.947321
      3          6           0       -1.664030   -0.637902    0.710984
      4          6           0       -2.644927    0.041857   -0.009474
      5          6           0       -3.789689   -0.585911   -0.498061
      6          6           0       -3.950473   -1.952327   -0.249860
      7          1           0       -3.116804   -3.723392    0.658238
      8          1           0       -1.093297   -2.552509    1.506700
      9          1           0       -0.792470   -0.103434    1.068958
     10          1           0       -4.522367   -0.012206   -1.052553
     11          1           0       -4.835360   -2.460984   -0.621732
     12          7           0       -2.463671    1.488151   -0.265953
     13          8           0       -3.342469    2.064450   -0.903314
     14          8           0       -1.446236    2.018071    0.175237
     15          6           0        3.507000   -0.391923   -0.445051
     16          6           0        4.611999   -1.303617    0.089529
     17          6           0        4.766430   -2.586857   -0.727319
     18          1           0        2.556226   -0.942340   -0.449108
     19          1           0        3.725362   -0.137530   -1.491472
     20          1           0        4.392336   -1.555093    1.135054
     21          1           0        5.560217   -0.750903    0.092491
     22          1           0        5.009592   -2.353542   -1.768969
     23          1           0        3.835076   -3.162300   -0.720484
     24          1           0        5.561719   -3.223829   -0.327768
     25          6           0        3.340488    0.894987    0.361091
     26          6           0        2.235488    1.806681   -0.173489
     27          6           0        2.081057    3.089921    0.643358
     28          1           0        3.122125    0.640594    1.407512
     29          1           0        4.291260    1.445404    0.365147
     30          1           0        1.287272    1.253967   -0.176452
     31          1           0        2.455151    2.058157   -1.219014
     32          1           0        3.012411    3.665364    0.636523
     33          1           0        1.837895    2.856606    1.685009
     34          1           0        1.285768    3.726893    0.243807
 ---------------------------------------------------------------------

 SCF Done:  E(RHF) =  -669.535879471     A.U. after   15 cycles
 E2 =    -0.2091957791D+01 EUMP2 =    -0.67162783726161D+03

 The electronic state is 1-A.
 Alpha  occ. eigenvalues --  -20.60934 -20.60928 -15.85962 -11.31296 -11.27863
 Alpha  occ. eigenvalues --  -11.27854 -11.27594 -11.26871 -11.26860 -11.21604
 Alpha  occ. eigenvalues --  -11.21281 -11.21155 -11.21025 -11.20807 -11.20043
 Alpha  occ. eigenvalues --   -1.59994  -1.39550  -1.19464  -1.08866  -1.08151
 Alpha  occ. eigenvalues --   -1.04863  -1.03124  -0.95719  -0.95568  -0.86606
 Alpha  occ. eigenvalues --   -0.86263  -0.82541  -0.79244  -0.77933  -0.77569
 Alpha  occ. eigenvalues --   -0.72193  -0.71305  -0.70574  -0.65128  -0.64903
 Alpha  occ. eigenvalues --   -0.64767  -0.62218  -0.60524  -0.58993  -0.57137
 Alpha  occ. eigenvalues --   -0.55365  -0.54899  -0.53191  -0.52958  -0.52222
 Alpha  occ. eigenvalues --   -0.52005  -0.49576  -0.48971  -0.48935  -0.47522
 Alpha  occ. eigenvalues --   -0.46324  -0.45503  -0.45410  -0.44798  -0.43385
 Alpha  occ. eigenvalues --   -0.37441  -0.36463
 Alpha virt. eigenvalues --    0.04902   0.11151   0.16401   0.20494   0.22880
 Alpha virt. eigenvalues --    0.24274   0.26170   0.27401   0.27676   0.28388
 Alpha virt. eigenvalues --    0.29146   0.30437   0.31539   0.31947   0.32813

 Mulliken charges:
               1
     1  C   -0.170461
     2  C   -0.219200
     3  C   -0.172357
     4  C    0.157610
     5  C   -0.170593
     6  C   -0.218506
     7  H    0.226081
     8  H    0.223978
     9  H    0.278621
    10  H    0.275877
    11  H    0.223891
    12  N    0.490514
    13  O   -0.459091
    14  O   -0.462198
    15  C   -0.296345
    16  C   -0.299018
    17  C   -0.474970
    18  H    0.142463
    19  H    0.151189
    20  H    0.149004
    21  H    0.153395
    22  H    0.156356
    23  H    0.151667
    24  H    0.159704
    25  C   -0.298492
    26  C   -0.304405
    27  C   -0.473324
    28  H    0.143932
    29  H    0.149433
    30  H    0.159703
    31  H    0.150554
    32  H    0.147867
    33  H    0.150549
    34  H    0.176574
 Sum of Mulliken charges =  -0.00000

 Dipole moment (field-independent basis, Debye):
    X=             -0.8612    Y=             -4.9704    Z=              0.8411  Tot=              5.1141
 Quadrupole moment (field-independent basis, Debye-Ang):
   XX=            -87.7672   YY=            -96.2460   ZZ=            -94.2014
   XY=             14.1522   XZ=             -0.3663   YZ=             -0.8979

 Normal termination of Gaussian 16 at Thu May  6 15:49:19 2021.
