 Gaussian 16, Revision A.03,
 Gaussian 16:  EM64L-G16RevA.03 25-Dec-2016

 -------------
 #p 6-31g* mp2
 -------------

 ------------------------------------------------------
 Input file generated by CHIRIPA (05-May-2021 14:55:24)
 ------------------------------------------------------
 Symbolic Z-matrix:
 Charge =  0 Multiplicity = 1

                         Standard orientation:
 ---------------------------------------------------------------------
 Center     Atomic      Atomic             Coordinates (Angstroms)
 Number     Number       Type             X           Y           Z
 ---------------------------------------------------------------------
      1          6           0        2.646969    2.516371    0.454079
      2          6           0        1.813343    1.447594    0.799484
      3          6           0        2.171419    0.135062    0.477631
      4          6           0        3.375660   -0.073354   -0.192934
      5          6           0        4.227537    0.970508   -0.550632
      6          6           0        3.849286    2.274842   -0.218690
      7          1           0        2.360971    3.532793    0.708021
      8          1           0        0.879021    1.632188    1.321990
      9          1           0        1.544861   -0.710867    0.733064
     10          1           0        5.152735    0.755090   -1.071231
     11          1           0        4.498663    3.102927   -0.488190
     12          7           0        3.765418   -1.458533   -0.539006
     13          8           0        4.831574   -1.615634   -1.129995
     14          8           0        2.997375   -2.360908   -0.212714
     15          6           0       -3.504928   -0.067064    0.340973
     16          6           0       -2.934315   -1.040761    1.372622
     17          6           0       -1.465598   -0.765351    1.696372
     18          1           0       -2.907779   -0.126289   -0.579271
     19          1           0       -3.397789    0.959625    0.717572
     20          1           0       -3.043754   -2.065401    0.994795
     21          1           0       -3.533009   -0.979349    2.290451
     22          1           0       -1.342568    0.245942    2.097310
     23          1           0       -0.850533   -0.846280    0.794293
     24          1           0       -1.077979   -1.472973    2.435888
     25          6           0       -4.972314   -0.329585    0.006923
     26          6           0       -5.542928    0.644113   -1.024725
     27          6           0       -7.011645    0.368703   -1.348474
     28          1           0       -5.079453   -1.356274   -0.369675
     29          1           0       -5.569463   -0.270360    0.927168
     30          1           0       -4.944233    0.582702   -1.942554
     31          1           0       -5.433488    1.668752   -0.646899
     32          1           0       -7.626709    0.449632   -0.446396
     33          1           0       -7.134675   -0.642590   -1.749413
     34          1           0       -7.399264    1.076324   -2.087991
 ---------------------------------------------------------------------

 SCF Done:  E(RHF) =  -669.535429818     A.U. after   15 cycles
 E2 =    -0.2091494783D+01 EUMP2 =    -0.67162692460094D+03

 The electronic state is 1-A.
 Alpha  occ. eigenvalues --  -20.60703 -20.60698 -15.85753 -11.31085 -11.27666
 Alpha  occ. eigenvalues --  -11.27599 -11.27402 -11.26685 -11.26628 -11.22151
 Alpha  occ. eigenvalues --  -11.21948 -11.21890 -11.21852 -11.21704 -11.21293
 Alpha  occ. eigenvalues --   -1.59778  -1.39332  -1.19260  -1.08857  -1.08664
 Alpha  occ. eigenvalues --   -1.04660  -1.03991  -0.96476  -0.95502  -0.87508
 Alpha  occ. eigenvalues --   -0.86058  -0.82335  -0.80078  -0.78652  -0.77373
 Alpha  occ. eigenvalues --   -0.71973  -0.71101  -0.70381  -0.65488  -0.64912
 Alpha  occ. eigenvalues --   -0.64667  -0.62051  -0.61370  -0.59828  -0.58051
 Alpha  occ. eigenvalues --   -0.55791  -0.55172  -0.53165  -0.53016  -0.52867
 Alpha  occ. eigenvalues --   -0.52745  -0.50394  -0.48733  -0.48728  -0.48372
 Alpha  occ. eigenvalues --   -0.47072  -0.46200  -0.46098  -0.44744  -0.44228
 Alpha  occ. eigenvalues --   -0.37250  -0.36254
 Alpha virt. eigenvalues --    0.05128   0.11376   0.16614   0.20319   0.22589
 Alpha virt. eigenvalues --    0.23878   0.25433   0.25761   0.27224   0.27756
 Alpha virt. eigenvalues --    0.29224   0.29709   0.31350   0.31529   0.32262

 Mulliken charges:
               1
     1  C   -0.171243
     2  C   -0.221847
     3  C   -0.178988
     4  C    0.160018
     5  C   -0.170949
     6  C   -0.218672
     7  H    0.225210
     8  H    0.227235
     9  H    0.282912
    10  H    0.275147
    11  H    0.222975
    12  N    0.487957
    13  O   -0.460794
    14  O   -0.460716
    15  C   -0.299286
    16  C   -0.299505
    17  C   -0.484688
    18  H    0.151617
    19  H    0.146347
    20  H    0.157954
    21  H    0.154093
    22  H    0.148716
    23  H    0.155356
    24  H    0.167344
    25  C   -0.298841
    26  C   -0.299966
    27  C   -0.475992
    28  H    0.151973
    29  H    0.150168
    30  H    0.152894
    31  H    0.150835
    32  H    0.155381
    33  H    0.156481
    34  H    0.160873
 Sum of Mulliken charges =  -0.00000

 Dipole moment (field-independent basis, Debye):
    X=             -1.5732    Y=              4.7935    Z=              1.2200  Tot=              5.1904
 Quadrupole moment (field-independent basis, Debye-Ang):
   XX=           -101.3264   YY=            -94.9749   ZZ=            -94.5934
   XY=             18.3869   XZ=              1.8087   YZ=             -1.5061

 Normal termination of Gaussian 16 at Thu May  6 11:03:29 2021.
