 Gaussian 16, Revision A.03,
 Gaussian 16:  EM64L-G16RevA.03 25-Dec-2016

 -------------
 #p 6-31g* mp2
 -------------

 ------------------------------------------------------
 Input file generated by CHIRIPA (05-May-2021 14:51:09)
 ------------------------------------------------------
 Symbolic Z-matrix:
 Charge =  0 Multiplicity = 1

                         Standard orientation:
 ---------------------------------------------------------------------
 Center     Atomic      Atomic             Coordinates (Angstroms)
 Number     Number       Type             X           Y           Z
 ---------------------------------------------------------------------
      1          6           0        3.144362   -0.241875    0.213571
      2          6           0        2.338838    0.859919    0.902894
      3          6           0        0.845400    0.541027    0.978696
      4          1           0        2.749182   -0.396901   -0.799713
      5          1           0        2.997283   -1.186994    0.754418
      6          1           0        2.488491    1.802972    0.361719
      7          1           0        2.736104    1.012472    1.914587
      8          1           0        0.677206   -0.385702    1.536804
      9          1           0        0.428186    0.409289   -0.024886
     10          1           0        0.288577    1.341861    1.475156
     11          6           0        4.639081    0.062393    0.130120
     12          6           0        5.444605   -1.039402   -0.559202
     13          6           0        6.938042   -0.720510   -0.635005
     14          1           0        4.786159    1.007511   -0.410726
     15          1           0        5.034260    0.217418    1.143405
     16          1           0        5.047338   -1.191955   -1.570895
     17          1           0        5.294952   -1.982455   -0.018028
     18          1           0        7.355257   -0.588772    0.368578
     19          1           0        7.106237    0.206219   -1.193113
     20          1           0        7.494865   -1.521344   -1.131465
     21          6           0       -3.932024   -0.593054    0.168152
     22          6           0       -4.978439   -1.518905   -0.452975
     23          6           0       -5.047181   -2.881092    0.238050
     24          1           0       -2.947942   -1.079265    0.122045
     25          1           0       -4.162151   -0.453595    1.233510
     26          1           0       -4.747198   -1.655468   -1.517163
     27          1           0       -5.960113   -1.030351   -0.405558
     28          1           0       -5.300725   -2.763709    1.296604
     29          1           0       -4.080918   -3.392377    0.178684
     30          1           0       -5.801593   -3.526975   -0.221903
     31          6           0       -3.851419    0.772537   -0.511843
     32          6           0       -2.805003    1.698388    0.109284
     33          6           0       -2.736262    3.060574   -0.581741
     34          1           0       -3.621292    0.633078   -1.577201
     35          1           0       -4.835501    1.258749   -0.465736
     36          1           0       -1.823329    1.209834    0.061865
     37          1           0       -3.036245    1.834951    1.173471
     38          1           0       -3.702525    3.571860   -0.522375
     39          1           0       -2.482717    2.943191   -1.640296
     40          1           0       -1.981849    3.706458   -0.121789
 ---------------------------------------------------------------------

 SCF Done:  E(RHF) =  -470.732669704     A.U. after   11 cycles
 E2 =    -0.1582908035D+01 EUMP2 =    -0.47231557773892D+03

 The electronic state is 1-A.
 Alpha  occ. eigenvalues --  -11.21632 -11.21623 -11.21550 -11.21435 -11.21403
 Alpha  occ. eigenvalues --  -11.21375 -11.21321 -11.21259 -11.21112 -11.21088
 Alpha  occ. eigenvalues --  -11.21032 -11.20997  -1.08463  -1.08344  -1.03575
 Alpha  occ. eigenvalues --   -1.03440  -0.96027  -0.95903  -0.87061  -0.86909
 Alpha  occ. eigenvalues --   -0.79717  -0.79442  -0.78288  -0.78134  -0.65113
 Alpha  occ. eigenvalues --   -0.64968  -0.61050  -0.60788  -0.59460  -0.59206
 Alpha  occ. eigenvalues --   -0.57643  -0.57498  -0.55346  -0.55168  -0.52765
 Alpha  occ. eigenvalues --   -0.52581  -0.52451  -0.52319  -0.50049  -0.49793
 Alpha  occ. eigenvalues --   -0.47967  -0.47811  -0.46784  -0.46424  -0.45877
 Alpha  occ. eigenvalues --   -0.45749  -0.45675  -0.45496  -0.43785  -0.43671
 Alpha virt. eigenvalues --    0.22103   0.23002   0.23755   0.24890   0.25893
 Alpha virt. eigenvalues --    0.26673   0.26970   0.27370   0.27927   0.29162
 Alpha virt. eigenvalues --    0.30492   0.31009   0.31620   0.31776   0.32372

 Mulliken charges:
               1
     1  C   -0.298682
     2  C   -0.299726
     3  C   -0.478815
     4  H    0.149588
     5  H    0.149560
     6  H    0.152180
     7  H    0.152113
     8  H    0.155711
     9  H    0.155101
    10  H    0.163840
    11  C   -0.298311
    12  C   -0.299657
    13  C   -0.475725
    14  H    0.149608
    15  H    0.149762
    16  H    0.151901
    17  H    0.151953
    18  H    0.155230
    19  H    0.155225
    20  H    0.160313
    21  C   -0.298398
    22  C   -0.299532
    23  C   -0.475640
    24  H    0.149906
    25  H    0.149357
    26  H    0.151664
    27  H    0.151828
    28  H    0.155079
    29  H    0.155096
    30  H    0.160028
    31  C   -0.297571
    32  C   -0.310121
    33  C   -0.475264
    34  H    0.148543
    35  H    0.148968
    36  H    0.165998
    37  H    0.150387
    38  H    0.154814
    39  H    0.154283
    40  H    0.159406
 Sum of Mulliken charges =  -0.00000

 Dipole moment (field-independent basis, Debye):
    X=              0.0629    Y=             -0.0127    Z=              0.0236  Tot=              0.0684
 Quadrupole moment (field-independent basis, Debye-Ang):
   XX=            -85.7796   YY=            -85.6370   ZZ=            -83.7108
   XY=             -0.5193   XZ=             -0.1467   YZ=              0.2594

 Normal termination of Gaussian 16 at Thu May  6 03:42:39 2021.
