 Gaussian 16, Revision A.03,
 Gaussian 16:  EM64L-G16RevA.03 25-Dec-2016

 -------------
 #p 6-31g* mp2
 -------------

 ------------------------------------------------------
 Input file generated by CHIRIPA (05-May-2021 14:55:18)
 ------------------------------------------------------
 Symbolic Z-matrix:
 Charge =  0 Multiplicity = 1

                         Standard orientation:
 ---------------------------------------------------------------------
 Center     Atomic      Atomic             Coordinates (Angstroms)
 Number     Number       Type             X           Y           Z
 ---------------------------------------------------------------------
      1          6           0       -0.719599   -1.196139   -0.371343
      2          6           0       -0.854821    0.196014   -0.359295
      3          6           0       -2.110553    0.785930   -0.187000
      4          6           0       -3.214741   -0.050163   -0.028865
      5          6           0       -3.112388   -1.440400   -0.036337
      6          6           0       -1.846826   -2.008471   -0.210110
      7          1           0        0.259702   -1.645915   -0.505760
      8          1           0        0.018851    0.829355   -0.484279
      9          1           0       -2.243802    1.860865   -0.173674
     10          1           0       -4.001724   -2.045679    0.090695
     11          1           0       -1.744805   -3.089931   -0.219048
     12          7           0       -4.549331    0.562792    0.154319
     13          8           0       -5.506575   -0.195814    0.291575
     14          8           0       -4.612869    1.790225    0.157173
     15          6           0        3.420992    0.836194    0.095098
     16          6           0        4.265905    2.103130   -0.042660
     17          6           0        3.426784    3.380629   -0.001811
     18          1           0        2.674067    0.811879   -0.710169
     19          1           0        2.861067    0.878162    1.039619
     20          1           0        4.825128    2.058150   -0.985986
     21          1           0        5.011029    2.124337    0.762917
     22          1           0        2.880378    3.452550    0.944163
     23          1           0        2.693419    3.385986   -0.814675
     24          1           0        4.050778    4.274196   -0.101957
     25          6           0        4.245657   -0.449160    0.056084
     26          6           0        3.400744   -1.716096    0.193842
     27          6           0        4.239864   -2.993595    0.152993
     28          1           0        4.805582   -0.491128   -0.888436
     29          1           0        4.992582   -0.424844    0.861352
     30          1           0        2.655619   -1.737303   -0.611735
     31          1           0        2.841521   -1.671116    1.137168
     32          1           0        4.973229   -2.998952    0.965857
     33          1           0        4.786271   -3.065515   -0.792981
     34          1           0        3.615871   -3.887162    0.253139
 ---------------------------------------------------------------------

 SCF Done:  E(RHF) =  -669.535583850     A.U. after   15 cycles
 E2 =    -0.2091955037D+01 EUMP2 =    -0.67162753888742D+03

 The electronic state is 1-A.
 Alpha  occ. eigenvalues --  -20.60675 -20.60670 -15.85728 -11.31064 -11.27637
 Alpha  occ. eigenvalues --  -11.27624 -11.27306 -11.26636 -11.26591 -11.22899
 Alpha  occ. eigenvalues --  -11.22578 -11.22484 -11.22453 -11.22094 -11.21885
 Alpha  occ. eigenvalues --   -1.59752  -1.39306  -1.19230  -1.09533  -1.08623
 Alpha  occ. eigenvalues --   -1.04631  -1.04564  -0.96983  -0.95467  -0.88000
 Alpha  occ. eigenvalues --   -0.86027  -0.82308  -0.80655  -0.79389  -0.77355
 Alpha  occ. eigenvalues --   -0.71946  -0.71075  -0.70338  -0.66156  -0.64877
 Alpha  occ. eigenvalues --   -0.64627  -0.62000  -0.61937  -0.60377  -0.58617
 Alpha  occ. eigenvalues --   -0.56258  -0.55144  -0.53653  -0.53411  -0.52963
 Alpha  occ. eigenvalues --   -0.52712  -0.50916  -0.48951  -0.48703  -0.48683
 Alpha  occ. eigenvalues --   -0.47676  -0.46890  -0.46796  -0.44828  -0.44718
 Alpha  occ. eigenvalues --   -0.37200  -0.36241
 Alpha virt. eigenvalues --    0.05173   0.11400   0.16662   0.19247   0.22425
 Alpha virt. eigenvalues --    0.22604   0.24968   0.25924   0.26858   0.27097
 Alpha virt. eigenvalues --    0.29261   0.30536   0.30669   0.31206   0.31909

 Mulliken charges:
               1
     1  C   -0.177751
     2  C   -0.226391
     3  C   -0.171725
     4  C    0.158396
     5  C   -0.171029
     6  C   -0.220747
     7  H    0.236042
     8  H    0.229349
     9  H    0.275459
    10  H    0.274995
    11  H    0.223206
    12  N    0.487981
    13  O   -0.460869
    14  O   -0.460767
    15  C   -0.304037
    16  C   -0.299845
    17  C   -0.477425
    18  H    0.143532
    19  H    0.151872
    20  H    0.154569
    21  H    0.155724
    22  H    0.156597
    23  H    0.152594
    24  H    0.165168
    25  C   -0.297553
    26  C   -0.307574
    27  C   -0.475348
    28  H    0.152953
    29  H    0.154863
    30  H    0.144814
    31  H    0.154620
    32  H    0.159841
    33  H    0.158290
    34  H    0.160195
 Sum of Mulliken charges =  -0.00000

 Dipole moment (field-independent basis, Debye):
    X=              5.0766    Y=             -2.1255    Z=             -0.5741  Tot=              5.5335
 Quadrupole moment (field-independent basis, Debye-Ang):
   XX=           -123.5725   YY=            -91.0810   ZZ=            -94.5395
   XY=              9.4240   XZ=              2.1285   YZ=             -0.2156

 Normal termination of Gaussian 16 at Wed May  5 18:51:08 2021.
