 Gaussian 16, Revision A.03,
 Gaussian 16:  EM64L-G16RevA.03 25-Dec-2016

 -------------
 #p 6-31g* mp2
 -------------

 ------------------------------------------------------
 Input file generated by CHIRIPA (05-May-2021 14:53:17)
 ------------------------------------------------------
 Symbolic Z-matrix:
 Charge =  0 Multiplicity = 1

                         Standard orientation:
 ---------------------------------------------------------------------
 Center     Atomic      Atomic             Coordinates (Angstroms)
 Number     Number       Type             X           Y           Z
 ---------------------------------------------------------------------
      1          6           0        4.911732   -0.321180    0.454957
      2          6           0        6.096898   -0.963834   -0.266404
      3          6           0        6.948060   -1.836547    0.656466
      4          1           0        5.284778    0.283706    1.292748
      5          1           0        4.286435   -1.111016    0.893771
      6          1           0        6.719023   -0.173079   -0.704905
      7          1           0        5.720998   -1.567106   -1.102692
      8          1           0        6.346994   -2.645569    1.084023
      9          1           0        7.350690   -1.243621    1.484070
     10          1           0        7.789664   -2.286079    0.120291
     11          6           0        4.051348    0.554293   -0.454446
     12          6           0        2.866182    1.196948    0.266915
     13          6           0        2.015020    2.069661   -0.655955
     14          1           0        4.676645    1.344129   -0.893261
     15          1           0        3.678301   -0.050593   -1.292238
     16          1           0        3.242081    1.800220    1.103203
     17          1           0        2.244056    0.406193    0.705416
     18          1           0        1.612390    1.476735   -1.483559
     19          1           0        2.616085    2.878683   -1.083512
     20          1           0        1.173415    2.519192   -0.119780
     21          6           0       -2.127809    2.024469    0.064979
     22          6           0       -3.357754    1.967644    0.728701
     23          6           0       -4.127143    0.800713    0.699343
     24          6           0       -3.633977   -0.295581   -0.006501
     25          6           0       -2.412495   -0.270001   -0.677779
     26          6           0       -1.659930    0.907434   -0.634910
     27          1           0       -1.536664    2.935049    0.093033
     28          1           0       -3.723613    2.833609    1.273032
     29          1           0       -5.082804    0.729335    1.204353
     30          1           0       -2.074108   -1.149450   -1.212085
     31          1           0       -0.705103    0.948695   -1.151289
     32          7           0       -4.439590   -1.536519   -0.044733
     33          8           0       -3.982890   -2.488670   -0.673599
     34          8           0       -5.512475   -1.533519    0.554889
 ---------------------------------------------------------------------

 SCF Done:  E(RHF) =  -669.535091716     A.U. after   15 cycles
 E2 =    -0.2091597190D+01 EUMP2 =    -0.67162668890566D+03

 The electronic state is 1-A.
 Alpha  occ. eigenvalues --  -20.60721 -20.60716 -15.85772 -11.31123 -11.27687
 Alpha  occ. eigenvalues --  -11.27667 -11.27415 -11.26709 -11.26613 -11.22511
 Alpha  occ. eigenvalues --  -11.22385 -11.22082 -11.22007 -11.21883 -11.21381
 Alpha  occ. eigenvalues --   -1.59797  -1.39351  -1.19287  -1.09089  -1.08686
 Alpha  occ. eigenvalues --   -1.04689  -1.04238  -0.96723  -0.95525  -0.87757
 Alpha  occ. eigenvalues --   -0.86076  -0.82358  -0.80314  -0.78841  -0.77408
 Alpha  occ. eigenvalues --   -0.71992  -0.71119  -0.70410  -0.65746  -0.64939
 Alpha  occ. eigenvalues --   -0.64714  -0.62142  -0.61541  -0.60112  -0.58292
 Alpha  occ. eigenvalues --   -0.56032  -0.55182  -0.53473  -0.53156  -0.52989
 Alpha  occ. eigenvalues --   -0.52733  -0.50616  -0.48750  -0.48746  -0.48614
 Alpha  occ. eigenvalues --   -0.47314  -0.46397  -0.46285  -0.44760  -0.44476
 Alpha  occ. eigenvalues --   -0.37266  -0.36285
 Alpha virt. eigenvalues --    0.05113   0.11317   0.16592   0.19908   0.22559
 Alpha virt. eigenvalues --    0.23980   0.25172   0.26040   0.26467   0.27241
 Alpha virt. eigenvalues --    0.28954   0.29829   0.31199   0.31564   0.32545

 Mulliken charges:
               1
     1  C   -0.299054
     2  C   -0.300201
     3  C   -0.476163
     4  H    0.150654
     5  H    0.151252
     6  H    0.152309
     7  H    0.152739
     8  H    0.156399
     9  H    0.155591
    10  H    0.161663
    11  C   -0.299216
    12  C   -0.300415
    13  C   -0.482407
    14  H    0.150972
    15  H    0.149901
    16  H    0.155425
    17  H    0.154764
    18  H    0.151172
    19  H    0.161962
    20  H    0.154513
    21  C   -0.175810
    22  C   -0.218373
    23  C   -0.171422
    24  C    0.158895
    25  C   -0.173308
    26  C   -0.222420
    27  H    0.226546
    28  H    0.223110
    29  H    0.275264
    30  H    0.275243
    31  H    0.233694
    32  N    0.488058
    33  O   -0.460690
    34  O   -0.460646
 Sum of Mulliken charges =  -0.00000

 Dipole moment (field-independent basis, Debye):
    X=              3.0981    Y=              4.3603    Z=              0.1689  Tot=              5.3515
 Quadrupole moment (field-independent basis, Debye-Ang):
   XX=           -112.7066   YY=            -96.7015   ZZ=            -94.0456
   XY=            -17.6834   XZ=             -2.9886   YZ=              1.9439

 Normal termination of Gaussian 16 at Wed May  5 20:24:52 2021.
