 Gaussian 16, Revision A.03,
 Gaussian 16:  EM64L-G16RevA.03 25-Dec-2016

 -------------
 #p 6-31g* mp2
 -------------

 ------------------------------------------------------
 Input file generated by CHIRIPA (05-May-2021 14:51:09)
 ------------------------------------------------------
 Symbolic Z-matrix:
 Charge =  0 Multiplicity = 1

                         Standard orientation:
 ---------------------------------------------------------------------
 Center     Atomic      Atomic             Coordinates (Angstroms)
 Number     Number       Type             X           Y           Z
 ---------------------------------------------------------------------
      1          6           0       -3.771119    0.473135    0.277506
      2          6           0       -3.049958    1.746722   -0.165085
      3          6           0       -1.747492    1.984678    0.599608
      4          1           0       -3.982134    0.534091    1.353936
      5          1           0       -3.100963   -0.386503    0.138549
      6          1           0       -3.721767    2.603530   -0.026631
      7          1           0       -2.840805    1.682810   -1.240625
      8          1           0       -1.056064    1.148712    0.452335
      9          1           0       -1.942032    2.074663    1.673227
     10          1           0       -1.248412    2.900308    0.267343
     11          6           0       -5.074920    0.221581   -0.477843
     12          6           0       -5.796080   -1.052007   -0.035253
     13          6           0       -7.098546   -1.289963   -0.799945
     14          1           0       -5.745076    1.081219   -0.338887
     15          1           0       -4.863904    0.160624   -1.554273
     16          1           0       -6.005233   -0.988094    1.040287
     17          1           0       -5.124271   -1.908814   -0.173706
     18          1           0       -6.904006   -1.379948   -1.873564
     19          1           0       -7.789974   -0.453997   -0.652673
     20          1           0       -7.597626   -2.205593   -0.467680
     21          6           0        5.167428   -0.209914    0.202133
     22          6           0        5.937995   -0.041782   -1.107807
     23          6           0        7.425910    0.232635   -0.887356
     24          1           0        5.288312    0.697021    0.810248
     25          1           0        5.611820   -1.033704    0.777703
     26          1           0        5.491415    0.780544   -1.681359
     27          1           0        5.815105   -0.949146   -1.712956
     28          1           0        7.892013   -0.590710   -0.336493
     29          1           0        7.566484    1.148807   -0.304717
     30          1           0        7.957584    0.349476   -1.836846
     31          6           0        3.678610   -0.484802   -0.001796
     32          6           0        2.908043   -0.652933    1.308145
     33          6           0        1.420128   -0.927350    1.087694
     34          1           0        3.234219    0.338988   -0.577366
     35          1           0        3.557726   -1.391736   -0.609909
     36          1           0        3.030934    0.254430    1.913293
     37          1           0        3.354623   -1.475259    1.881697
     38          1           0        1.279555   -1.843523    0.505054
     39          1           0        0.954025   -0.104005    0.536831
     40          1           0        0.888454   -1.044192    2.037184
 ---------------------------------------------------------------------

 SCF Done:  E(RHF) =  -470.733265186     A.U. after   11 cycles
 E2 =    -0.1582243308D+01 EUMP2 =    -0.47231550849347D+03

 The electronic state is 1-A.
 Alpha  occ. eigenvalues --  -11.21600 -11.21596 -11.21577 -11.21568 -11.21402
 Alpha  occ. eigenvalues --  -11.21371 -11.21343 -11.21311 -11.21069 -11.21065
 Alpha  occ. eigenvalues --  -11.21052 -11.21013  -1.08428  -1.08397  -1.03535
 Alpha  occ. eigenvalues --   -1.03493  -0.96001  -0.95930  -0.87038  -0.86930
 Alpha  occ. eigenvalues --   -0.79633  -0.79525  -0.78245  -0.78204  -0.65075
 Alpha  occ. eigenvalues --   -0.65015  -0.61020  -0.60822  -0.59347  -0.59314
 Alpha  occ. eigenvalues --   -0.57625  -0.57535  -0.55448  -0.55087  -0.52692
 Alpha  occ. eigenvalues --   -0.52646  -0.52484  -0.52287  -0.50117  -0.49701
 Alpha  occ. eigenvalues --   -0.47981  -0.47805  -0.46728  -0.46465  -0.45807
 Alpha  occ. eigenvalues --   -0.45745  -0.45710  -0.45611  -0.43781  -0.43755
 Alpha virt. eigenvalues --    0.22320   0.22980   0.23608   0.24686   0.25975
 Alpha virt. eigenvalues --    0.26755   0.27059   0.27585   0.27742   0.28911
 Alpha virt. eigenvalues --    0.30304   0.31663   0.31788   0.31922   0.32007

 Mulliken charges:
               1
     1  C   -0.298496
     2  C   -0.299105
     3  C   -0.482933
     4  H    0.149531
     5  H    0.150295
     6  H    0.151683
     7  H    0.151641
     8  H    0.162708
     9  H    0.155178
    10  H    0.159374
    11  C   -0.298289
    12  C   -0.299649
    13  C   -0.475687
    14  H    0.149395
    15  H    0.149574
    16  H    0.151887
    17  H    0.152039
    18  H    0.155139
    19  H    0.155118
    20  H    0.160179
    21  C   -0.298319
    22  C   -0.299663
    23  C   -0.475709
    24  H    0.149772
    25  H    0.149520
    26  H    0.151951
    27  H    0.151877
    28  H    0.155175
    29  H    0.155218
    30  H    0.160234
    31  C   -0.298576
    32  C   -0.299232
    33  C   -0.481534
    34  H    0.149750
    35  H    0.149477
    36  H    0.152432
    37  H    0.151872
    38  H    0.154774
    39  H    0.160460
    40  H    0.160938
 Sum of Mulliken charges =  -0.00000

 Dipole moment (field-independent basis, Debye):
    X=              0.0164    Y=             -0.0095    Z=              0.0082  Tot=              0.0207
 Quadrupole moment (field-independent basis, Debye-Ang):
   XX=            -86.7059   YY=            -83.6740   ZZ=            -84.5010
   XY=             -0.9424   XZ=             -0.8157   YZ=              0.2669

 Normal termination of Gaussian 16 at Thu May  6 02:09:40 2021.
