 Gaussian 16, Revision A.03,
 Gaussian 16:  EM64L-G16RevA.03 25-Dec-2016

 -------------
 #p 6-31g* mp2
 -------------

 ------------------------------------------------------
 Input file generated by CHIRIPA (05-May-2021 14:51:12)
 ------------------------------------------------------
 Symbolic Z-matrix:
 Charge =  0 Multiplicity = 1

                         Standard orientation:
 ---------------------------------------------------------------------
 Center     Atomic      Atomic             Coordinates (Angstroms)
 Number     Number       Type             X           Y           Z
 ---------------------------------------------------------------------
      1          6           0       -4.480046   -0.007088    0.156453
      2          6           0       -5.274079   -1.096296   -0.565436
      3          6           0       -6.753718   -0.744035   -0.721557
      4          1           0       -4.923671    0.165983    1.146498
      5          1           0       -4.576739    0.936273   -0.398628
      6          1           0       -5.174784   -2.037650   -0.009909
      7          1           0       -4.828396   -1.266929   -1.553801
      8          1           0       -6.871024    0.181271   -1.294836
      9          1           0       -7.219380   -0.593828    0.257829
     10          1           0       -7.302473   -1.536336   -1.240197
     11          6           0       -2.999185   -0.344690    0.320166
     12          6           0       -2.205152    0.744518    1.042055
     13          6           0       -0.725513    0.392258    1.198177
     14          1           0       -2.902492   -1.288051    0.875247
     15          1           0       -2.555560   -0.517761   -0.669878
     16          1           0       -2.650835    0.915151    2.030421
     17          1           0       -2.304447    1.685872    0.486528
     18          1           0       -0.259851    0.242051    0.218790
     19          1           0       -0.608208   -0.533049    1.771455
     20          1           0       -0.176758    1.184558    1.716817
     21          6           0        4.061059   -0.450486   -0.534552
     22          6           0        4.888047   -1.244149    0.477464
     23          6           0        5.524732   -2.494432   -0.130169
     24          1           0        3.276584   -1.099650   -0.947022
     25          1           0        4.704070   -0.162740   -1.377840
     26          1           0        4.243998   -1.529126    1.319251
     27          1           0        5.670524   -0.592965    0.887713
     28          1           0        6.189648   -2.225030   -0.957158
     29          1           0        4.755016   -3.166510   -0.523169
     30          1           0        6.111279   -3.046728    0.610637
     31          6           0        3.418172    0.802264    0.057933
     32          6           0        2.591185    1.595927   -0.954083
     33          6           0        1.954499    2.846210   -0.346450
     34          1           0        2.775161    0.514517    0.901220
     35          1           0        4.202647    1.451428    0.470402
     36          1           0        1.808706    0.944743   -1.364332
     37          1           0        3.235233    1.880904   -1.795871
     38          1           0        2.724215    3.518288    0.046548
     39          1           0        1.289584    2.576808    0.480538
     40          1           0        1.367953    3.398506   -1.087256
 ---------------------------------------------------------------------

 SCF Done:  E(RHF) =  -470.732737895     A.U. after   11 cycles
 E2 =    -0.1583314270D+01 EUMP2 =    -0.47231605216504D+03

 The electronic state is 1-A.
 Alpha  occ. eigenvalues --  -11.21659 -11.21628 -11.21557 -11.21543 -11.21447
 Alpha  occ. eigenvalues --  -11.21385 -11.21341 -11.21275 -11.21152 -11.21091
 Alpha  occ. eigenvalues --  -11.21038 -11.20944  -1.08476  -1.08366  -1.03598
 Alpha  occ. eigenvalues --   -1.03454  -0.96058  -0.95896  -0.87070  -0.86924
 Alpha  occ. eigenvalues --   -0.79655  -0.79530  -0.78284  -0.78183  -0.65156
 Alpha  occ. eigenvalues --   -0.64965  -0.61160  -0.60736  -0.59444  -0.59252
 Alpha  occ. eigenvalues --   -0.57703  -0.57485  -0.55453  -0.55062  -0.52774
 Alpha  occ. eigenvalues --   -0.52612  -0.52489  -0.52285  -0.49981  -0.49824
 Alpha  occ. eigenvalues --   -0.47964  -0.47845  -0.46670  -0.46550  -0.45844
 Alpha  occ. eigenvalues --   -0.45761  -0.45682  -0.45647  -0.43795  -0.43718
 Alpha virt. eigenvalues --    0.20926   0.23004   0.23660   0.25060   0.26010
 Alpha virt. eigenvalues --    0.26200   0.26776   0.27620   0.28006   0.29156
 Alpha virt. eigenvalues --    0.30035   0.30953   0.31676   0.31891   0.32388

 Mulliken charges:
               1
     1  C   -0.298351
     2  C   -0.299693
     3  C   -0.475735
     4  H    0.149776
     5  H    0.149738
     6  H    0.151938
     7  H    0.151978
     8  H    0.155267
     9  H    0.155229
    10  H    0.160338
    11  C   -0.298630
    12  C   -0.300521
    13  C   -0.481287
    14  H    0.149586
    15  H    0.149625
    16  H    0.152229
    17  H    0.153007
    18  H    0.159083
    19  H    0.155181
    20  H    0.162551
    21  C   -0.298105
    22  C   -0.299647
    23  C   -0.475675
    24  H    0.149387
    25  H    0.149226
    26  H    0.152126
    27  H    0.151780
    28  H    0.155056
    29  H    0.155123
    30  H    0.160086
    31  C   -0.300875
    32  C   -0.299891
    33  C   -0.481012
    34  H    0.153138
    35  H    0.149250
    36  H    0.151601
    37  H    0.151729
    38  H    0.154359
    39  H    0.162014
    40  H    0.159024
 Sum of Mulliken charges =  -0.00000

 Dipole moment (field-independent basis, Debye):
    X=             -0.0471    Y=             -0.0103    Z=              0.0270  Tot=              0.0552
 Quadrupole moment (field-independent basis, Debye-Ang):
   XX=            -85.6080   YY=            -85.2886   ZZ=            -84.0463
   XY=              1.1023   XZ=             -0.3902   YZ=             -0.7496

 Normal termination of Gaussian 16 at Wed May  5 18:17:47 2021.
