 Gaussian 16, Revision A.03,
 Gaussian 16:  EM64L-G16RevA.03 25-Dec-2016

 -------------
 #p 6-31g* mp2
 -------------

 ------------------------------------------------------
 Input file generated by CHIRIPA (05-May-2021 14:51:09)
 ------------------------------------------------------
 Symbolic Z-matrix:
 Charge =  0 Multiplicity = 1

                         Standard orientation:
 ---------------------------------------------------------------------
 Center     Atomic      Atomic             Coordinates (Angstroms)
 Number     Number       Type             X           Y           Z
 ---------------------------------------------------------------------
      1          6           0        3.135492    0.324803    0.446817
      2          6           0        1.937148   -0.478855    0.952871
      3          6           0        0.760504    0.408037    1.361192
      4          1           0        3.456671    1.024790    1.230276
      5          1           0        2.822005    0.937108   -0.410039
      6          1           0        2.253138   -1.090507    1.807651
      7          1           0        1.618905   -1.177144    0.168187
      8          1           0        0.417514    1.008045    0.512105
      9          1           0        1.055350    1.095175    2.160884
     10          1           0       -0.085211   -0.186962    1.719803
     11          6           0        4.319738   -0.547857    0.034803
     12          6           0        5.518082    0.255801   -0.471250
     13          6           0        6.694726   -0.631091   -0.879571
     14          1           0        4.633226   -1.160162    0.891659
     15          1           0        3.998560   -1.247843   -0.748656
     16          1           0        5.836325    0.954091    0.313434
     17          1           0        5.202092    0.867453   -1.326030
     18          1           0        6.399880   -1.318229   -1.679264
     19          1           0        7.037716   -1.231099   -0.030484
     20          1           0        7.540441   -0.036092   -1.238182
     21          6           0       -3.602793   -0.620100   -0.421294
     22          6           0       -4.683371   -1.566703    0.102426
     23          6           0       -4.419653   -3.026842   -0.266678
     24          1           0       -3.536963   -0.717536   -1.513593
     25          1           0       -2.627826   -0.930248   -0.020494
     26          1           0       -5.656202   -1.254028   -0.298137
     27          1           0       -4.746768   -1.466861    1.193585
     28          1           0       -3.462611   -3.361768    0.146236
     29          1           0       -4.377211   -3.147727   -1.353962
     30          1           0       -5.204251   -3.686084    0.117597
     31          6           0       -3.852437    0.843153   -0.060327
     32          6           0       -2.771860    1.789756   -0.584046
     33          6           0       -3.035577    3.249897   -0.214943
     34          1           0       -4.827404    1.153302   -0.461127
     35          1           0       -3.918267    0.940590    1.031973
     36          1           0       -2.708462    1.689915   -1.675205
     37          1           0       -1.799028    1.477083   -0.183484
     38          1           0       -3.078019    3.370780    0.872341
     39          1           0       -3.992619    3.584823   -0.627857
     40          1           0       -2.250979    3.909137   -0.599217
 ---------------------------------------------------------------------

 SCF Done:  E(RHF) =  -470.733216030     A.U. after   11 cycles
 E2 =    -0.1582740015D+01 EUMP2 =    -0.47231595604466D+03

 The electronic state is 1-A.
 Alpha  occ. eigenvalues --  -11.21656 -11.21620 -11.21579 -11.21493 -11.21438
 Alpha  occ. eigenvalues --  -11.21377 -11.21361 -11.21298 -11.21152 -11.21085
 Alpha  occ. eigenvalues --  -11.21058 -11.21012  -1.08467  -1.08382  -1.03577
 Alpha  occ. eigenvalues --   -1.03480  -0.96028  -0.95936  -0.87054  -0.86947
 Alpha  occ. eigenvalues --   -0.79674  -0.79518  -0.78285  -0.78187  -0.65129
 Alpha  occ. eigenvalues --   -0.64991  -0.61054  -0.60814  -0.59394  -0.59308
 Alpha  occ. eigenvalues --   -0.57657  -0.57529  -0.55340  -0.55208  -0.52739
 Alpha  occ. eigenvalues --   -0.52622  -0.52469  -0.52349  -0.50064  -0.49821
 Alpha  occ. eigenvalues --   -0.48024  -0.47807  -0.46804  -0.46449  -0.45853
 Alpha  occ. eigenvalues --   -0.45772  -0.45718  -0.45512  -0.43817  -0.43736
 Alpha virt. eigenvalues --    0.21306   0.23041   0.23909   0.24381   0.26058
 Alpha virt. eigenvalues --    0.26675   0.27125   0.27282   0.27904   0.29372
 Alpha virt. eigenvalues --    0.30033   0.31581   0.31679   0.31857   0.32236

 Mulliken charges:
               1
     1  C   -0.298697
     2  C   -0.299522
     3  C   -0.481721
     4  H    0.149747
     5  H    0.149957
     6  H    0.152070
     7  H    0.152412
     8  H    0.160352
     9  H    0.155813
    10  H    0.160366
    11  C   -0.298368
    12  C   -0.299702
    13  C   -0.475736
    14  H    0.149577
    15  H    0.149823
    16  H    0.151970
    17  H    0.152019
    18  H    0.155248
    19  H    0.155203
    20  H    0.160331
    21  C   -0.299846
    22  C   -0.299598
    23  C   -0.475656
    24  H    0.149366
    25  H    0.150738
    26  H    0.151940
    27  H    0.151836
    28  H    0.155011
    29  H    0.155093
    30  H    0.160192
    31  C   -0.297313
    32  C   -0.309056
    33  C   -0.475075
    34  H    0.149196
    35  H    0.149511
    36  H    0.150853
    37  H    0.161920
    38  H    0.155302
    39  H    0.154833
    40  H    0.159610
 Sum of Mulliken charges =  -0.00000

 Dipole moment (field-independent basis, Debye):
    X=              0.0489    Y=             -0.0018    Z=              0.0127  Tot=              0.0506
 Quadrupole moment (field-independent basis, Debye-Ang):
   XX=            -85.3440   YY=            -86.3071   ZZ=            -83.2568
   XY=              0.5240   XZ=              1.1090   YZ=             -0.3988

 Normal termination of Gaussian 16 at Thu May  6 05:19:45 2021.
