 Gaussian 16, Revision A.03,
 Gaussian 16:  EM64L-G16RevA.03 25-Dec-2016

 -------------
 #p 6-31g* mp2
 -------------

 ------------------------------------------------------
 Input file generated by CHIRIPA (05-May-2021 14:53:17)
 ------------------------------------------------------
 Symbolic Z-matrix:
 Charge =  0 Multiplicity = 1

                         Standard orientation:
 ---------------------------------------------------------------------
 Center     Atomic      Atomic             Coordinates (Angstroms)
 Number     Number       Type             X           Y           Z
 ---------------------------------------------------------------------
      1          6           0        5.285599    0.478983   -0.184770
      2          6           0        6.738646    0.068740    0.056764
      3          6           0        7.725303    1.207766   -0.201930
      4          1           0        5.177934    0.831285   -1.219776
      5          1           0        5.040250    1.332048    0.462901
      6          1           0        6.980765   -0.784180   -0.590169
      7          1           0        6.842823   -0.282807    1.091258
      8          1           0        7.511902    2.058545    0.453231
      9          1           0        7.650629    1.554324   -1.237750
     10          1           0        8.758079    0.892642   -0.023238
     11          6           0        4.287326   -0.649038    0.069689
     12          6           0        2.834278   -0.238795   -0.171845
     13          6           0        1.847621   -1.377821    0.086849
     14          1           0        4.532675   -1.502103   -0.577982
     15          1           0        4.394990   -1.001340    1.104694
     16          1           0        2.730102    0.112752   -1.206339
     17          1           0        2.592159    0.614125    0.475088
     18          1           0        1.922296   -1.724379    1.122669
     19          1           0        2.061022   -2.228600   -0.568312
     20          1           0        0.814846   -1.062697   -0.091844
     21          6           0       -2.983963   -2.340135    0.105428
     22          6           0       -4.218047   -2.007930   -0.463077
     23          6           0       -4.646788   -0.677813   -0.502052
     24          6           0       -3.812459    0.299085    0.039107
     25          6           0       -2.577505   -0.000227    0.612337
     26          6           0       -2.169068   -1.336992    0.640377
     27          1           0       -2.658792   -3.375984    0.131458
     28          1           0       -4.852979   -2.784898   -0.879282
     29          1           0       -5.597405   -0.392685   -0.936158
     30          1           0       -1.966431    0.796276    1.019262
     31          1           0       -1.210162   -1.592058    1.082516
     32          7           0       -4.255601    1.710739    0.003633
     33          8           0       -3.502102    2.552828    0.487123
     34          8           0       -5.348044    1.948375   -0.506988
 ---------------------------------------------------------------------

 SCF Done:  E(RHF) =  -669.535508320     A.U. after   15 cycles
 E2 =    -0.2091043759D+01 EUMP2 =    -0.67162655207884D+03

 The electronic state is 1-A.
 Alpha  occ. eigenvalues --  -20.60751 -20.60746 -15.85804 -11.31171 -11.27747
 Alpha  occ. eigenvalues --  -11.27738 -11.27474 -11.26756 -11.26699 -11.22156
 Alpha  occ. eigenvalues --  -11.21906 -11.21848 -11.21812 -11.21666 -11.21249
 Alpha  occ. eigenvalues --   -1.59826  -1.39380  -1.19345  -1.08826  -1.08735
 Alpha  occ. eigenvalues --   -1.04749  -1.03967  -0.96442  -0.95571  -0.87474
 Alpha  occ. eigenvalues --   -0.86137  -0.82405  -0.80037  -0.78607  -0.77452
 Alpha  occ. eigenvalues --   -0.72022  -0.71149  -0.70447  -0.65452  -0.64994
 Alpha  occ. eigenvalues --   -0.64769  -0.62140  -0.61357  -0.59806  -0.58029
 Alpha  occ. eigenvalues --   -0.55726  -0.55242  -0.53375  -0.53043  -0.52877
 Alpha  occ. eigenvalues --   -0.52603  -0.50372  -0.48780  -0.48777  -0.48345
 Alpha  occ. eigenvalues --   -0.47048  -0.46160  -0.46062  -0.44785  -0.44210
 Alpha  occ. eigenvalues --   -0.37318  -0.36336
 Alpha virt. eigenvalues --    0.05067   0.11252   0.16462   0.20890   0.22590
 Alpha virt. eigenvalues --    0.23924   0.26148   0.26473   0.27093   0.28271
 Alpha virt. eigenvalues --    0.28641   0.30474   0.31032   0.31361   0.32205

 Mulliken charges:
               1
     1  C   -0.298880
     2  C   -0.299926
     3  C   -0.475984
     4  H    0.150966
     5  H    0.150906
     6  H    0.151915
     7  H    0.151944
     8  H    0.156026
     9  H    0.155871
    10  H    0.160845
    11  C   -0.298917
    12  C   -0.299104
    13  C   -0.483961
    14  H    0.149835
    15  H    0.149502
    16  H    0.155636
    17  H    0.153457
    18  H    0.152432
    19  H    0.157723
    20  H    0.158689
    21  C   -0.172161
    22  C   -0.218569
    23  C   -0.170832
    24  C    0.158687
    25  C   -0.172928
    26  C   -0.221038
    27  H    0.226092
    28  H    0.223367
    29  H    0.275584
    30  H    0.275727
    31  H    0.229945
    32  N    0.488111
    33  O   -0.460437
    34  O   -0.460525
 Sum of Mulliken charges =  -0.00000

 Dipole moment (field-independent basis, Debye):
    X=              1.6822    Y=             -4.9613    Z=              0.0887  Tot=              5.2395
 Quadrupole moment (field-independent basis, Debye-Ang):
   XX=           -103.4021   YY=            -98.3947   ZZ=            -93.4833
   XY=             20.5071   XZ=              1.7828   YZ=              1.0132

 Normal termination of Gaussian 16 at Thu May  6 06:00:57 2021.
