 Gaussian 16, Revision A.03,
 Gaussian 16:  EM64L-G16RevA.03 25-Dec-2016

 -------------
 #p 6-31g* mp2
 -------------

 ------------------------------------------------------
 Input file generated by CHIRIPA (05-May-2021 14:57:24)
 ------------------------------------------------------
 Symbolic Z-matrix:
 Charge =  0 Multiplicity = 1

                         Standard orientation:
 ---------------------------------------------------------------------
 Center     Atomic      Atomic             Coordinates (Angstroms)
 Number     Number       Type             X           Y           Z
 ---------------------------------------------------------------------
      1          6           0       -1.855273    1.257387    0.771107
      2          6           0       -1.874359   -0.140490    0.816882
      3          6           0       -3.025613   -0.847033    0.456385
      4          6           0       -4.144886   -0.120463    0.053131
      5          6           0       -4.157002    1.272376   -0.002941
      6          6           0       -2.994647    1.958123    0.362062
      7          1           0       -0.956639    1.798170    1.052900
      8          1           0       -0.990978   -0.687318    1.134155
      9          1           0       -3.067859   -1.929136    0.482588
     10          1           0       -5.053109    1.789794   -0.323393
     11          1           0       -2.982704    3.043743    0.325545
     12          7           0       -5.369544   -0.857441   -0.330897
     13          8           0       -6.342531   -0.193956   -0.682637
     14          8           0       -5.333254   -2.084614   -0.272886
     15          6           0        5.138949   -2.213252    0.087744
     16          6           0        3.741454   -2.174515    0.042722
     17          6           0        3.068262   -0.954437   -0.070288
     18          6           0        3.827432    0.212872   -0.136161
     19          6           0        5.220795    0.207015   -0.093764
     20          6           0        5.872866   -1.024459    0.019477
     21          1           0        5.653697   -3.165464    0.175623
     22          1           0        3.168900   -3.096164    0.095541
     23          1           0        1.987253   -0.895563   -0.107311
     24          1           0        5.764305    1.142439   -0.148504
     25          1           0        6.958271   -1.051515    0.054214
     26          7           0        3.125935    1.510546   -0.255923
     27          8           0        3.817762    2.524867   -0.312194
     28          8           0        1.897555    1.488771   -0.291252
 ---------------------------------------------------------------------

 SCF Done:  E(RHF) =  -868.339454412     A.U. after   16 cycles
 E2 =    -0.2598641811D+01 EUMP2 =    -0.87093809622262D+03

 The electronic state is 1-A.
 Alpha  occ. eigenvalues --  -20.61773 -20.61710 -20.60377 -20.60366 -15.86784
 Alpha  occ. eigenvalues --  -15.85428 -11.31961 -11.30634 -11.28553 -11.28468
 Alpha  occ. eigenvalues --  -11.28175 -11.27478 -11.27436 -11.27273 -11.27202
 Alpha  occ. eigenvalues --  -11.26736 -11.26201 -11.26073  -1.60807  -1.59455
 Alpha  occ. eigenvalues --   -1.40370  -1.39014  -1.20106  -1.18794  -1.09528
 Alpha  occ. eigenvalues --   -1.08169  -1.05484  -1.04201  -0.96401  -0.95032
 Alpha  occ. eigenvalues --   -0.86888  -0.85580  -0.83245  -0.81897  -0.78322
 Alpha  occ. eigenvalues --   -0.77007  -0.73021  -0.72114  -0.71647  -0.71209
 Alpha  occ. eigenvalues --   -0.70779  -0.69769  -0.65761  -0.65480  -0.64431
 Alpha  occ. eigenvalues --   -0.64203  -0.62842  -0.61574  -0.55970  -0.54524
 Alpha  occ. eigenvalues --   -0.53815  -0.53573  -0.52505  -0.52291  -0.49779
 Alpha  occ. eigenvalues --   -0.49736  -0.48412  -0.48389  -0.45815  -0.44456
 Alpha  occ. eigenvalues --   -0.38059  -0.37078  -0.36676  -0.35829
 Alpha virt. eigenvalues --    0.04193   0.05566   0.10577   0.11815   0.15724
 Alpha virt. eigenvalues --    0.17108   0.19857   0.22031   0.25390   0.27099
 Alpha virt. eigenvalues --    0.28564   0.29152   0.30555   0.31060   0.32448

 Mulliken charges:
               1
     1  C   -0.167688
     2  C   -0.220785
     3  C   -0.171807
     4  C    0.157115
     5  C   -0.170842
     6  C   -0.220279
     7  H    0.243890
     8  H    0.215795
     9  H    0.270962
    10  H    0.274090
    11  H    0.225018
    12  N    0.488378
    13  O   -0.461445
    14  O   -0.463613
    15  C   -0.169832
    16  C   -0.218183
    17  C   -0.172290
    18  C    0.158427
    19  C   -0.170131
    20  C   -0.218227
    21  H    0.228556
    22  H    0.225050
    23  H    0.270943
    24  H    0.277073
    25  H    0.226132
    26  N    0.490695
    27  O   -0.455638
    28  O   -0.471365
 Sum of Mulliken charges =  -0.00000

 Dipole moment (field-independent basis, Debye):
    X=              7.2580    Y=             -1.8229    Z=              1.7773  Tot=              7.6916
 Quadrupole moment (field-independent basis, Debye-Ang):
   XX=           -116.8539   YY=           -102.7118   ZZ=           -106.3703
   XY=            -29.0808   XZ=             -3.6956   YZ=             -0.1819

 Normal termination of Gaussian 16 at Fri May  7 01:54:33 2021.
