 Gaussian 16, Revision A.03,
 Gaussian 16:  EM64L-G16RevA.03 25-Dec-2016

 -------------
 #p 6-31g* mp2
 -------------

 ------------------------------------------------------
 Input file generated by CHIRIPA (05-May-2021 14:51:11)
 ------------------------------------------------------
 Symbolic Z-matrix:
 Charge =  0 Multiplicity = 1

                         Standard orientation:
 ---------------------------------------------------------------------
 Center     Atomic      Atomic             Coordinates (Angstroms)
 Number     Number       Type             X           Y           Z
 ---------------------------------------------------------------------
      1          6           0        3.014886    0.869195   -0.477620
      2          6           0        2.310474    1.721307    0.578644
      3          6           0        1.181301    2.571449   -0.004468
      4          1           0        3.415867    1.526006   -1.261685
      5          1           0        2.276814    0.216413   -0.963953
      6          1           0        3.049900    2.371300    1.063798
      7          1           0        1.911289    1.062407    1.360384
      8          1           0        0.422392    1.935700   -0.471887
      9          1           0        1.567472    3.252030   -0.770159
     10          1           0        0.691436    3.172592    0.767879
     11          6           0        4.146143    0.013720    0.089961
     12          6           0        4.850555   -0.838392   -0.966303
     13          6           0        5.979728   -1.688534   -0.383191
     14          1           0        4.884215    0.666503    0.576294
     15          1           0        3.745162   -0.643090    0.874026
     16          1           0        5.249740   -0.179492   -1.748044
     17          1           0        4.111129   -1.488385   -1.451458
     18          1           0        5.593557   -2.369115    0.382499
     19          1           0        6.738637   -1.052785    0.084228
     20          1           0        6.469593   -2.289677   -1.155538
     21          6           0       -4.208010   -0.704914   -0.152974
     22          6           0       -5.254687    0.377950   -0.417276
     23          6           0       -6.504246   -0.164585   -1.111576
     24          1           0       -3.925633   -1.173326   -1.105759
     25          1           0       -4.656755   -1.496157    0.463432
     26          1           0       -4.803695    1.167587   -1.031845
     27          1           0       -5.534464    0.843969    0.536226
     28          1           0       -6.980052   -0.937643   -0.499538
     29          1           0       -6.245131   -0.612185   -2.076519
     30          1           0       -7.239240    0.626295   -1.290885
     31          6           0       -2.953020   -0.178001    0.540633
     32          6           0       -1.906342   -1.260865    0.804936
     33          6           0       -0.656783   -0.718330    1.499236
     34          1           0       -2.504273    0.613242   -0.075773
     35          1           0       -3.235395    0.290410    1.493418
     36          1           0       -1.626566   -1.726884   -0.148568
     37          1           0       -2.357335   -2.050503    1.419504
     38          1           0       -0.915898   -0.270729    2.464178
     39          1           0       -0.180978    0.054727    0.887197
     40          1           0        0.078212   -1.509210    1.678544
 ---------------------------------------------------------------------

 SCF Done:  E(RHF) =  -470.732471959     A.U. after   11 cycles
 E2 =    -0.1583650828D+01 EUMP2 =    -0.47231612278687D+03

 The electronic state is 1-A.
 Alpha  occ. eigenvalues --  -11.21622 -11.21603 -11.21587 -11.21531 -11.21418
 Alpha  occ. eigenvalues --  -11.21384 -11.21359 -11.21325 -11.21093 -11.21072
 Alpha  occ. eigenvalues --  -11.21060 -11.21051  -1.08456  -1.08402  -1.03595
 Alpha  occ. eigenvalues --   -1.03476  -0.96042  -0.95934  -0.87019  -0.86992
 Alpha  occ. eigenvalues --   -0.79641  -0.79553  -0.78261  -0.78217  -0.65219
 Alpha  occ. eigenvalues --   -0.64950  -0.61274  -0.60667  -0.59365  -0.59337
 Alpha  occ. eigenvalues --   -0.57616  -0.57564  -0.55495  -0.55055  -0.52698
 Alpha  occ. eigenvalues --   -0.52661  -0.52430  -0.52361  -0.49948  -0.49903
 Alpha  occ. eigenvalues --   -0.48034  -0.47779  -0.46638  -0.46596  -0.45861
 Alpha  occ. eigenvalues --   -0.45761  -0.45681  -0.45602  -0.43794  -0.43764
 Alpha virt. eigenvalues --    0.20818   0.22995   0.23717   0.24982   0.25846
 Alpha virt. eigenvalues --    0.26331   0.27150   0.27542   0.28360   0.29202
 Alpha virt. eigenvalues --    0.30787   0.31192   0.31578   0.31693   0.32020

 Mulliken charges:
               1
     1  C   -0.298201
     2  C   -0.306335
     3  C   -0.478403
     4  H    0.149532
     5  H    0.149126
     6  H    0.152719
     7  H    0.158773
     8  H    0.154468
     9  H    0.155993
    10  H    0.161299
    11  C   -0.298353
    12  C   -0.299661
    13  C   -0.475683
    14  H    0.149491
    15  H    0.150126
    16  H    0.151835
    17  H    0.151847
    18  H    0.155163
    19  H    0.155177
    20  H    0.160169
    21  C   -0.298284
    22  C   -0.299695
    23  C   -0.475719
    24  H    0.149571
    25  H    0.149617
    26  H    0.152142
    27  H    0.151987
    28  H    0.155155
    29  H    0.155173
    30  H    0.160318
    31  C   -0.299267
    32  C   -0.299758
    33  C   -0.484437
    34  H    0.150109
    35  H    0.149886
    36  H    0.151346
    37  H    0.151906
    38  H    0.155237
    39  H    0.166545
    40  H    0.159088
 Sum of Mulliken charges =  -0.00000

 Dipole moment (field-independent basis, Debye):
    X=              0.0001    Y=              0.0192    Z=              0.0179  Tot=              0.0262
 Quadrupole moment (field-independent basis, Debye-Ang):
   XX=            -85.8421   YY=            -84.7303   ZZ=            -84.2436
   XY=              0.9072   XZ=             -1.1865   YZ=             -0.2020

 Normal termination of Gaussian 16 at Wed May  5 19:49:57 2021.
