 Gaussian 16, Revision A.03,
 Gaussian 16:  EM64L-G16RevA.03 25-Dec-2016

 -------------
 #p 6-31g* mp2
 -------------

 ------------------------------------------------------
 Input file generated by CHIRIPA (05-May-2021 14:51:10)
 ------------------------------------------------------
 Symbolic Z-matrix:
 Charge =  0 Multiplicity = 1

                         Standard orientation:
 ---------------------------------------------------------------------
 Center     Atomic      Atomic             Coordinates (Angstroms)
 Number     Number       Type             X           Y           Z
 ---------------------------------------------------------------------
      1          6           0       -2.375708   -1.069049   -0.259852
      2          6           0       -1.452065   -1.687193    0.790275
      3          6           0       -0.272001   -2.437197    0.171618
      4          1           0       -2.749802   -1.861778   -0.922106
      5          1           0       -1.794276   -0.382882   -0.891125
      6          1           0       -2.035359   -2.370941    1.420255
      7          1           0       -1.080278   -0.892928    1.450224
      8          1           0        0.334325   -1.762719   -0.441610
      9          1           0       -0.626183   -3.249130   -0.471750
     10          1           0        0.375312   -2.871069    0.940124
     11          6           0       -3.560142   -0.315904    0.343152
     12          6           0       -4.483785    0.302241   -0.706975
     13          6           0       -5.663849    1.052245   -0.088317
     14          1           0       -4.141574   -1.002071    0.974426
     15          1           0       -3.186048    0.476825    1.005406
     16          1           0       -4.855572   -0.492025   -1.366924
     17          1           0       -3.900492    0.985988   -1.336954
     18          1           0       -5.309668    1.864177    0.555050
     19          1           0       -6.270175    0.377766    0.524911
     20          1           0       -6.311162    1.486116   -0.856823
     21          6           0        2.905456   -0.068777   -0.046408
     22          6           0        4.240405   -0.785454   -0.252002
     23          6           0        4.099083   -2.307877   -0.259152
     24          1           0        2.460008   -0.401553    0.901105
     25          1           0        2.209447   -0.369608   -0.841686
     26          1           0        4.934136   -0.482299    0.542637
     27          1           0        4.682818   -0.450791   -1.199043
     28          1           0        3.427942   -2.628702   -1.062422
     29          1           0        3.680689   -2.660390    0.689153
     30          1           0        5.065316   -2.800069   -0.407480
     31          6           0        3.030394    1.453730   -0.036892
     32          6           0        1.695445    2.170407    0.168701
     33          6           0        1.836767    3.692831    0.175851
     34          1           0        3.726404    1.754561    0.758386
     35          1           0        3.475843    1.786506   -0.984406
     36          1           0        1.253032    1.835743    1.115743
     37          1           0        1.001714    1.867252   -0.625937
     38          1           0        2.255161    4.045342   -0.772454
     39          1           0        2.507908    4.013654    0.979122
     40          1           0        0.870533    4.185022    0.324180
 ---------------------------------------------------------------------

 SCF Done:  E(RHF) =  -470.732944395     A.U. after   11 cycles
 E2 =    -0.1583497197D+01 EUMP2 =    -0.47231644159193D+03

 The electronic state is 1-A.
 Alpha  occ. eigenvalues --  -11.21675 -11.21605 -11.21582 -11.21533 -11.21431
 Alpha  occ. eigenvalues --  -11.21370 -11.21365 -11.21310 -11.21126 -11.21057
 Alpha  occ. eigenvalues --  -11.21042 -11.20913  -1.08471  -1.08381  -1.03561
 Alpha  occ. eigenvalues --   -1.03472  -0.96008  -0.95919  -0.87029  -0.86933
 Alpha  occ. eigenvalues --   -0.79661  -0.79515  -0.78313  -0.78171  -0.65109
 Alpha  occ. eigenvalues --   -0.65008  -0.60964  -0.60875  -0.59392  -0.59277
 Alpha  occ. eigenvalues --   -0.57646  -0.57515  -0.55314  -0.55200  -0.52702
 Alpha  occ. eigenvalues --   -0.52615  -0.52477  -0.52306  -0.49983  -0.49859
 Alpha  occ. eigenvalues --   -0.47951  -0.47861  -0.46679  -0.46636  -0.45903
 Alpha  occ. eigenvalues --   -0.45777  -0.45691  -0.45384  -0.43812  -0.43729
 Alpha virt. eigenvalues --    0.20925   0.23090   0.23769   0.24336   0.24765
 Alpha virt. eigenvalues --    0.26320   0.27290   0.27906   0.28019   0.29412
 Alpha virt. eigenvalues --    0.30449   0.31458   0.31651   0.31836   0.32431

 Mulliken charges:
               1
     1  C   -0.298350
     2  C   -0.299911
     3  C   -0.480127
     4  H    0.149445
     5  H    0.149239
     6  H    0.151380
     7  H    0.151799
     8  H    0.162032
     9  H    0.153646
    10  H    0.159507
    11  C   -0.298242
    12  C   -0.299609
    13  C   -0.475676
    14  H    0.149432
    15  H    0.149734
    16  H    0.151849
    17  H    0.151771
    18  H    0.155138
    19  H    0.155156
    20  H    0.160151
    21  C   -0.301942
    22  C   -0.299576
    23  C   -0.476100
    24  H    0.152009
    25  H    0.151984
    26  H    0.151771
    27  H    0.151699
    28  H    0.156451
    29  H    0.155553
    30  H    0.159946
    31  C   -0.297786
    32  C   -0.300251
    33  C   -0.475633
    34  H    0.149700
    35  H    0.149663
    36  H    0.151878
    37  H    0.151133
    38  H    0.155442
    39  H    0.155517
    40  H    0.160177
 Sum of Mulliken charges =  -0.00000

 Dipole moment (field-independent basis, Debye):
    X=              0.0480    Y=              0.0108    Z=             -0.0033  Tot=              0.0493
 Quadrupole moment (field-independent basis, Debye-Ang):
   XX=            -85.2991   YY=            -85.6759   ZZ=            -83.8416
   XY=              1.0332   XZ=              0.4314   YZ=             -0.1825

 Normal termination of Gaussian 16 at Thu May  6 02:12:47 2021.
