 Gaussian 16, Revision A.03,
 Gaussian 16:  EM64L-G16RevA.03 25-Dec-2016

 -------------
 #p 6-31g* mp2
 -------------

 ------------------------------------------------------
 Input file generated by CHIRIPA (05-May-2021 14:57:26)
 ------------------------------------------------------
 Symbolic Z-matrix:
 Charge =  0 Multiplicity = 1

                         Standard orientation:
 ---------------------------------------------------------------------
 Center     Atomic      Atomic             Coordinates (Angstroms)
 Number     Number       Type             X           Y           Z
 ---------------------------------------------------------------------
      1          6           0       -2.714856    2.272802    0.439930
      2          6           0       -2.073957    1.275227   -0.302104
      3          6           0       -2.717590    0.062549   -0.566107
      4          6           0       -4.007755   -0.119704   -0.070578
      5          6           0       -4.672730    0.854953    0.671810
      6          6           0       -4.009914    2.059856    0.923666
      7          1           0       -2.207416    3.211819    0.640295
      8          1           0       -1.068211    1.437837   -0.679035
      9          1           0       -2.244750   -0.726726   -1.137846
     10          1           0       -5.675439    0.663707    1.034328
     11          1           0       -4.510090    2.832805    1.500224
     12          7           0       -4.699294   -1.399397   -0.343636
     13          8           0       -5.835821   -1.535353    0.104091
     14          8           0       -4.091701   -2.242232   -1.000215
     15          6           0        3.530548    2.344127   -0.525013
     16          6           0        4.825965    1.816899   -0.503869
     17          6           0        5.039064    0.468989   -0.200100
     18          6           0        3.928897   -0.326643    0.078804
     19          6           0        2.626104    0.169192    0.065728
     20          6           0        2.436681    1.520044   -0.240649
     21          1           0        3.374203    3.392358   -0.762001
     22          1           0        5.677355    2.454541   -0.724301
     23          1           0        6.031224    0.034836   -0.176679
     24          1           0        1.797200   -0.491217    0.289769
     25          1           0        1.429521    1.926772   -0.256331
     26          7           0        4.141964   -1.755172    0.401770
     27          8           0        3.147184   -2.435208    0.643851
     28          8           0        5.299709   -2.167768    0.406715
 ---------------------------------------------------------------------

 SCF Done:  E(RHF) =  -868.336195206     A.U. after   16 cycles
 E2 =    -0.2599684884D+01 EUMP2 =    -0.87093588008949D+03

 The electronic state is 1-A.
 Alpha  occ. eigenvalues --  -20.61135 -20.61129 -20.61018 -20.61009 -15.86197
 Alpha  occ. eigenvalues --  -15.86079 -11.31726 -11.31615 -11.28383 -11.28298
 Alpha  occ. eigenvalues --  -11.28258 -11.28201 -11.28137 -11.28068 -11.27512
 Alpha  occ. eigenvalues --  -11.27413 -11.27329 -11.27242  -1.60208  -1.60089
 Alpha  occ. eigenvalues --   -1.39757  -1.39637  -1.19934  -1.19830  -1.09299
 Alpha  occ. eigenvalues --   -1.09203  -1.05382  -1.05269  -0.96099  -0.95999
 Alpha  occ. eigenvalues --   -0.86784  -0.86661  -0.82951  -0.82829  -0.77978
 Alpha  occ. eigenvalues --   -0.77824  -0.72410  -0.72294  -0.71535  -0.71414
 Alpha  occ. eigenvalues --   -0.71040  -0.70953  -0.65605  -0.65569  -0.65489
 Alpha  occ. eigenvalues --   -0.65186  -0.62828  -0.62514  -0.55883  -0.55787
 Alpha  occ. eigenvalues --   -0.53679  -0.53610  -0.53570  -0.53266  -0.49186
 Alpha  occ. eigenvalues --   -0.49156  -0.49068  -0.49036  -0.45126  -0.45004
 Alpha  occ. eigenvalues --   -0.37917  -0.37830  -0.36982  -0.36872
 Alpha virt. eigenvalues --    0.04604   0.04716   0.10662   0.10742   0.16017
 Alpha virt. eigenvalues --    0.16125   0.17916   0.21984   0.24525   0.27196
 Alpha virt. eigenvalues --    0.27983   0.28841   0.29574   0.31467   0.31858

 Mulliken charges:
               1
     1  C   -0.170707
     2  C   -0.223768
     3  C   -0.170428
     4  C    0.159442
     5  C   -0.169439
     6  C   -0.218296
     7  H    0.222783
     8  H    0.217858
     9  H    0.278762
    10  H    0.277796
    11  H    0.225059
    12  N    0.487949
    13  O   -0.459094
    14  O   -0.457674
    15  C   -0.170579
    16  C   -0.218304
    17  C   -0.169495
    18  C    0.159141
    19  C   -0.171273
    20  C   -0.221286
    21  H    0.225764
    22  H    0.225478
    23  H    0.277947
    24  H    0.275509
    25  H    0.215756
    26  N    0.487997
    27  O   -0.458251
    28  O   -0.458645
 Sum of Mulliken charges =  -0.00000

 Dipole moment (field-independent basis, Debye):
    X=              1.6855    Y=              9.3962    Z=             -0.1371  Tot=              9.5471
 Quadrupole moment (field-independent basis, Debye-Ang):
   XX=           -120.3904   YY=           -109.7887   ZZ=           -105.2944
   XY=              0.9610   XZ=            -11.6938   YZ=              1.2957

 Normal termination of Gaussian 16 at Thu May  6 00:25:43 2021.
