 Gaussian 16, Revision A.03,
 Gaussian 16:  EM64L-G16RevA.03 25-Dec-2016

 -------------
 #p 6-31g* mp2
 -------------

 ------------------------------------------------------
 Input file generated by CHIRIPA (05-May-2021 14:57:25)
 ------------------------------------------------------
 Symbolic Z-matrix:
 Charge =  0 Multiplicity = 1

                         Standard orientation:
 ---------------------------------------------------------------------
 Center     Atomic      Atomic             Coordinates (Angstroms)
 Number     Number       Type             X           Y           Z
 ---------------------------------------------------------------------
      1          6           0       -3.044198   -2.164522   -0.024887
      2          6           0       -2.123320   -1.672550   -0.955731
      3          6           0       -1.893543   -0.298165   -1.068937
      4          6           0       -2.605293    0.559606   -0.231720
      5          6           0       -3.529278    0.100108    0.705512
      6          6           0       -3.743005   -1.278186    0.801307
      7          1           0       -3.216460   -3.233695    0.056291
      8          1           0       -1.579183   -2.358550   -1.598664
      9          1           0       -1.186359    0.109761   -1.780909
     10          1           0       -4.056585    0.808611    1.332718
     11          1           0       -4.458771   -1.657421    1.525120
     12          7           0       -2.370534    2.016674   -0.342350
     13          8           0       -3.010348    2.751548    0.406807
     14          8           0       -1.551160    2.396261   -1.176123
     15          6           0        1.066030   -2.283480    0.349953
     16          6           0        0.856480   -1.159843    1.156210
     17          6           0        1.724386   -0.065876    1.088960
     18          6           0        2.796536   -0.129589    0.200294
     19          6           0        3.031887   -1.234830   -0.616005
     20          6           0        2.151151   -2.317328   -0.532027
     21          1           0        0.386836   -3.128844    0.408691
     22          1           0        0.014592   -1.130783    1.842084
     23          1           0        1.585607    0.816594    1.701663
     24          1           0        3.879880   -1.234571   -1.290042
     25          1           0        2.316348   -3.188639   -1.159379
     26          7           0        3.722139    1.022473    0.120245
     27          8           0        4.659311    0.941666   -0.670841
     28          8           0        3.492931    1.984454    0.850105
 ---------------------------------------------------------------------

 SCF Done:  E(RHF) =  -868.335570184     A.U. after   16 cycles
 E2 =    -0.2603667099D+01 EUMP2 =    -0.87093923728336D+03

 The electronic state is 1-A.
 Alpha  occ. eigenvalues --  -20.61202 -20.61185 -20.60705 -20.60675 -15.86256
 Alpha  occ. eigenvalues --  -15.85754 -11.31833 -11.31313 -11.28433 -11.28385
 Alpha  occ. eigenvalues --  -11.28259 -11.27935 -11.27841 -11.27742 -11.27516
 Alpha  occ. eigenvalues --  -11.27490 -11.27038 -11.26919  -1.60270  -1.59763
 Alpha  occ. eigenvalues --   -1.39815  -1.39311  -1.20059  -1.19518  -1.09424
 Alpha  occ. eigenvalues --   -1.08895  -1.05471  -1.04940  -0.96202  -0.95692
 Alpha  occ. eigenvalues --   -0.86865  -0.86334  -0.83019  -0.82509  -0.78019
 Alpha  occ. eigenvalues --   -0.77508  -0.72463  -0.71971  -0.71610  -0.71153
 Alpha  occ. eigenvalues --   -0.71084  -0.70673  -0.65688  -0.65470  -0.65170
 Alpha  occ. eigenvalues --   -0.64951  -0.62794  -0.62275  -0.55996  -0.55502
 Alpha  occ. eigenvalues --   -0.54142  -0.53545  -0.53092  -0.52913  -0.49242
 Alpha  occ. eigenvalues --   -0.49207  -0.48746  -0.48711  -0.45169  -0.44674
 Alpha  occ. eigenvalues --   -0.38259  -0.37982  -0.36868  -0.36082
 Alpha virt. eigenvalues --    0.04452   0.04994   0.10503   0.11074   0.15738
 Alpha virt. eigenvalues --    0.16671   0.20096   0.21578   0.26131   0.27011
 Alpha virt. eigenvalues --    0.27367   0.28694   0.30276   0.30651   0.32151

 Mulliken charges:
               1
     1  C   -0.178606
     2  C   -0.219058
     3  C   -0.164141
     4  C    0.155490
     5  C   -0.173546
     6  C   -0.220371
     7  H    0.224427
     8  H    0.221362
     9  H    0.279870
    10  H    0.277933
    11  H    0.225262
    12  N    0.487350
    13  O   -0.458937
    14  O   -0.455358
    15  C   -0.172180
    16  C   -0.215333
    17  C   -0.171639
    18  C    0.159883
    19  C   -0.171196
    20  C   -0.223182
    21  H    0.217854
    22  H    0.225440
    23  H    0.279730
    24  H    0.276395
    25  H    0.220843
    26  N    0.488418
    27  O   -0.460899
    28  O   -0.455813
 Sum of Mulliken charges =  -0.00000

 Dipole moment (field-independent basis, Debye):
    X=             -4.0754    Y=             -8.8657    Z=              0.6578  Tot=              9.7797
 Quadrupole moment (field-independent basis, Debye-Ang):
   XX=           -115.9454   YY=           -109.7973   ZZ=           -100.5420
   XY=             -0.0041   XZ=             -5.4960   YZ=              3.1459

 Normal termination of Gaussian 16 at Wed May  5 16:26:34 2021.
