 Gaussian 16, Revision A.03,
 Gaussian 16:  EM64L-G16RevA.03 25-Dec-2016

 -------------
 #p 6-31g* mp2
 -------------

 ------------------------------------------------------
 Input file generated by CHIRIPA (05-May-2021 14:55:20)
 ------------------------------------------------------
 Symbolic Z-matrix:
 Charge =  0 Multiplicity = 1

                         Standard orientation:
 ---------------------------------------------------------------------
 Center     Atomic      Atomic             Coordinates (Angstroms)
 Number     Number       Type             X           Y           Z
 ---------------------------------------------------------------------
      1          6           0        1.973364    2.131448    0.108441
      2          6           0        1.986173    1.378970   -1.070598
      3          6           0        2.670853    0.161425   -1.128431
      4          6           0        3.335028   -0.275570    0.016645
      5          6           0        3.340762    0.451364    1.206109
      6          6           0        2.649508    1.666064    1.241035
      7          1           0        1.438935    3.076161    0.144470
      8          1           0        1.461948    1.737926   -1.951725
      9          1           0        2.697088   -0.441218   -2.028181
     10          1           0        3.872577    0.067538    2.068239
     11          1           0        2.641271    2.248341    2.158057
     12          7           0        4.063348   -1.563024   -0.032455
     13          8           0        4.640684   -1.926066    0.990053
     14          8           0        4.043079   -2.184711   -1.092517
     15          6           0       -3.722447    0.713726    0.138650
     16          6           0       -2.409687    0.839214   -0.635234
     17          6           0       -1.635334    2.109866   -0.283641
     18          1           0       -4.347054    1.593979   -0.066209
     19          1           0       -3.507498    0.726908    1.216155
     20          1           0       -2.626922    0.824408   -1.710969
     21          1           0       -1.788213   -0.041532   -0.428660
     22          1           0       -1.389801    2.128619    0.783113
     23          1           0       -2.233275    2.999477   -0.506482
     24          1           0       -0.700326    2.179375   -0.848254
     25          6           0       -4.507932   -0.551468   -0.201977
     26          6           0       -5.820693   -0.676957    0.571907
     27          6           0       -6.595045   -1.947608    0.220314
     28          1           0       -4.722882   -0.564650   -1.279482
     29          1           0       -3.883326   -1.431721    0.002882
     30          1           0       -6.442166    0.203790    0.365334
     31          1           0       -5.603458   -0.662150    1.647643
     32          1           0       -5.997104   -2.837220    0.443155
     33          1           0       -6.840578   -1.966360   -0.846439
     34          1           0       -7.530053   -2.017118    0.784927
 ---------------------------------------------------------------------

 SCF Done:  E(RHF) =  -669.533891397     A.U. after   15 cycles
 E2 =    -0.2092559837D+01 EUMP2 =    -0.67162645123348D+03

 The electronic state is 1-A.
 Alpha  occ. eigenvalues --  -20.60758 -20.60752 -15.85814 -11.31170 -11.27766
 Alpha  occ. eigenvalues --  -11.27761 -11.27472 -11.26756 -11.26744 -11.22190
 Alpha  occ. eigenvalues --  -11.21879 -11.21866 -11.21839 -11.21693 -11.21264
 Alpha  occ. eigenvalues --   -1.59835  -1.39388  -1.19362  -1.08863  -1.08746
 Alpha  occ. eigenvalues --   -1.04773  -1.03985  -0.96473  -0.95578  -0.87500
 Alpha  occ. eigenvalues --   -0.86168  -0.82420  -0.80063  -0.78634  -0.77470
 Alpha  occ. eigenvalues --   -0.72034  -0.71159  -0.70479  -0.65472  -0.65030
 Alpha  occ. eigenvalues --   -0.64820  -0.62152  -0.61375  -0.59848  -0.58055
 Alpha  occ. eigenvalues --   -0.55762  -0.55257  -0.53469  -0.52950  -0.52893
 Alpha  occ. eigenvalues --   -0.52655  -0.50376  -0.48793  -0.48786  -0.48369
 Alpha  occ. eigenvalues --   -0.47068  -0.46185  -0.46087  -0.44796  -0.44252
 Alpha  occ. eigenvalues --   -0.37254  -0.36361
 Alpha virt. eigenvalues --    0.05072   0.11153   0.16536   0.20766   0.22576
 Alpha virt. eigenvalues --    0.24082   0.26225   0.26387   0.26925   0.27677
 Alpha virt. eigenvalues --    0.28617   0.30128   0.30958   0.31517   0.31864

 Mulliken charges:
               1
     1  C   -0.165574
     2  C   -0.219383
     3  C   -0.172069
     4  C    0.157660
     5  C   -0.170589
     6  C   -0.221032
     7  H    0.228548
     8  H    0.223344
     9  H    0.275701
    10  H    0.275567
    11  H    0.223355
    12  N    0.488158
    13  O   -0.460620
    14  O   -0.460540
    15  C   -0.298892
    16  C   -0.299965
    17  C   -0.476995
    18  H    0.149658
    19  H    0.150160
    20  H    0.151601
    21  H    0.156295
    22  H    0.154848
    23  H    0.154902
    24  H    0.152326
    25  C   -0.298961
    26  C   -0.299962
    27  C   -0.476031
    28  H    0.149888
    29  H    0.151659
    30  H    0.151761
    31  H    0.152300
    32  H    0.156421
    33  H    0.155479
    34  H    0.160979
 Sum of Mulliken charges =  -0.00000

 Dipole moment (field-independent basis, Debye):
    X=             -2.6528    Y=              4.4855    Z=              0.2096  Tot=              5.2154
 Quadrupole moment (field-independent basis, Debye-Ang):
   XX=           -112.2649   YY=            -98.5239   ZZ=            -89.7615
   XY=             15.5320   XZ=              2.3063   YZ=              0.2720

 Normal termination of Gaussian 16 at Thu May  6 12:27:29 2021.
