 Gaussian 16, Revision A.03,
 Gaussian 16:  EM64L-G16RevA.03 25-Dec-2016

 -------------
 #p 6-31g* mp2
 -------------

 ------------------------------------------------------
 Input file generated by CHIRIPA (05-May-2021 14:53:17)
 ------------------------------------------------------
 Symbolic Z-matrix:
 Charge =  0 Multiplicity = 1

                         Standard orientation:
 ---------------------------------------------------------------------
 Center     Atomic      Atomic             Coordinates (Angstroms)
 Number     Number       Type             X           Y           Z
 ---------------------------------------------------------------------
      1          6           0        3.403087   -0.411716   -0.549333
      2          6           0        4.590770   -1.346717   -0.318754
      3          6           0        4.460048   -2.666943   -1.078826
      4          1           0        2.478730   -0.921604   -0.245154
      5          1           0        3.308613   -0.208744   -1.625099
      6          1           0        4.683818   -1.546760    0.756393
      7          1           0        5.512427   -0.834474   -0.623338
      8          1           0        4.390070   -2.485859   -2.156283
      9          1           0        3.556754   -3.202191   -0.768712
     10          1           0        5.319773   -3.320130   -0.899718
     11          6           0        3.519206    0.912249    0.203900
     12          6           0        2.331523    1.847250   -0.026679
     13          6           0        2.462245    3.167476    0.733393
     14          1           0        3.613679    0.709277    1.279666
     15          1           0        4.443563    1.422137   -0.100279
     16          1           0        1.409866    1.335007    0.277905
     17          1           0        2.238475    2.047292   -1.101826
     18          1           0        3.365539    3.702724    0.423279
     19          1           0        2.532222    2.986391    1.810850
     20          1           0        1.602520    3.820662    0.554285
     21          6           0       -4.049737    0.384074   -1.919095
     22          6           0       -2.747452    0.873581   -1.774324
     23          6           0       -1.992606    0.558880   -0.640429
     24          6           0       -2.573922   -0.251554    0.333511
     25          6           0       -3.868877   -0.754625    0.218189
     26          6           0       -4.605314   -0.427036   -0.924131
     27          1           0       -4.628969    0.633547   -2.803205
     28          1           0       -2.313415    1.503714   -2.545421
     29          1           0       -0.982177    0.924283   -0.502837
     30          1           0       -4.274473   -1.380528    1.003782
     31          1           0       -5.616449   -0.808615   -1.033888
     32          7           0       -1.784544   -0.591535    1.538374
     33          8           0       -2.319543   -1.307424    2.382126
     34          8           0       -0.645780   -0.135687    1.616181
 ---------------------------------------------------------------------

 SCF Done:  E(RHF) =  -669.536212225     A.U. after   15 cycles
 E2 =    -0.2091773653D+01 EUMP2 =    -0.67162798587761D+03

 The electronic state is 1-A.
 Alpha  occ. eigenvalues --  -20.60937 -20.60924 -15.85972 -11.31254 -11.27822
 Alpha  occ. eigenvalues --  -11.27796 -11.27556 -11.26824 -11.26808 -11.21153
 Alpha  occ. eigenvalues --  -11.21142 -11.20897 -11.20837 -11.20698 -11.20673
 Alpha  occ. eigenvalues --   -1.59998  -1.39556  -1.19425  -1.08837  -1.07948
 Alpha  occ. eigenvalues --   -1.04816  -1.03096  -0.95685  -0.95542  -0.86564
 Alpha  occ. eigenvalues --   -0.86220  -0.82521  -0.79186  -0.77831  -0.77524
 Alpha  occ. eigenvalues --   -0.72202  -0.71310  -0.70537  -0.65089  -0.64836
 Alpha  occ. eigenvalues --   -0.64530  -0.62175  -0.60462  -0.58928  -0.57173
 Alpha  occ. eigenvalues --   -0.55326  -0.54809  -0.53151  -0.52915  -0.52263
 Alpha  occ. eigenvalues --   -0.51982  -0.49482  -0.48971  -0.48940  -0.47485
 Alpha  occ. eigenvalues --   -0.46153  -0.45324  -0.45202  -0.44948  -0.43340
 Alpha  occ. eigenvalues --   -0.37407  -0.36415
 Alpha virt. eigenvalues --    0.04949   0.11236   0.16453   0.20846   0.23351
 Alpha virt. eigenvalues --    0.24343   0.25945   0.27249   0.27683   0.28404
 Alpha virt. eigenvalues --    0.29232   0.30665   0.31575   0.31938   0.32294

 Mulliken charges:
               1
     1  C   -0.301060
     2  C   -0.299470
     3  C   -0.475777
     4  H    0.157840
     5  H    0.143540
     6  H    0.154840
     7  H    0.149788
     8  H    0.152369
     9  H    0.156825
    10  H    0.159275
    11  C   -0.295383
    12  C   -0.319432
    13  C   -0.473717
    14  H    0.155584
    15  H    0.146374
    16  H    0.176499
    17  H    0.141717
    18  H    0.152599
    19  H    0.161173
    20  H    0.154837
    21  C   -0.170108
    22  C   -0.221961
    23  C   -0.172190
    24  C    0.155009
    25  C   -0.170089
    26  C   -0.219060
    27  H    0.225907
    28  H    0.224606
    29  H    0.285374
    30  H    0.275624
    31  H    0.223645
    32  N    0.492469
    33  O   -0.459095
    34  O   -0.468551
 Sum of Mulliken charges =  -0.00000

 Dipole moment (field-independent basis, Debye):
    X=             -2.9091    Y=              1.1065    Z=             -4.0816  Tot=              5.1329
 Quadrupole moment (field-independent basis, Debye-Ang):
   XX=            -77.7675   YY=            -95.7783   ZZ=            -97.1826
   XY=              0.0772   XZ=              8.8717   YZ=             -0.4241

 Normal termination of Gaussian 16 at Thu May  6 01:12:00 2021.
