 Gaussian 16, Revision A.03,
 Gaussian 16:  EM64L-G16RevA.03 25-Dec-2016

 -------------
 #p 6-31g* mp2
 -------------

 ------------------------------------------------------
 Input file generated by CHIRIPA (05-May-2021 14:57:23)
 ------------------------------------------------------
 Symbolic Z-matrix:
 Charge =  0 Multiplicity = 1

                         Standard orientation:
 ---------------------------------------------------------------------
 Center     Atomic      Atomic             Coordinates (Angstroms)
 Number     Number       Type             X           Y           Z
 ---------------------------------------------------------------------
      1          6           0        5.557830    1.303606   -0.473386
      2          6           0        4.308786    1.560976   -1.047992
      3          6           0        3.208751    0.752189   -0.747432
      4          6           0        3.394342   -0.310244    0.135790
      5          6           0        4.626101   -0.592290    0.724441
      6          6           0        5.712228    0.229688    0.409440
      7          1           0        6.406962    1.937015   -0.712477
      8          1           0        4.185941    2.394297   -1.733943
      9          1           0        2.230582    0.928827   -1.178016
     10          1           0        4.717607   -1.430332    1.404684
     11          1           0        6.681078    0.027442    0.857181
     12          7           0        2.237145   -1.173453    0.461623
     13          8           0        2.426783   -2.103256    1.242739
     14          8           0        1.162410   -0.903888   -0.070274
     15          6           0       -3.636453    2.588328    0.628672
     16          6           0       -2.517996    2.078378   -0.038806
     17          6           0       -2.478580    0.738899   -0.437288
     18          6           0       -3.580093   -0.066014   -0.150802
     19          6           0       -4.708860    0.412598    0.512603
     20          6           0       -4.726394    1.755279    0.901765
     21          1           0       -3.658573    3.630112    0.934604
     22          1           0       -1.670094    2.723016   -0.252224
     23          1           0       -1.625433    0.318114   -0.955456
     24          1           0       -5.538909   -0.254447    0.711319
     25          1           0       -5.596335    2.148588    1.419988
     26          7           0       -3.549948   -1.485756   -0.567724
     27          8           0       -4.533202   -2.174253   -0.303485
     28          8           0       -2.543638   -1.883170   -1.150853
 ---------------------------------------------------------------------

 SCF Done:  E(RHF) =  -868.336986362     A.U. after   16 cycles
 E2 =    -0.2599575289D+01 EUMP2 =    -0.87093656165031D+03

 The electronic state is 1-A.
 Alpha  occ. eigenvalues --  -20.60846 -20.60829 -20.59808 -20.59735 -15.85901
 Alpha  occ. eigenvalues --  -15.84832 -11.31360 -11.30351 -11.27986 -11.27904
 Alpha  occ. eigenvalues --  -11.27680 -11.27018 -11.26992 -11.26942 -11.26885
 Alpha  occ. eigenvalues --  -11.26833 -11.26073 -11.26053  -1.59900  -1.58849
 Alpha  occ. eigenvalues --   -1.39459  -1.38392  -1.19536  -1.18574  -1.08906
 Alpha  occ. eigenvalues --   -1.07956  -1.04958  -1.04007  -0.95729  -0.94751
 Alpha  occ. eigenvalues --   -0.86350  -0.85401  -0.82566  -0.81584  -0.77609
 Alpha  occ. eigenvalues --   -0.76578  -0.72115  -0.71228  -0.71051  -0.70646
 Alpha  occ. eigenvalues --   -0.70172  -0.69696  -0.65191  -0.64961  -0.64235
 Alpha  occ. eigenvalues --   -0.64037  -0.62314  -0.61336  -0.55444  -0.54548
 Alpha  occ. eigenvalues --   -0.53274  -0.53055  -0.52330  -0.52112  -0.48864
 Alpha  occ. eigenvalues --   -0.48850  -0.47841  -0.47782  -0.44840  -0.43760
 Alpha  occ. eigenvalues --   -0.37512  -0.36597  -0.36566  -0.35611
 Alpha virt. eigenvalues --    0.04944   0.05963   0.11088   0.12037   0.16423
 Alpha virt. eigenvalues --    0.17390   0.20959   0.22075   0.26554   0.27453
 Alpha virt. eigenvalues --    0.28374   0.29147   0.30873   0.31551   0.32215

 Mulliken charges:
               1
     1  C   -0.171020
     2  C   -0.218192
     3  C   -0.170410
     4  C    0.159469
     5  C   -0.170672
     6  C   -0.218220
     7  H    0.225915
     8  H    0.222305
     9  H    0.269451
    10  H    0.277037
    11  H    0.224330
    12  N    0.491810
    13  O   -0.456164
    14  O   -0.464433
    15  C   -0.171127
    16  C   -0.219850
    17  C   -0.168134
    18  C    0.156843
    19  C   -0.170857
    20  C   -0.219506
    21  H    0.221489
    22  H    0.216826
    23  H    0.288284
    24  H    0.274004
    25  H    0.220332
    26  N    0.487502
    27  O   -0.465702
    28  O   -0.451306
 Sum of Mulliken charges =  -0.00000

 Dipole moment (field-independent basis, Debye):
    X=              4.2589    Y=              7.8061    Z=              0.3078  Tot=              8.8976
 Quadrupole moment (field-independent basis, Debye-Ang):
   XX=            -71.7751   YY=           -107.2641   ZZ=           -104.3065
   XY=             -9.7572   XZ=             -8.4456   YZ=             -2.3727

 Normal termination of Gaussian 16 at Thu May  6 12:58:34 2021.
