 Gaussian 16, Revision A.03,
 Gaussian 16:  EM64L-G16RevA.03 25-Dec-2016

 -------------
 #p 6-31g* mp2
 -------------

 ------------------------------------------------------
 Input file generated by CHIRIPA (05-May-2021 14:53:17)
 ------------------------------------------------------
 Symbolic Z-matrix:
 Charge =  0 Multiplicity = 1

                         Standard orientation:
 ---------------------------------------------------------------------
 Center     Atomic      Atomic             Coordinates (Angstroms)
 Number     Number       Type             X           Y           Z
 ---------------------------------------------------------------------
      1          6           0        2.826497   -0.209883    1.135931
      2          6           0        1.375372    0.225665    0.929726
      3          6           0        0.538695    0.117103    2.204866
      4          1           0        2.843367   -1.246231    1.500134
      5          1           0        3.278278    0.406330    1.925595
      6          1           0        0.926878   -0.390261    0.139724
      7          1           0        1.361962    1.261032    0.565789
      8          1           0        0.959843    0.745118    2.996593
      9          1           0        0.522287   -0.915558    2.568107
     10          1           0       -0.495182    0.433389    2.034805
     11          6           0        3.675585   -0.107007   -0.129847
     12          6           0        5.126709   -0.542555    0.076357
     13          6           0        5.963386   -0.433993   -1.198782
     14          1           0        3.223803   -0.723220   -0.919512
     15          1           0        3.658715    0.929341   -0.494050
     16          1           0        5.140120   -1.577923    0.440294
     17          1           0        5.575204    0.073371    0.866360
     18          1           0        5.979795    0.598667   -1.562023
     19          1           0        5.542239   -1.062009   -1.990510
     20          1           0        6.997264   -0.750279   -1.028722
     21          6           0       -3.846159   -2.003171   -0.024756
     22          6           0       -2.770992   -1.988008   -0.919356
     23          6           0       -2.040138   -0.815190   -1.131248
     24          6           0       -2.413589    0.329412   -0.428602
     25          6           0       -3.479768    0.346079    0.469325
     26          6           0       -4.196497   -0.838134    0.665513
     27          1           0       -4.408417   -2.918670    0.133747
     28          1           0       -2.496658   -2.891298   -1.456807
     29          1           0       -1.203337   -0.775415   -1.817980
     30          1           0       -3.729459    1.262266    0.990549
     31          1           0       -5.031019   -0.846971    1.360883
     32          7           0       -1.647343    1.577053   -0.644609
     33          8           0       -1.996430    2.572157   -0.013307
     34          8           0       -0.712181    1.536225   -1.441128
 ---------------------------------------------------------------------

 SCF Done:  E(RHF) =  -669.535160248     A.U. after   15 cycles
 E2 =    -0.2094269153D+01 EUMP2 =    -0.67162942940092D+03

 The electronic state is 1-A.
 Alpha  occ. eigenvalues --  -20.60896 -20.60866 -15.85890 -11.31253 -11.27815
 Alpha  occ. eigenvalues --  -11.27812 -11.27553 -11.26837 -11.26827 -11.21204
 Alpha  occ. eigenvalues --  -11.20889 -11.20841 -11.20803 -11.20720 -11.20623
 Alpha  occ. eigenvalues --   -1.59938  -1.39494  -1.19428  -1.08826  -1.07911
 Alpha  occ. eigenvalues --   -1.04827  -1.03050  -0.95663  -0.95534  -0.86544
 Alpha  occ. eigenvalues --   -0.86226  -0.82498  -0.79103  -0.77754  -0.77503
 Alpha  occ. eigenvalues --   -0.72130  -0.71268  -0.70533  -0.65081  -0.64837
 Alpha  occ. eigenvalues --   -0.64542  -0.62178  -0.60443  -0.58890  -0.57138
 Alpha  occ. eigenvalues --   -0.55325  -0.54828  -0.53185  -0.52919  -0.52193
 Alpha  occ. eigenvalues --   -0.51940  -0.49473  -0.48907  -0.48894  -0.47502
 Alpha  occ. eigenvalues --   -0.46104  -0.45505  -0.45160  -0.44532  -0.43271
 Alpha  occ. eigenvalues --   -0.37370  -0.36412
 Alpha virt. eigenvalues --    0.04956   0.11104   0.16446   0.21252   0.23290
 Alpha virt. eigenvalues --    0.24508   0.26499   0.27456   0.27674   0.28161
 Alpha virt. eigenvalues --    0.28774   0.30701   0.31358   0.32006   0.32167

 Mulliken charges:
               1
     1  C   -0.298660
     2  C   -0.305782
     3  C   -0.476269
     4  H    0.144447
     5  H    0.148903
     6  H    0.146311
     7  H    0.171476
     8  H    0.156356
     9  H    0.149918
    10  H    0.155426
    11  C   -0.297147
    12  C   -0.299356
    13  C   -0.475266
    14  H    0.146625
    15  H    0.155648
    16  H    0.149189
    17  H    0.151667
    18  H    0.156808
    19  H    0.153724
    20  H    0.158508
    21  C   -0.170641
    22  C   -0.218749
    23  C   -0.171367
    24  C    0.159982
    25  C   -0.172842
    26  C   -0.217560
    27  H    0.225886
    28  H    0.223667
    29  H    0.275679
    30  H    0.275982
    31  H    0.223896
    32  N    0.490271
    33  O   -0.460114
    34  O   -0.456615
 Sum of Mulliken charges =  -0.00000

 Dipole moment (field-independent basis, Debye):
    X=             -2.8050    Y=             -4.2428    Z=              0.6482  Tot=              5.1273
 Quadrupole moment (field-independent basis, Debye-Ang):
   XX=            -81.1523   YY=            -96.0274   ZZ=            -94.6497
   XY=              9.0060   XZ=             -2.3796   YZ=              4.2920

 Normal termination of Gaussian 16 at Thu May  6 13:57:29 2021.
