 Gaussian 16, Revision A.03,
 Gaussian 16:  EM64L-G16RevA.03 25-Dec-2016

 -------------
 #p 6-31g* mp2
 -------------

 ------------------------------------------------------
 Input file generated by CHIRIPA (05-May-2021 14:53:16)
 ------------------------------------------------------
 Symbolic Z-matrix:
 Charge =  0 Multiplicity = 1

                         Standard orientation:
 ---------------------------------------------------------------------
 Center     Atomic      Atomic             Coordinates (Angstroms)
 Number     Number       Type             X           Y           Z
 ---------------------------------------------------------------------
      1          6           0       -3.437435   -0.151997    0.407193
      2          6           0       -3.950378   -1.363241   -0.372397
      3          6           0       -4.192077   -2.581286    0.519646
      4          1           0       -2.504922   -0.422763    0.921051
      5          1           0       -4.163170    0.104800    1.191259
      6          1           0       -3.224550   -1.616823   -1.155650
      7          1           0       -4.881677   -1.089502   -0.884614
      8          1           0       -4.932539   -2.351770    1.292717
      9          1           0       -3.265996   -2.882087    1.020141
     10          1           0       -4.558429   -3.435628   -0.058061
     11          6           0       -3.191055    1.073576   -0.470871
     12          6           0       -2.678112    2.284820    0.308720
     13          6           0       -2.436414    3.502866   -0.583324
     14          1           0       -2.465320    0.816779   -1.254937
     15          1           0       -4.123568    1.344343   -0.984729
     16          1           0       -1.746813    2.011082    0.820936
     17          1           0       -3.403941    2.538403    1.091972
     18          1           0       -3.362494    3.803666   -1.083818
     19          1           0       -1.695951    3.273349   -1.356395
     20          1           0       -2.070062    4.357208   -0.005617
     21          6           0        0.245875   -1.288021   -0.090264
     22          6           0        0.675757   -0.612710    1.056765
     23          6           0        1.972006   -0.094361    1.131611
     24          6           0        2.815804   -0.270273    0.036005
     25          6           0        2.416895   -0.938324   -1.120659
     26          6           0        1.116281   -1.448391   -1.173405
     27          1           0       -0.762779   -1.687470   -0.139823
     28          1           0        0.001953   -0.486673    1.899467
     29          1           0        2.330744    0.432660    2.007380
     30          1           0        3.111391   -1.048241   -1.944680
     31          1           0        0.785146   -1.972405   -2.065485
     32          7           0        4.190395    0.274095    0.103543
     33          8           0        4.914518    0.105843   -0.875217
     34          8           0        4.517648    0.858715    1.133962
 ---------------------------------------------------------------------

 SCF Done:  E(RHF) =  -669.535039258     A.U. after   15 cycles
 E2 =    -0.2093319954D+01 EUMP2 =    -0.67162835921167D+03

 The electronic state is 1-A.
 Alpha  occ. eigenvalues --  -20.60787 -20.60782 -15.85842 -11.31223 -11.27801
 Alpha  occ. eigenvalues --  -11.27796 -11.27508 -11.26813 -11.26800 -11.22788
 Alpha  occ. eigenvalues --  -11.22526 -11.22263 -11.22192 -11.22191 -11.21529
 Alpha  occ. eigenvalues --   -1.59862  -1.39415  -1.19401  -1.09417  -1.08781
 Alpha  occ. eigenvalues --   -1.04806  -1.04415  -0.96853  -0.95623  -0.87863
 Alpha  occ. eigenvalues --   -0.86206  -0.82456  -0.80504  -0.79189  -0.77498
 Alpha  occ. eigenvalues --   -0.72060  -0.71186  -0.70593  -0.66092  -0.65045
 Alpha  occ. eigenvalues --   -0.64753  -0.62153  -0.61828  -0.60235  -0.58449
 Alpha  occ. eigenvalues --   -0.56170  -0.55258  -0.53517  -0.53263  -0.53116
 Alpha  occ. eigenvalues --   -0.52895  -0.50794  -0.48824  -0.48815  -0.48789
 Alpha  occ. eigenvalues --   -0.47587  -0.46708  -0.46626  -0.44818  -0.44675
 Alpha  occ. eigenvalues --   -0.37359  -0.36404
 Alpha virt. eigenvalues --    0.05015   0.11125   0.16412   0.18555   0.22964
 Alpha virt. eigenvalues --    0.23140   0.24678   0.25761   0.27092   0.28226
 Alpha virt. eigenvalues --    0.29378   0.30537   0.30914   0.30978   0.31815

 Mulliken charges:
               1
     1  C   -0.302566
     2  C   -0.303906
     3  C   -0.476644
     4  H    0.139704
     5  H    0.155171
     6  H    0.145023
     7  H    0.159519
     8  H    0.160404
     9  H    0.149282
    10  H    0.164485
    11  C   -0.298289
    12  C   -0.301006
    13  C   -0.476422
    14  H    0.149878
    15  H    0.152994
    16  H    0.150997
    17  H    0.152674
    18  H    0.155940
    19  H    0.157618
    20  H    0.163081
    21  C   -0.175499
    22  C   -0.221971
    23  C   -0.170977
    24  C    0.158215
    25  C   -0.170336
    26  C   -0.221191
    27  H    0.235889
    28  H    0.224989
    29  H    0.275924
    30  H    0.275791
    31  H    0.223730
    32  N    0.488053
    33  O   -0.460292
    34  O   -0.460260
 Sum of Mulliken charges =  -0.00000

 Dipole moment (field-independent basis, Debye):
    X=             -5.0037    Y=             -1.8309    Z=             -0.2745  Tot=              5.3352
 Quadrupole moment (field-independent basis, Debye-Ang):
   XX=           -120.7255   YY=            -94.3672   ZZ=            -90.8857
   XY=             -5.0120   XZ=             -1.8077   YZ=              2.3591

 Normal termination of Gaussian 16 at Thu May  6 13:55:24 2021.
