 Gaussian 16, Revision A.03,
 Gaussian 16:  EM64L-G16RevA.03 25-Dec-2016

 -------------
 #p 6-31g* mp2
 -------------

 ------------------------------------------------------
 Input file generated by CHIRIPA (05-May-2021 14:55:20)
 ------------------------------------------------------
 Symbolic Z-matrix:
 Charge =  0 Multiplicity = 1

                         Standard orientation:
 ---------------------------------------------------------------------
 Center     Atomic      Atomic             Coordinates (Angstroms)
 Number     Number       Type             X           Y           Z
 ---------------------------------------------------------------------
      1          6           0       -3.642621    0.763273    1.100467
      2          6           0       -2.704099    0.095611    1.894144
      3          6           0       -1.744379   -0.736704    1.310417
      4          6           0       -1.752117   -0.879146   -0.076285
      5          6           0       -2.674020   -0.227386   -0.893961
      6          6           0       -3.624618    0.599932   -0.288604
      7          1           0       -4.384611    1.407895    1.562321
      8          1           0       -2.715705    0.220587    2.973168
      9          1           0       -1.006186   -1.265452    1.901106
     10          1           0       -2.637427   -0.371751   -1.966918
     11          1           0       -4.352268    1.117204   -0.907474
     12          7           0       -0.740933   -1.757636   -0.705700
     13          8           0       -0.768875   -1.866425   -1.929636
     14          8           0        0.060428   -2.320772    0.036820
     15          6           0        2.202560    1.657665   -0.099289
     16          6           0        0.760579    1.749019   -0.599617
     17          6           0        0.267820    3.191180   -0.722742
     18          1           0        2.277720    2.156899    0.876446
     19          1           0        2.857259    2.212496   -0.785530
     20          1           0        0.108983    1.193020    0.086607
     21          1           0        0.688801    1.249343   -1.574187
     22          1           0        0.893771    3.753699   -1.422997
     23          1           0        0.310658    3.697057    0.247234
     24          1           0       -0.765167    3.233195   -1.081954
     25          6           0        2.709497    0.222298    0.029015
     26          6           0        4.151479    0.130942    0.529344
     27          6           0        4.644237   -1.311217    0.652468
     28          1           0        2.054797   -0.332534    0.715256
     29          1           0        2.634337   -0.276937   -0.946720
     30          1           0        4.223255    0.630620    1.503913
     31          1           0        4.803074    0.686942   -0.156881
     32          1           0        4.601398   -1.817095   -0.317507
     33          1           0        4.018286   -1.873737    1.352723
     34          1           0        5.677224   -1.353232    1.011681
 ---------------------------------------------------------------------

 SCF Done:  E(RHF) =  -669.534721633     A.U. after   15 cycles
 E2 =    -0.2095583460D+01 EUMP2 =    -0.67163030509257D+03

 The electronic state is 1-A.
 Alpha  occ. eigenvalues --  -20.60919 -20.60899 -15.85909 -11.31233 -11.27822
 Alpha  occ. eigenvalues --  -11.27818 -11.27584 -11.26880 -11.26868 -11.21225
 Alpha  occ. eigenvalues --  -11.20954 -11.20898 -11.20882 -11.20477 -11.20241
 Alpha  occ. eigenvalues --   -1.59951  -1.39512  -1.19457  -1.08848  -1.07850
 Alpha  occ. eigenvalues --   -1.04856  -1.03007  -0.95683  -0.95442  -0.86463
 Alpha  occ. eigenvalues --   -0.86250  -0.82525  -0.79134  -0.77684  -0.77521
 Alpha  occ. eigenvalues --   -0.72154  -0.71231  -0.70555  -0.65110  -0.64859
 Alpha  occ. eigenvalues --   -0.64496  -0.62201  -0.60437  -0.58874  -0.57070
 Alpha  occ. eigenvalues --   -0.55353  -0.54740  -0.53226  -0.52944  -0.52174
 Alpha  occ. eigenvalues --   -0.51850  -0.49374  -0.48920  -0.48911  -0.47416
 Alpha  occ. eigenvalues --   -0.46145  -0.45472  -0.45094  -0.44459  -0.43228
 Alpha  occ. eigenvalues --   -0.37320  -0.36450
 Alpha virt. eigenvalues --    0.04919   0.11095   0.16408   0.21244   0.23380
 Alpha virt. eigenvalues --    0.24767   0.26714   0.27428   0.27523   0.28377
 Alpha virt. eigenvalues --    0.28604   0.31069   0.31808   0.31971   0.32135

 Mulliken charges:
               1
     1  C   -0.171049
     2  C   -0.215964
     3  C   -0.175898
     4  C    0.161285
     5  C   -0.170471
     6  C   -0.217621
     7  H    0.226152
     8  H    0.223947
     9  H    0.275223
    10  H    0.275753
    11  H    0.224022
    12  N    0.491608
    13  O   -0.460231
    14  O   -0.458538
    15  C   -0.296605
    16  C   -0.310924
    17  C   -0.473237
    18  H    0.144752
    19  H    0.148072
    20  H    0.154479
    21  H    0.156443
    22  H    0.155580
    23  H    0.152306
    24  H    0.154819
    25  C   -0.303997
    26  C   -0.299683
    27  C   -0.474548
    28  H    0.156713
    29  H    0.158582
    30  H    0.146724
    31  H    0.149184
    32  H    0.159563
    33  H    0.158153
    34  H    0.155405
 Sum of Mulliken charges =  -0.00000

 Dipole moment (field-independent basis, Debye):
    X=             -3.6904    Y=              2.8716    Z=              2.1559  Tot=              5.1490
 Quadrupole moment (field-independent basis, Debye-Ang):
   XX=            -82.5744   YY=           -102.1001   ZZ=            -90.2084
   XY=             -2.7624   XZ=             -2.3893   YZ=             -3.1004

 Normal termination of Gaussian 16 at Thu May  6 06:09:23 2021.
