 Gaussian 16, Revision A.03,
 Gaussian 16:  EM64L-G16RevA.03 25-Dec-2016

 -------------
 #p 6-31g* mp2
 -------------

 ------------------------------------------------------
 Input file generated by CHIRIPA (05-May-2021 14:53:18)
 ------------------------------------------------------
 Symbolic Z-matrix:
 Charge =  0 Multiplicity = 1

                         Standard orientation:
 ---------------------------------------------------------------------
 Center     Atomic      Atomic             Coordinates (Angstroms)
 Number     Number       Type             X           Y           Z
 ---------------------------------------------------------------------
      1          6           0        1.612803    1.115433   -0.137504
      2          6           0        1.175417    2.578138   -0.222188
      3          6           0       -0.343139    2.737376   -0.302332
      4          1           0        1.231684    0.574041   -1.014196
      5          1           0        1.147538    0.651251    0.743097
      6          1           0        1.642469    3.039796   -1.101591
      7          1           0        1.557784    3.116154    0.654711
      8          1           0       -0.823204    2.302501    0.580290
      9          1           0       -0.738038    2.225709   -1.185991
     10          1           0       -0.633735    3.790864   -0.362146
     11          6           0        3.128198    0.939956   -0.056806
     12          6           0        3.565584   -0.522750    0.027877
     13          6           0        5.084140   -0.681987    0.108022
     14          1           0        3.593463    1.404138   -0.937408
     15          1           0        3.509317    1.481348    0.819885
     16          1           0        3.183217   -1.060765   -0.849022
     17          1           0        3.098532   -0.984407    0.907281
     18          1           0        5.479039   -0.170320    0.991681
     19          1           0        5.564205   -0.247112   -0.774601
     20          1           0        5.374735   -1.735475    0.167835
     21          6           0       -3.698094    0.912086    0.204571
     22          6           0       -2.924721    0.629922    1.335411
     23          6           0       -1.899214   -0.318398    1.275677
     24          6           0       -1.673476   -0.968684    0.063463
     25          6           0       -2.426754   -0.709511   -1.080517
     26          6           0       -3.447086    0.242649   -0.997663
     27          1           0       -4.492723    1.650255    0.259954
     28          1           0       -3.117407    1.148273    2.270414
     29          1           0       -1.285271   -0.556211    2.135874
     30          1           0       -2.210947   -1.242494   -1.998543
     31          1           0       -4.046102    0.459749   -1.877488
     32          7           0       -0.590556   -1.974660   -0.012012
     33          8           0       -0.411714   -2.533827   -1.091819
     34          8           0        0.058888   -2.184930    1.010067
 ---------------------------------------------------------------------

 SCF Done:  E(RHF) =  -669.534143969     A.U. after   15 cycles
 E2 =    -0.2096879602D+01 EUMP2 =    -0.67163102357102D+03

 The electronic state is 1-A.
 Alpha  occ. eigenvalues --  -20.60919 -20.60910 -15.85924 -11.31263 -11.27841
 Alpha  occ. eigenvalues --  -11.27806 -11.27550 -11.26854 -11.26805 -11.21327
 Alpha  occ. eigenvalues --  -11.20946 -11.20817 -11.20751 -11.20534 -11.20255
 Alpha  occ. eigenvalues --   -1.59955  -1.39517  -1.19445  -1.08834  -1.07881
 Alpha  occ. eigenvalues --   -1.04859  -1.02953  -0.95678  -0.95461  -0.86497
 Alpha  occ. eigenvalues --   -0.86237  -0.82522  -0.79061  -0.77707  -0.77538
 Alpha  occ. eigenvalues --   -0.72161  -0.71230  -0.70546  -0.65102  -0.64855
 Alpha  occ. eigenvalues --   -0.64525  -0.62200  -0.60374  -0.58882  -0.57116
 Alpha  occ. eigenvalues --   -0.55338  -0.54818  -0.53407  -0.52940  -0.52138
 Alpha  occ. eigenvalues --   -0.51651  -0.49454  -0.48922  -0.48918  -0.47224
 Alpha  occ. eigenvalues --   -0.46143  -0.45459  -0.45142  -0.44502  -0.43227
 Alpha  occ. eigenvalues --   -0.37370  -0.36323
 Alpha virt. eigenvalues --    0.04914   0.11086   0.16363   0.21224   0.23385
 Alpha virt. eigenvalues --    0.24842   0.26664   0.27383   0.27584   0.28468
 Alpha virt. eigenvalues --    0.28756   0.30985   0.31972   0.32194   0.32358

 Mulliken charges:
               1
     1  C   -0.304546
     2  C   -0.298255
     3  C   -0.480195
     4  H    0.148960
     5  H    0.151753
     6  H    0.150665
     7  H    0.149321
     8  H    0.157050
     9  H    0.153977
    10  H    0.153930
    11  C   -0.297491
    12  C   -0.303648
    13  C   -0.475927
    14  H    0.146815
    15  H    0.146310
    16  H    0.158505
    17  H    0.164960
    18  H    0.151327
    19  H    0.151485
    20  H    0.161966
    21  C   -0.165455
    22  C   -0.220687
    23  C   -0.172621
    24  C    0.165949
    25  C   -0.172540
    26  C   -0.217612
    27  H    0.226272
    28  H    0.224004
    29  H    0.275021
    30  H    0.275691
    31  H    0.223952
    32  N    0.490686
    33  O   -0.459829
    34  O   -0.459793
 Sum of Mulliken charges =  -0.00000

 Dipole moment (field-independent basis, Debye):
    X=             -3.9870    Y=              3.2763    Z=              0.2977  Tot=              5.1690
 Quadrupole moment (field-independent basis, Debye-Ang):
   XX=            -83.6904   YY=           -102.8906   ZZ=            -89.0883
   XY=             -2.3118   XZ=              0.4513   YZ=              1.0189

 Normal termination of Gaussian 16 at Thu May  6 06:02:35 2021.
