 Gaussian 16, Revision A.03,
 Gaussian 16:  EM64L-G16RevA.03 25-Dec-2016

 -------------
 #p 6-31g* mp2
 -------------

 ------------------------------------------------------
 Input file generated by CHIRIPA (05-May-2021 14:55:24)
 ------------------------------------------------------
 Symbolic Z-matrix:
 Charge =  0 Multiplicity = 1

                         Standard orientation:
 ---------------------------------------------------------------------
 Center     Atomic      Atomic             Coordinates (Angstroms)
 Number     Number       Type             X           Y           Z
 ---------------------------------------------------------------------
      1          6           0       -0.804652   -1.938989    0.169087
      2          6           0       -0.800108   -1.025102   -0.889833
      3          6           0       -1.817055   -0.073390   -1.010707
      4          6           0       -2.827578   -0.063929   -0.050475
      5          6           0       -2.859902   -0.961164    1.015927
      6          6           0       -1.832722   -1.904165    1.116916
      7          1           0       -0.010688   -2.674918    0.255261
      8          1           0       -0.002968   -1.049813   -1.627398
      9          1           0       -1.838064    0.645840   -1.820450
     10          1           0       -3.667949   -0.911939    1.735687
     11          1           0       -1.838822   -2.612673    1.940339
     12          7           0       -3.909591    0.938995   -0.167913
     13          8           0       -4.788533    0.926567    0.691123
     14          8           0       -3.858243    1.718523   -1.116773
     15          6           0        3.421632   -0.416816    0.319265
     16          6           0        3.299667   -1.497200   -0.755854
     17          6           0        3.362623   -2.912721   -0.181286
     18          1           0        4.367836   -0.552529    0.860767
     19          1           0        2.617731   -0.550441    1.056342
     20          1           0        4.102734   -1.360736   -1.491435
     21          1           0        2.353732   -1.358782   -1.294987
     22          1           0        2.552623   -3.073063    0.537597
     23          1           0        4.311561   -3.075027    0.340032
     24          1           0        3.273514   -3.669298   -0.967105
     25          6           0        3.360446    1.003626   -0.239598
     26          6           0        3.482410    2.084010    0.835520
     27          6           0        3.419454    3.499532    0.260953
     28          1           0        4.164347    1.137251   -0.976675
     29          1           0        2.414242    1.139339   -0.781101
     30          1           0        4.428345    1.945593    1.374653
     31          1           0        2.679344    1.947546    1.571101
     32          1           0        2.470516    3.661836   -0.260366
     33          1           0        4.229454    3.659873   -0.457930
     34          1           0        3.508563    4.256108    1.046772
 ---------------------------------------------------------------------

 SCF Done:  E(RHF) =  -669.535314505     A.U. after   15 cycles
 E2 =    -0.2092428032D+01 EUMP2 =    -0.67162774253725D+03

 The electronic state is 1-A.
 Alpha  occ. eigenvalues --  -20.60786 -20.60781 -15.85840 -11.31216 -11.27787
 Alpha  occ. eigenvalues --  -11.27783 -11.27512 -11.26798 -11.26785 -11.22710
 Alpha  occ. eigenvalues --  -11.22261 -11.22183 -11.22046 -11.21982 -11.21367
 Alpha  occ. eigenvalues --   -1.59862  -1.39415  -1.19389  -1.09190  -1.08777
 Alpha  occ. eigenvalues --   -1.04795  -1.04283  -0.96718  -0.95612  -0.87738
 Alpha  occ. eigenvalues --   -0.86194  -0.82447  -0.80378  -0.78947  -0.77494
 Alpha  occ. eigenvalues --   -0.72058  -0.71185  -0.70510  -0.65906  -0.65036
 Alpha  occ. eigenvalues --   -0.64759  -0.62191  -0.61624  -0.60118  -0.58309
 Alpha  occ. eigenvalues --   -0.56078  -0.55229  -0.53424  -0.53137  -0.53116
 Alpha  occ. eigenvalues --   -0.52896  -0.50669  -0.48831  -0.48812  -0.48659
 Alpha  occ. eigenvalues --   -0.47406  -0.46489  -0.46374  -0.44818  -0.44510
 Alpha  occ. eigenvalues --   -0.37360  -0.36394
 Alpha virt. eigenvalues --    0.05024   0.11165   0.16438   0.18695   0.22901
 Alpha virt. eigenvalues --    0.23551   0.24467   0.25753   0.27042   0.28603
 Alpha virt. eigenvalues --    0.28906   0.29952   0.30986   0.31612   0.32127

 Mulliken charges:
               1
     1  C   -0.176052
     2  C   -0.223582
     3  C   -0.171663
     4  C    0.158687
     5  C   -0.170732
     6  C   -0.219722
     7  H    0.232417
     8  H    0.228600
     9  H    0.275886
    10  H    0.275720
    11  H    0.223831
    12  N    0.487949
    13  O   -0.460304
    14  O   -0.460342
    15  C   -0.298915
    16  C   -0.303579
    17  C   -0.478792
    18  H    0.152726
    19  H    0.150159
    20  H    0.157633
    21  H    0.143380
    22  H    0.147779
    23  H    0.162250
    24  H    0.162205
    25  C   -0.298252
    26  C   -0.300492
    27  C   -0.476370
    28  H    0.150834
    29  H    0.147270
    30  H    0.152577
    31  H    0.153987
    32  H    0.156963
    33  H    0.155339
    34  H    0.162604
 Sum of Mulliken charges =  -0.00000

 Dipole moment (field-independent basis, Debye):
    X=              3.9703    Y=             -3.4615    Z=              0.4623  Tot=              5.2876
 Quadrupole moment (field-independent basis, Debye-Ang):
   XX=           -114.2388   YY=            -95.2564   ZZ=            -91.6983
   XY=             10.7401   XZ=             -3.4825   YZ=             -1.3179

 Normal termination of Gaussian 16 at Wed May  5 20:47:39 2021.
