 Gaussian 16, Revision A.03,
 Gaussian 16:  EM64L-G16RevA.03 25-Dec-2016

 -------------
 #p 6-31g* mp2
 -------------

 ------------------------------------------------------
 Input file generated by CHIRIPA (05-May-2021 14:51:12)
 ------------------------------------------------------
 Symbolic Z-matrix:
 Charge =  0 Multiplicity = 1

                         Standard orientation:
 ---------------------------------------------------------------------
 Center     Atomic      Atomic             Coordinates (Angstroms)
 Number     Number       Type             X           Y           Z
 ---------------------------------------------------------------------
      1          6           0       -4.480285    0.258783    0.336547
      2          6           0       -5.783723    0.260511   -0.462847
      3          6           0       -6.890949    1.069427    0.213539
      4          1           0       -4.672920   -0.147350    1.338990
      5          1           0       -4.143991    1.295194    0.478512
      6          1           0       -6.116727   -0.775670   -0.604452
      7          1           0       -5.587922    0.666509   -1.463569
      8          1           0       -6.583284    2.112392    0.340691
      9          1           0       -7.115094    0.662018    1.204689
     10          1           0       -7.813699    1.057243   -0.374886
     11          6           0       -3.363849   -0.545744   -0.326804
     12          6           0       -2.060411   -0.547472    0.472590
     13          6           0       -0.953185   -1.356388   -0.203797
     14          1           0       -3.700142   -1.582155   -0.468770
     15          1           0       -3.171213   -0.139611   -1.329248
     16          1           0       -2.256212   -0.953470    1.473311
     17          1           0       -1.727406    0.488710    0.614194
     18          1           0       -0.729040   -0.948979   -1.194947
     19          1           0       -1.260849   -2.399353   -0.330948
     20          1           0       -0.030435   -1.344204    0.384628
     21          6           0        4.208242   -0.554733    0.113593
     22          6           0        3.196111   -1.674430   -0.131065
     23          6           0        3.783500   -3.065342    0.110038
     24          1           0        5.077700   -0.705618   -0.540793
     25          1           0        4.578313   -0.623586    1.145921
     26          1           0        2.827028   -1.602644   -1.162200
     27          1           0        2.328876   -1.520755    0.523843
     28          1           0        4.135076   -3.161396    1.142399
     29          1           0        4.636058   -3.243752   -0.553223
     30          1           0        3.042948   -3.850713   -0.070617
     31          6           0        3.635892    0.841694   -0.123335
     32          6           0        4.648022    1.961391    0.121323
     33          6           0        4.060634    3.352303   -0.119781
     34          1           0        3.265821    0.910546   -1.155663
     35          1           0        2.766433    0.992579    0.531051
     36          1           0        5.515257    1.807715   -0.533585
     37          1           0        5.017106    1.889605    1.152458
     38          1           0        3.208076    3.530712    0.543482
     39          1           0        3.709058    3.448357   -1.152141
     40          1           0        4.801185    4.137673    0.060875
 ---------------------------------------------------------------------

 SCF Done:  E(RHF) =  -470.733168720     A.U. after   11 cycles
 E2 =    -0.1582470657D+01 EUMP2 =    -0.47231563937712D+03

 The electronic state is 1-A.
 Alpha  occ. eigenvalues --  -11.21597 -11.21593 -11.21577 -11.21556 -11.21392
 Alpha  occ. eigenvalues --  -11.21390 -11.21331 -11.21331 -11.21073 -11.21065
 Alpha  occ. eigenvalues --  -11.21041 -11.21001  -1.08423  -1.08407  -1.03532
 Alpha  occ. eigenvalues --   -1.03492  -0.95974  -0.95947  -0.87008  -0.86948
 Alpha  occ. eigenvalues --   -0.79650  -0.79505  -0.78247  -0.78207  -0.65054
 Alpha  occ. eigenvalues --   -0.65043  -0.60931  -0.60904  -0.59464  -0.59209
 Alpha  occ. eigenvalues --   -0.57625  -0.57517  -0.55254  -0.55240  -0.52747
 Alpha  occ. eigenvalues --   -0.52608  -0.52404  -0.52352  -0.49906  -0.49896
 Alpha  occ. eigenvalues --   -0.47983  -0.47807  -0.46611  -0.46599  -0.45776
 Alpha  occ. eigenvalues --   -0.45770  -0.45696  -0.45684  -0.43795  -0.43672
 Alpha virt. eigenvalues --    0.21958   0.23069   0.23709   0.24612   0.26036
 Alpha virt. eigenvalues --    0.26580   0.26875   0.27578   0.27996   0.28977
 Alpha virt. eigenvalues --    0.30264   0.31298   0.31580   0.31972   0.32038

 Mulliken charges:
               1
     1  C   -0.298206
     2  C   -0.299616
     3  C   -0.475691
     4  H    0.149544
     5  H    0.149489
     6  H    0.151897
     7  H    0.151937
     8  H    0.155175
     9  H    0.155139
    10  H    0.160222
    11  C   -0.298528
    12  C   -0.299302
    13  C   -0.480506
    14  H    0.149449
    15  H    0.149645
    16  H    0.151471
    17  H    0.151691
    18  H    0.155234
    19  H    0.154603
    20  H    0.165920
    21  C   -0.297902
    22  C   -0.304456
    23  C   -0.475565
    24  H    0.149582
    25  H    0.149203
    26  H    0.152813
    27  H    0.156551
    28  H    0.154761
    29  H    0.155052
    30  H    0.160695
    31  C   -0.298237
    32  C   -0.299616
    33  C   -0.475677
    34  H    0.149565
    35  H    0.149338
    36  H    0.151987
    37  H    0.151902
    38  H    0.155090
    39  H    0.155098
    40  H    0.160247
 Sum of Mulliken charges =  -0.00000

 Dipole moment (field-independent basis, Debye):
    X=              0.0133    Y=             -0.0077    Z=             -0.0080  Tot=              0.0173
 Quadrupole moment (field-independent basis, Debye-Ang):
   XX=            -85.6099   YY=            -85.5377   ZZ=            -83.7083
   XY=              1.0219   XZ=             -0.1757   YZ=             -0.4339

 Normal termination of Gaussian 16 at Wed May  5 18:19:55 2021.
