 Gaussian 16, Revision A.03,
 Gaussian 16:  EM64L-G16RevA.03 25-Dec-2016

 -------------
 #p 6-31g* mp2
 -------------

 ------------------------------------------------------
 Input file generated by CHIRIPA (05-May-2021 14:51:10)
 ------------------------------------------------------
 Symbolic Z-matrix:
 Charge =  0 Multiplicity = 1

                         Standard orientation:
 ---------------------------------------------------------------------
 Center     Atomic      Atomic             Coordinates (Angstroms)
 Number     Number       Type             X           Y           Z
 ---------------------------------------------------------------------
      1          6           0       -3.306606    0.840045   -0.347045
      2          6           0       -3.202313    2.059430    0.569584
      3          6           0       -2.887511    3.346864   -0.192786
      4          1           0       -2.363008    0.720854   -0.896920
      5          1           0       -4.086256    1.021499   -1.099784
      6          1           0       -2.424045    1.875169    1.321224
      7          1           0       -4.146200    2.175619    1.117482
      8          1           0       -3.667781    3.557916   -0.931188
      9          1           0       -1.935841    3.255758   -0.726288
     10          1           0       -2.817434    4.205932    0.481715
     11          6           0       -3.620911   -0.454633    0.400449
     12          6           0       -3.725205   -1.674018   -0.516180
     13          6           0       -4.040006   -2.961452    0.246190
     14          1           0       -2.841262   -0.636087    1.153188
     15          1           0       -4.564509   -0.335442    0.950324
     16          1           0       -2.781317   -1.790208   -1.064078
     17          1           0       -4.503473   -1.489757   -1.267820
     18          1           0       -4.991676   -2.870346    0.779692
     19          1           0       -3.259736   -3.172504    0.984592
     20          1           0       -4.110083   -3.820520   -0.428311
     21          6           0        2.766477    0.112772   -0.089263
     22          6           0        1.644260   -0.925153   -0.052814
     23          6           0        0.255252   -0.298644   -0.179050
     24          1           0        2.614098    0.836871    0.722774
     25          1           0        2.702555    0.678824   -1.028887
     26          1           0        1.711122   -1.490009    0.885847
     27          1           0        1.799436   -1.646976   -0.864915
     28          1           0        0.164100    0.249344   -1.122449
     29          1           0        0.075285    0.407203    0.638258
     30          1           0       -0.531970   -1.058470   -0.150636
     31          6           0        4.161040   -0.498183    0.035859
     32          6           0        5.283257    0.539741   -0.000590
     33          6           0        6.672266   -0.086768    0.125646
     34          1           0        4.224962   -1.064236    0.975483
     35          1           0        4.313420   -1.222284   -0.776178
     36          1           0        5.128081    1.261565    0.811511
     37          1           0        5.216395    1.104597   -0.939250
     38          1           0        6.852232   -0.792614   -0.691662
     39          1           0        6.763417   -0.634755    1.069046
     40          1           0        7.459487    0.673058    0.097232
 ---------------------------------------------------------------------

 SCF Done:  E(RHF) =  -470.732417314     A.U. after   11 cycles
 E2 =    -0.1584168973D+01 EUMP2 =    -0.47231658628728D+03

 The electronic state is 1-A.
 Alpha  occ. eigenvalues --  -11.21682 -11.21638 -11.21551 -11.21501 -11.21464
 Alpha  occ. eigenvalues --  -11.21401 -11.21276 -11.21196 -11.21170 -11.21099
 Alpha  occ. eigenvalues --  -11.21049 -11.20997  -1.08502  -1.08327  -1.03604
 Alpha  occ. eigenvalues --   -1.03460  -0.96089  -0.95877  -0.87094  -0.86920
 Alpha  occ. eigenvalues --   -0.79692  -0.79518  -0.78313  -0.78130  -0.65126
 Alpha  occ. eigenvalues --   -0.65009  -0.61008  -0.60915  -0.59401  -0.59260
 Alpha  occ. eigenvalues --   -0.57656  -0.57513  -0.55351  -0.55219  -0.52746
 Alpha  occ. eigenvalues --   -0.52599  -0.52503  -0.52304  -0.50021  -0.49845
 Alpha  occ. eigenvalues --   -0.48044  -0.47767  -0.46741  -0.46551  -0.45909
 Alpha  occ. eigenvalues --   -0.45792  -0.45647  -0.45482  -0.43802  -0.43680
 Alpha virt. eigenvalues --    0.20625   0.22980   0.23431   0.24718   0.25986
 Alpha virt. eigenvalues --    0.26203   0.27409   0.27560   0.27949   0.29598
 Alpha virt. eigenvalues --    0.30032   0.30460   0.31766   0.32010   0.32295

 Mulliken charges:
               1
     1  C   -0.303671
     2  C   -0.300232
     3  C   -0.475854
     4  H    0.159709
     5  H    0.148407
     6  H    0.151992
     7  H    0.151326
     8  H    0.154918
     9  H    0.155251
    10  H    0.159679
    11  C   -0.300018
    12  C   -0.303093
    13  C   -0.475674
    14  H    0.150629
    15  H    0.149555
    16  H    0.153337
    17  H    0.152264
    18  H    0.155401
    19  H    0.154618
    20  H    0.160042
    21  C   -0.298788
    22  C   -0.300539
    23  C   -0.483064
    24  H    0.149737
    25  H    0.149634
    26  H    0.152073
    27  H    0.152300
    28  H    0.155016
    29  H    0.156986
    30  H    0.167439
    31  C   -0.298302
    32  C   -0.299671
    33  C   -0.475743
    34  H    0.149637
    35  H    0.149781
    36  H    0.152024
    37  H    0.152015
    38  H    0.155241
    39  H    0.155238
    40  H    0.160402
 Sum of Mulliken charges =  -0.00000

 Dipole moment (field-independent basis, Debye):
    X=              0.0597    Y=             -0.0103    Z=             -0.0121  Tot=              0.0618
 Quadrupole moment (field-independent basis, Debye-Ang):
   XX=            -85.1722   YY=            -85.9920   ZZ=            -83.9017
   XY=             -0.0527   XZ=              0.0928   YZ=              0.5081

 Normal termination of Gaussian 16 at Wed May  5 18:11:46 2021.
