 Gaussian 16, Revision A.03,
 Gaussian 16:  EM64L-G16RevA.03 25-Dec-2016

 -------------
 #p 6-31g* mp2
 -------------

 ------------------------------------------------------
 Input file generated by CHIRIPA (05-May-2021 14:57:22)
 ------------------------------------------------------
 Symbolic Z-matrix:
 Charge =  0 Multiplicity = 1

                         Standard orientation:
 ---------------------------------------------------------------------
 Center     Atomic      Atomic             Coordinates (Angstroms)
 Number     Number       Type             X           Y           Z
 ---------------------------------------------------------------------
      1          6           0        2.433389   -2.465875    0.472264
      2          6           0        1.544986   -1.688384   -0.277916
      3          6           0        1.869486   -0.372962   -0.622752
      4          6           0        3.096371    0.135340   -0.198873
      5          6           0        4.002666   -0.614193    0.549538
      6          6           0        3.657236   -1.927248    0.882873
      7          1           0        2.173179   -3.486808    0.735674
      8          1           0        0.593833   -2.104068   -0.598167
      9          1           0        1.200384    0.251095   -1.202643
     10          1           0        4.943478   -0.172193    0.854377
     11          1           0        4.349138   -2.528736    1.465563
     12          7           0        3.450983    1.526665   -0.557848
     13          8           0        4.538070    1.951156   -0.172249
     14          8           0        2.635127    2.166350   -1.218013
     15          6           0       -2.931676    2.475554    0.965955
     16          6           0       -3.705538    2.157365   -0.154942
     17          6           0       -3.771786    0.841158   -0.621589
     18          6           0       -3.048198   -0.136275    0.059831
     19          6           0       -2.268264    0.149257    1.179414
     20          6           0       -2.216769    1.472253    1.628389
     21          1           0       -2.885943    3.500652    1.321593
     22          1           0       -4.261790    2.934490   -0.671378
     23          1           0       -4.363018    0.567045   -1.486878
     24          1           0       -1.724787   -0.647034    1.673345
     25          1           0       -1.614952    1.716450    2.499152
     26          7           0       -3.110523   -1.533278   -0.424832
     27          8           0       -2.463735   -2.376149    0.193126
     28          8           0       -3.804981   -1.758926   -1.413492
 ---------------------------------------------------------------------

 SCF Done:  E(RHF) =  -868.340198655     A.U. after   16 cycles
 E2 =    -0.2598992615D+01 EUMP2 =    -0.87093919127014D+03

 The electronic state is 1-A.
 Alpha  occ. eigenvalues --  -20.61539 -20.61481 -20.60767 -20.60760 -15.86529
 Alpha  occ. eigenvalues --  -15.85812 -11.31608 -11.31044 -11.28147 -11.28116
 Alpha  occ. eigenvalues --  -11.27772 -11.27600 -11.27543 -11.27217 -11.27058
 Alpha  occ. eigenvalues --  -11.27044 -11.26580 -11.26396  -1.60578  -1.59846
 Alpha  occ. eigenvalues --   -1.40139  -1.39403  -1.19743  -1.19183  -1.09181
 Alpha  occ. eigenvalues --   -1.08586  -1.05094  -1.04549  -0.96065  -0.95452
 Alpha  occ. eigenvalues --   -0.86502  -0.85935  -0.82907  -0.82281  -0.78001
 Alpha  occ. eigenvalues --   -0.77357  -0.72750  -0.72031  -0.71895  -0.71172
 Alpha  occ. eigenvalues --   -0.70821  -0.70255  -0.65389  -0.65078  -0.64814
 Alpha  occ. eigenvalues --   -0.64491  -0.62446  -0.61876  -0.55574  -0.55007
 Alpha  occ. eigenvalues --   -0.53449  -0.53176  -0.52903  -0.52596  -0.49527
 Alpha  occ. eigenvalues --   -0.49478  -0.48796  -0.48774  -0.45588  -0.44838
 Alpha  occ. eigenvalues --   -0.37690  -0.37146  -0.36712  -0.36137
 Alpha virt. eigenvalues --    0.04471   0.05149   0.10952   0.11484   0.16026
 Alpha virt. eigenvalues --    0.16677   0.21147   0.21821   0.27026   0.27480
 Alpha virt. eigenvalues --    0.28174   0.28624   0.30643   0.31437   0.32170

 Mulliken charges:
               1
     1  C   -0.172732
     2  C   -0.226633
     3  C   -0.174770
     4  C    0.157408
     5  C   -0.172768
     6  C   -0.219088
     7  H    0.229965
     8  H    0.240305
     9  H    0.274365
    10  H    0.274080
    11  H    0.222754
    12  N    0.487889
    13  O   -0.461477
    14  O   -0.462416
    15  C   -0.168160
    16  C   -0.217772
    17  C   -0.170862
    18  C    0.154910
    19  C   -0.173653
    20  C   -0.217198
    21  H    0.229733
    22  H    0.226214
    23  H    0.276223
    24  H    0.273712
    25  H    0.226499
    26  N    0.487307
    27  O   -0.468100
    28  O   -0.455734
 Sum of Mulliken charges =  -0.00000

 Dipole moment (field-independent basis, Debye):
    X=             -1.2775    Y=              0.0917    Z=              2.9841  Tot=              3.2473
 Quadrupole moment (field-independent basis, Debye-Ang):
   XX=           -108.8928   YY=           -107.6800   ZZ=           -102.1536
   XY=            -32.8817   XZ=              4.0813   YZ=             -0.0199

 Normal termination of Gaussian 16 at Fri May  7 03:15:55 2021.
