 Gaussian 16, Revision A.03,
 Gaussian 16:  EM64L-G16RevA.03 25-Dec-2016

 -------------
 #p 6-31g* mp2
 -------------

 ------------------------------------------------------
 Input file generated by CHIRIPA (05-May-2021 14:55:22)
 ------------------------------------------------------
 Symbolic Z-matrix:
 Charge =  0 Multiplicity = 1

                         Standard orientation:
 ---------------------------------------------------------------------
 Center     Atomic      Atomic             Coordinates (Angstroms)
 Number     Number       Type             X           Y           Z
 ---------------------------------------------------------------------
      1          6           0       -0.938225    0.873890    1.322001
      2          6           0       -1.183611    1.210754   -0.013225
      3          6           0       -2.312465    0.717264   -0.674061
      4          6           0       -3.178820   -0.114363    0.033834
      5          6           0       -2.961722   -0.468115    1.364630
      6          6           0       -1.826497    0.037006    2.005462
      7          1           0       -0.058829    1.261762    1.827585
      8          1           0       -0.495492    1.860487   -0.546502
      9          1           0       -2.526600    0.962059   -1.707327
     10          1           0       -3.665851   -1.117926    1.869966
     11          1           0       -1.638460   -0.226283    3.042461
     12          7           0       -4.377260   -0.642956   -0.655175
     13          8           0       -5.125172   -1.373826   -0.009349
     14          8           0       -4.545991   -0.316387   -1.828001
     15          6           0        3.924654    0.790271   -0.220520
     16          6           0        2.622600    1.591569   -0.196822
     17          6           0        2.856273    3.101221   -0.261169
     18          1           0        4.554728    1.101540    0.623911
     19          1           0        4.482462    1.037274   -1.134432
     20          1           0        2.066764    1.342092    0.716099
     21          1           0        1.995471    1.278220   -1.041297
     22          1           0        3.389492    3.369739   -1.178871
     23          1           0        3.461190    3.433974    0.588510
     24          1           0        1.912258    3.654724   -0.242988
     25          6           0        3.707482   -0.720524   -0.156800
     26          6           0        5.009536   -1.521822   -0.180499
     27          6           0        4.775862   -3.031473   -0.116152
     28          1           0        3.149673   -0.967527    0.757111
     29          1           0        3.077409   -1.031793   -1.001232
     30          1           0        5.636665   -1.208473    0.663976
     31          1           0        5.565372   -1.272344   -1.093419
     32          1           0        4.170946   -3.364227   -0.965830
     33          1           0        4.242643   -3.299992    0.801549
     34          1           0        5.719877   -3.584976   -0.134332
 ---------------------------------------------------------------------

 SCF Done:  E(RHF) =  -669.534816740     A.U. after   15 cycles
 E2 =    -0.2092258934D+01 EUMP2 =    -0.67162707567395D+03

 The electronic state is 1-A.
 Alpha  occ. eigenvalues --  -20.60718 -20.60713 -15.85770 -11.31122 -11.27691
 Alpha  occ. eigenvalues --  -11.27677 -11.27401 -11.26704 -11.26654 -11.22815
 Alpha  occ. eigenvalues --  -11.22262 -11.22204 -11.22154 -11.22060 -11.21505
 Alpha  occ. eigenvalues --   -1.59794  -1.39348  -1.19290  -1.09271  -1.08684
 Alpha  occ. eigenvalues --   -1.04697  -1.04367  -0.96785  -0.95527  -0.87797
 Alpha  occ. eigenvalues --   -0.86093  -0.82362  -0.80491  -0.79042  -0.77403
 Alpha  occ. eigenvalues --   -0.71989  -0.71117  -0.70424  -0.65898  -0.64941
 Alpha  occ. eigenvalues --   -0.64717  -0.62076  -0.61763  -0.60168  -0.58387
 Alpha  occ. eigenvalues --   -0.56056  -0.55213  -0.53504  -0.53218  -0.53008
 Alpha  occ. eigenvalues --   -0.52775  -0.50710  -0.48786  -0.48748  -0.48716
 Alpha  occ. eigenvalues --   -0.47496  -0.46568  -0.46467  -0.44756  -0.44603
 Alpha  occ. eigenvalues --   -0.37249  -0.36289
 Alpha virt. eigenvalues --    0.05108   0.11312   0.16538   0.19403   0.22476
 Alpha virt. eigenvalues --    0.23786   0.24766   0.25862   0.26617   0.28001
 Alpha virt. eigenvalues --    0.29130   0.29595   0.30846   0.31500   0.31739

 Mulliken charges:
               1
     1  C   -0.172963
     2  C   -0.220519
     3  C   -0.172255
     4  C    0.158692
     5  C   -0.171109
     6  C   -0.218908
     7  H    0.227413
     8  H    0.229314
     9  H    0.275278
    10  H    0.275265
    11  H    0.222965
    12  N    0.488053
    13  O   -0.460638
    14  O   -0.460672
    15  C   -0.298194
    16  C   -0.306064
    17  C   -0.478183
    18  H    0.151206
    19  H    0.153113
    20  H    0.145186
    21  H    0.152214
    22  H    0.161230
    23  H    0.159062
    24  H    0.155736
    25  C   -0.298595
    26  C   -0.300418
    27  C   -0.476113
    28  H    0.147758
    29  H    0.152299
    30  H    0.152204
    31  H    0.153427
    32  H    0.157011
    33  H    0.155130
    34  H    0.162076
 Sum of Mulliken charges =  -0.00000

 Dipole moment (field-independent basis, Debye):
    X=              4.4577    Y=              1.8216    Z=              2.3700  Tot=              5.3671
 Quadrupole moment (field-independent basis, Debye-Ang):
   XX=           -121.2736   YY=            -95.7321   ZZ=            -90.2545
   XY=             -5.6823   XZ=             -9.0361   YZ=             -2.5211

 Normal termination of Gaussian 16 at Thu May  6 15:52:45 2021.
