 Gaussian 16, Revision A.03,
 Gaussian 16:  EM64L-G16RevA.03 25-Dec-2016

 -------------
 #p 6-31g* mp2
 -------------

 ------------------------------------------------------
 Input file generated by CHIRIPA (05-May-2021 14:55:21)
 ------------------------------------------------------
 Symbolic Z-matrix:
 Charge =  0 Multiplicity = 1

                         Standard orientation:
 ---------------------------------------------------------------------
 Center     Atomic      Atomic             Coordinates (Angstroms)
 Number     Number       Type             X           Y           Z
 ---------------------------------------------------------------------
      1          6           0       -1.526306   -2.498594   -0.698754
      2          6           0       -2.878264   -2.442237   -0.344417
      3          6           0       -3.468779   -1.226137    0.011870
      4          6           0       -2.674266   -0.080729    0.002960
      5          6           0       -1.324650   -0.104494   -0.345267
      6          6           0       -0.755174   -1.331601   -0.698050
      7          1           0       -1.075752   -3.447565   -0.974165
      8          1           0       -3.479560   -3.346941   -0.344075
      9          1           0       -4.513101   -1.153932    0.290428
     10          1           0       -0.750796    0.814215   -0.336242
     11          1           0        0.295017   -1.372373   -0.972788
     12          7           0       -3.288281    1.212528    0.378290
     13          8           0       -2.566745    2.207402    0.362533
     14          8           0       -4.479455    1.206820    0.681124
     15          6           0        3.816814   -0.180077    0.061018
     16          6           0        3.304061   -1.509459    0.615827
     17          6           0        4.362397   -2.612392    0.580402
     18          1           0        4.158967   -0.328848   -0.972298
     19          1           0        4.696307    0.135701    0.639094
     20          1           0        2.424964   -1.821945    0.037763
     21          1           0        2.962910   -1.357464    1.647878
     22          1           0        5.237368   -2.325877    1.172802
     23          1           0        4.696364   -2.792996   -0.446462
     24          1           0        3.974596   -3.553946    0.981584
     25          6           0        2.770242    0.932392    0.089762
     26          6           0        3.282995    2.261774   -0.465046
     27          6           0        2.224658    3.364707   -0.429622
     28          1           0        1.890749    0.616614   -0.488313
     29          1           0        2.428088    1.081163    1.123079
     30          1           0        3.624145    2.109779   -1.497098
     31          1           0        4.162091    2.574260    0.113018
     32          1           0        1.890691    3.545311    0.597242
     33          1           0        1.349688    3.078191   -1.022022
     34          1           0        2.612459    4.306260   -0.830803
 ---------------------------------------------------------------------

 SCF Done:  E(RHF) =  -669.534971253     A.U. after   15 cycles
 E2 =    -0.2092698248D+01 EUMP2 =    -0.67162766950034D+03

 The electronic state is 1-A.
 Alpha  occ. eigenvalues --  -20.60708 -20.60703 -15.85760 -11.31114 -11.27692
 Alpha  occ. eigenvalues --  -11.27659 -11.27434 -11.26707 -11.26662 -11.22446
 Alpha  occ. eigenvalues --  -11.22158 -11.22074 -11.22003 -11.21768 -11.21232
 Alpha  occ. eigenvalues --   -1.59784  -1.39337  -1.19289  -1.09111  -1.08687
 Alpha  occ. eigenvalues --   -1.04692  -1.04101  -0.96527  -0.95524  -0.87539
 Alpha  occ. eigenvalues --   -0.86095  -0.82366  -0.80177  -0.78962  -0.77386
 Alpha  occ. eigenvalues --   -0.71979  -0.71107  -0.70404  -0.65813  -0.64941
 Alpha  occ. eigenvalues --   -0.64689  -0.62038  -0.61495  -0.59918  -0.58141
 Alpha  occ. eigenvalues --   -0.55809  -0.55203  -0.53205  -0.53018  -0.52954
 Alpha  occ. eigenvalues --   -0.52785  -0.50476  -0.48748  -0.48733  -0.48459
 Alpha  occ. eigenvalues --   -0.47216  -0.46435  -0.46360  -0.44745  -0.44380
 Alpha  occ. eigenvalues --   -0.37273  -0.36283
 Alpha virt. eigenvalues --    0.05127   0.11306   0.16590   0.19078   0.22545
 Alpha virt. eigenvalues --    0.23033   0.24796   0.26432   0.26523   0.27841
 Alpha virt. eigenvalues --    0.29750   0.30909   0.31306   0.31499   0.32250

 Mulliken charges:
               1
     1  C   -0.172048
     2  C   -0.218869
     3  C   -0.170698
     4  C    0.158938
     5  C   -0.176410
     6  C   -0.223452
     7  H    0.225228
     8  H    0.223130
     9  H    0.275304
    10  H    0.279681
    11  H    0.230528
    12  N    0.488084
    13  O   -0.460478
    14  O   -0.460813
    15  C   -0.299013
    16  C   -0.302168
    17  C   -0.475900
    18  H    0.149897
    19  H    0.154235
    20  H    0.141963
    21  H    0.156905
    22  H    0.158973
    23  H    0.155342
    24  H    0.160548
    25  C   -0.302285
    26  C   -0.300516
    27  C   -0.477868
    28  H    0.139286
    29  H    0.155444
    30  H    0.151923
    31  H    0.154615
    32  H    0.161008
    33  H    0.156068
    34  H    0.163419
 Sum of Mulliken charges =  -0.00000

 Dipole moment (field-independent basis, Debye):
    X=              2.3557    Y=             -4.4239    Z=             -1.2212  Tot=              5.1586
 Quadrupole moment (field-independent basis, Debye-Ang):
   XX=           -102.2958   YY=            -93.7157   ZZ=            -94.5831
   XY=             15.3378   XZ=              3.3795   YZ=              0.0107

 Normal termination of Gaussian 16 at Wed May  5 18:57:17 2021.
