 Gaussian 16, Revision A.03,
 Gaussian 16:  EM64L-G16RevA.03 25-Dec-2016

 -------------
 #p 6-31g* mp2
 -------------

 ------------------------------------------------------
 Input file generated by CHIRIPA (05-May-2021 14:57:22)
 ------------------------------------------------------
 Symbolic Z-matrix:
 Charge =  0 Multiplicity = 1

                         Standard orientation:
 ---------------------------------------------------------------------
 Center     Atomic      Atomic             Coordinates (Angstroms)
 Number     Number       Type             X           Y           Z
 ---------------------------------------------------------------------
      1          6           0        1.908005    1.445921    0.262617
      2          6           0        1.834519    0.052719    0.363163
      3          6           0        2.970511   -0.735083    0.154745
      4          6           0        4.169084   -0.093655   -0.153936
      5          6           0        4.274298    1.292244   -0.261189
      6          6           0        3.125513    2.060154   -0.048689
      7          1           0        1.020570    2.050178    0.426107
      8          1           0        0.890323   -0.427026    0.604791
      9          1           0        2.941855   -1.815578    0.226339
     10          1           0        5.229612    1.741775   -0.503500
     11          1           0        3.185543    3.141931   -0.127429
     12          7           0        5.378479   -0.917136   -0.376740
     13          8           0        6.422525   -0.327805   -0.647468
     14          8           0        5.259457   -2.136320   -0.276426
     15          6           0       -5.898534   -0.509034   -1.440891
     16          6           0       -5.597338   -1.406574   -0.411220
     17          6           0       -4.530952   -1.158011    0.458023
     18          6           0       -3.783294    0.003080    0.267847
     19          6           0       -4.058474    0.916535   -0.748601
     20          6           0       -5.129496    0.647617   -1.606006
     21          1           0       -6.728730   -0.710030   -2.111542
     22          1           0       -6.192867   -2.305647   -0.280616
     23          1           0       -4.275796   -1.835902    1.263491
     24          1           0       -3.446740    1.804306   -0.853776
     25          1           0       -5.361106    1.346435   -2.404789
     26          7           0       -2.651904    0.276997    1.181809
     27          8           0       -2.008483    1.307070    0.993142
     28          8           0       -2.429965   -0.543566    2.069534
 ---------------------------------------------------------------------

 SCF Done:  E(RHF) =  -868.340788691     A.U. after   16 cycles
 E2 =    -0.2598403785D+01 EUMP2 =    -0.87093919247598D+03

 The electronic state is 1-A.
 Alpha  occ. eigenvalues --  -20.62054 -20.62008 -20.60058 -20.60052 -15.87052
 Alpha  occ. eigenvalues --  -15.85104 -11.32056 -11.30256 -11.28595 -11.28565
 Alpha  occ. eigenvalues --  -11.28244 -11.27510 -11.27492 -11.26842 -11.26774
 Alpha  occ. eigenvalues --  -11.26301 -11.25764 -11.25598  -1.61097  -1.59139
 Alpha  occ. eigenvalues --   -1.40656  -1.38698  -1.20193  -1.18389  -1.09653
 Alpha  occ. eigenvalues --   -1.07781  -1.05539  -1.03765  -0.96546  -0.94659
 Alpha  occ. eigenvalues --   -0.86953  -0.85142  -0.83392  -0.81512  -0.78480
 Alpha  occ. eigenvalues --   -0.76624  -0.73278  -0.72403  -0.71325  -0.71290
 Alpha  occ. eigenvalues --   -0.70461  -0.69381  -0.65846  -0.65533  -0.64015
 Alpha  occ. eigenvalues --   -0.63726  -0.62890  -0.61120  -0.56045  -0.54115
 Alpha  occ. eigenvalues --   -0.53887  -0.53622  -0.52108  -0.51828  -0.50044
 Alpha  occ. eigenvalues --   -0.49993  -0.48094  -0.48060  -0.46132  -0.44153
 Alpha  occ. eigenvalues --   -0.38147  -0.37124  -0.36305  -0.35392
 Alpha virt. eigenvalues --    0.03992   0.05906   0.10536   0.12280   0.15556
 Alpha virt. eigenvalues --    0.17477   0.20700   0.22607   0.26658   0.27507
 Alpha virt. eigenvalues --    0.28291   0.29463   0.30435   0.31633   0.32275

 Mulliken charges:
               1
     1  C   -0.175246
     2  C   -0.221597
     3  C   -0.172968
     4  C    0.157218
     5  C   -0.172379
     6  C   -0.220114
     7  H    0.242642
     8  H    0.232171
     9  H    0.272624
    10  H    0.271921
    11  H    0.220011
    12  N    0.488285
    13  O   -0.463414
    14  O   -0.462878
    15  C   -0.169310
    16  C   -0.218423
    17  C   -0.170301
    18  C    0.156976
    19  C   -0.170303
    20  C   -0.218328
    21  H    0.228858
    22  H    0.226545
    23  H    0.276949
    24  H    0.274088
    25  H    0.225912
    26  N    0.489167
    27  O   -0.470887
    28  O   -0.457218
 Sum of Mulliken charges =  -0.00000

 Dipole moment (field-independent basis, Debye):
    X=             -8.9208    Y=              1.9050    Z=             -2.4110  Tot=              9.4352
 Quadrupole moment (field-independent basis, Debye-Ang):
   XX=           -109.7702   YY=            -98.7821   ZZ=           -106.6493
   XY=             20.1393   XZ=             14.7500   YZ=             -4.0692

 Normal termination of Gaussian 16 at Wed May  5 22:34:43 2021.
