 Gaussian 16, Revision A.03,
 Gaussian 16:  EM64L-G16RevA.03 25-Dec-2016

 -------------
 #p 6-31g* mp2
 -------------

 ------------------------------------------------------
 Input file generated by CHIRIPA (05-May-2021 14:55:23)
 ------------------------------------------------------
 Symbolic Z-matrix:
 Charge =  0 Multiplicity = 1

                         Standard orientation:
 ---------------------------------------------------------------------
 Center     Atomic      Atomic             Coordinates (Angstroms)
 Number     Number       Type             X           Y           Z
 ---------------------------------------------------------------------
      1          6           0        0.287687   -2.004061    1.301799
      2          6           0        0.761599   -2.407311    0.049074
      3          6           0        1.754859   -1.672025   -0.604636
      4          6           0        2.254065   -0.533537    0.026179
      5          6           0        1.802417   -0.106129    1.273828
      6          6           0        0.808690   -0.856780    1.909106
      7          1           0       -0.484083   -2.581216    1.802457
      8          1           0        0.358820   -3.297881   -0.424949
      9          1           0        2.139854   -1.961585   -1.574869
     10          1           0        2.223303    0.786095    1.721274
     11          1           0        0.442542   -0.541239    2.881945
     12          7           0        3.305832    0.253011   -0.656118
     13          8           0        3.729274    1.252255   -0.079192
     14          8           0        3.686850   -0.144632   -1.754910
     15          6           0       -3.329368    0.534228    0.024605
     16          6           0       -3.790901   -0.571127   -0.925743
     17          6           0       -5.124864   -1.190834   -0.508250
     18          1           0       -3.242748    0.123591    1.039898
     19          1           0       -4.100215    1.316070    0.068369
     20          1           0       -3.018800   -1.349988   -0.968769
     21          1           0       -3.876249   -0.157858   -1.938926
     22          1           0       -5.911998   -0.430300   -0.483531
     23          1           0       -5.049677   -1.629205    0.492140
     24          1           0       -5.435960   -1.978654   -1.201372
     25          6           0       -1.997278    1.163485   -0.379498
     26          6           0       -1.535745    2.268839    0.570851
     27          6           0       -0.201782    2.888546    0.153357
     28          1           0       -1.226431    0.381643   -0.423262
     29          1           0       -2.083899    1.574121   -1.394790
     30          1           0       -1.450398    1.855570    1.584034
     31          1           0       -2.307847    3.047701    0.613876
     32          1           0       -0.276970    3.326917   -0.847032
     33          1           0        0.585351    2.128014    0.128638
     34          1           0        0.109313    3.676367    0.846479
 ---------------------------------------------------------------------

 SCF Done:  E(RHF) =  -669.535035045     A.U. after   15 cycles
 E2 =    -0.2095014134D+01 EUMP2 =    -0.67163004917875D+03

 The electronic state is 1-A.
 Alpha  occ. eigenvalues --  -20.60890 -20.60871 -15.85926 -11.31332 -11.27924
 Alpha  occ. eigenvalues --  -11.27900 -11.27681 -11.26944 -11.26925 -11.21999
 Alpha  occ. eigenvalues --  -11.21733 -11.21705 -11.21503 -11.21458 -11.20949
 Alpha  occ. eigenvalues --   -1.59949  -1.39501  -1.19537  -1.08915  -1.08662
 Alpha  occ. eigenvalues --   -1.04942  -1.03753  -0.96190  -0.95731  -0.87204
 Alpha  occ. eigenvalues --   -0.86323  -0.82560  -0.79830  -0.78470  -0.77601
 Alpha  occ. eigenvalues --   -0.72144  -0.71277  -0.70631  -0.65330  -0.65177
 Alpha  occ. eigenvalues --   -0.64925  -0.62296  -0.61179  -0.59569  -0.57801
 Alpha  occ. eigenvalues --   -0.55559  -0.55367  -0.53291  -0.53021  -0.52866
 Alpha  occ. eigenvalues --   -0.52600  -0.50139  -0.48909  -0.48898  -0.48135
 Alpha  occ. eigenvalues --   -0.46890  -0.46010  -0.45861  -0.44862  -0.43994
 Alpha  occ. eigenvalues --   -0.37478  -0.36486
 Alpha virt. eigenvalues --    0.04915   0.10995   0.16353   0.20704   0.22858
 Alpha virt. eigenvalues --    0.23871   0.26147   0.26564   0.27293   0.27991
 Alpha virt. eigenvalues --    0.28564   0.30266   0.31223   0.31709   0.31883

 Mulliken charges:
               1
     1  C   -0.171414
     2  C   -0.218988
     3  C   -0.170589
     4  C    0.161266
     5  C   -0.175236
     6  C   -0.216588
     7  H    0.226730
     8  H    0.224610
     9  H    0.276612
    10  H    0.277916
    11  H    0.224643
    12  N    0.488865
    13  O   -0.459531
    14  O   -0.459528
    15  C   -0.296644
    16  C   -0.299220
    17  C   -0.475400
    18  H    0.143196
    19  H    0.150787
    20  H    0.146936
    21  H    0.154561
    22  H    0.157313
    23  H    0.151750
    24  H    0.160321
    25  C   -0.303341
    26  C   -0.297677
    27  C   -0.480243
    28  H    0.155804
    29  H    0.150971
    30  H    0.142955
    31  H    0.152144
    32  H    0.158652
    33  H    0.158405
    34  H    0.159962
 Sum of Mulliken charges =  -0.00000

 Dipole moment (field-independent basis, Debye):
    X=             -3.5628    Y=             -2.7976    Z=              2.3450  Tot=              5.1009
 Quadrupole moment (field-independent basis, Debye-Ang):
   XX=           -113.0029   YY=            -89.9133   ZZ=            -91.6547
   XY=             -5.1257   XZ=              6.0536   YZ=              0.9972

 Normal termination of Gaussian 16 at Thu May  6 14:17:53 2021.
