 Gaussian 16, Revision A.03,
 Gaussian 16:  EM64L-G16RevA.03 25-Dec-2016

 -------------
 #p 6-31g* mp2
 -------------

 ------------------------------------------------------
 Input file generated by CHIRIPA (05-May-2021 14:57:24)
 ------------------------------------------------------
 Symbolic Z-matrix:
 Charge =  0 Multiplicity = 1

                         Standard orientation:
 ---------------------------------------------------------------------
 Center     Atomic      Atomic             Coordinates (Angstroms)
 Number     Number       Type             X           Y           Z
 ---------------------------------------------------------------------
      1          6           0       -1.838531   -0.163976    0.653645
      2          6           0       -2.690828   -1.214173    1.010292
      3          6           0       -4.038883   -1.191406    0.640457
      4          6           0       -4.503183   -0.097989   -0.089032
      5          6           0       -3.678973    0.963520   -0.459395
      6          6           0       -2.334450    0.919608   -0.078769
      7          1           0       -0.792702   -0.189875    0.945133
      8          1           0       -2.308447   -2.056977    1.579073
      9          1           0       -4.720722   -1.991047    0.903302
     10          1           0       -4.089188    1.790205   -1.026611
     11          1           0       -1.674853    1.736608   -0.357136
     12          7           0       -5.928439   -0.062694   -0.486272
     13          8           0       -6.312971    0.911975   -1.128761
     14          8           0       -6.634035   -1.010367   -0.147617
     15          6           0        5.880152   -1.629237   -0.850718
     16          6           0        4.734596   -2.027219   -0.153700
     17          6           0        3.834564   -1.075674    0.335228
     18          6           0        4.112453    0.271350    0.108084
     19          6           0        5.245125    0.699333   -0.582694
     20          6           0        6.131317   -0.269629   -1.062617
     21          1           0        6.573943   -2.375185   -1.227032
     22          1           0        4.536980   -3.082407    0.012346
     23          1           0        2.940059   -1.356015    0.878080
     24          1           0        5.415174    1.758592   -0.732601
     25          1           0        7.020169    0.042359   -1.603590
     26          7           0        3.166956    1.287927    0.620924
     27          8           0        3.434526    2.468413    0.407625
     28          8           0        2.176207    0.884985    1.226475
 ---------------------------------------------------------------------

 SCF Done:  E(RHF) =  -868.339885732     A.U. after   16 cycles
 E2 =    -0.2598218966D+01 EUMP2 =    -0.87093810469815D+03

 The electronic state is 1-A.
 Alpha  occ. eigenvalues --  -20.61890 -20.61816 -20.60257 -20.60250 -15.86890
 Alpha  occ. eigenvalues --  -15.85306 -11.32008 -11.30525 -11.28584 -11.28516
 Alpha  occ. eigenvalues --  -11.28218 -11.27509 -11.27473 -11.27123 -11.27061
 Alpha  occ. eigenvalues --  -11.26630 -11.26070 -11.25939  -1.60914  -1.59336
 Alpha  occ. eigenvalues --   -1.40478  -1.38893  -1.20152  -1.18673  -1.09587
 Alpha  occ. eigenvalues --   -1.08061  -1.05520  -1.04063  -0.96466  -0.94924
 Alpha  occ. eigenvalues --   -0.86929  -0.85446  -0.83313  -0.81773  -0.78393
 Alpha  occ. eigenvalues --   -0.76871  -0.73124  -0.72219  -0.71525  -0.71255
 Alpha  occ. eigenvalues --   -0.70659  -0.69678  -0.65809  -0.65516  -0.64308
 Alpha  occ. eigenvalues --   -0.64044  -0.62877  -0.61419  -0.56015  -0.54429
 Alpha  occ. eigenvalues --   -0.53856  -0.53608  -0.52397  -0.52136  -0.49886
 Alpha  occ. eigenvalues --   -0.49836  -0.48290  -0.48269  -0.45934  -0.44333
 Alpha  occ. eigenvalues --   -0.38106  -0.37111  -0.36603  -0.35687
 Alpha virt. eigenvalues --    0.04107   0.05670   0.10547   0.11980   0.15637
 Alpha virt. eigenvalues --    0.17214   0.20566   0.22249   0.26426   0.27177
 Alpha virt. eigenvalues --    0.28048   0.29056   0.30437   0.31264   0.33082

 Mulliken charges:
               1
     1  C   -0.177534
     2  C   -0.220182
     3  C   -0.171753
     4  C    0.157346
     5  C   -0.171972
     6  C   -0.221003
     7  H    0.243195
     8  H    0.219337
     9  H    0.272619
    10  H    0.274000
    11  H    0.229871
    12  N    0.488244
    13  O   -0.461752
    14  O   -0.462863
    15  C   -0.169770
    16  C   -0.218005
    17  C   -0.170271
    18  C    0.158128
    19  C   -0.170320
    20  C   -0.218240
    21  H    0.228489
    22  H    0.225099
    23  H    0.270592
    24  H    0.277098
    25  H    0.226241
    26  N    0.491535
    27  O   -0.454990
    28  O   -0.473141
 Sum of Mulliken charges =  -0.00000

 Dipole moment (field-independent basis, Debye):
    X=              8.9140    Y=             -3.6210    Z=             -0.4727  Tot=              9.6330
 Quadrupole moment (field-independent basis, Debye-Ang):
   XX=           -121.7026   YY=           -100.4615   ZZ=           -105.2082
   XY=            -11.1164   XZ=            -16.0152   YZ=             -4.8000

 Normal termination of Gaussian 16 at Wed May  5 16:23:48 2021.
