 Gaussian 16, Revision A.03,
 Gaussian 16:  EM64L-G16RevA.03 25-Dec-2016

 -------------
 #p 6-31g* mp2
 -------------

 ------------------------------------------------------
 Input file generated by CHIRIPA (05-May-2021 14:53:16)
 ------------------------------------------------------
 Symbolic Z-matrix:
 Charge =  0 Multiplicity = 1

                         Standard orientation:
 ---------------------------------------------------------------------
 Center     Atomic      Atomic             Coordinates (Angstroms)
 Number     Number       Type             X           Y           Z
 ---------------------------------------------------------------------
      1          6           0       -4.338429   -0.179730   -0.491064
      2          6           0       -5.332017    0.823845    0.095114
      3          6           0       -6.381396    1.278373   -0.919776
      4          1           0       -3.839400    0.272360   -1.359125
      5          1           0       -4.888915   -1.053292   -0.866896
      6          1           0       -4.779699    1.694642    0.470980
      7          1           0       -5.828600    0.369383    0.961996
      8          1           0       -6.957829    0.423173   -1.287142
      9          1           0       -5.902969    1.755961   -1.780948
     10          1           0       -7.081382    1.995448   -0.479681
     11          6           0       -3.283148   -0.643518    0.511439
     12          6           0       -2.289560   -1.647094   -0.074738
     13          6           0       -1.240181   -2.101622    0.940152
     14          1           0       -2.732662    0.230043    0.887272
     15          1           0       -3.782177   -1.095608    1.379500
     16          1           0       -1.792977   -1.192631   -0.941621
     17          1           0       -2.841878   -2.517890   -0.450604
     18          1           0       -1.718608   -2.579210    1.801324
     19          1           0       -0.663748   -1.246421    1.307518
     20          1           0       -0.540195   -2.818697    0.500057
     21          6           0        2.441665    2.721850    0.555829
     22          6           0        1.798763    1.682709    1.236550
     23          6           0        2.087639    0.349057    0.932459
     24          6           0        3.028951    0.089533   -0.062464
     25          6           0        3.686275    1.102882   -0.758408
     26          6           0        3.381712    2.429137   -0.437726
     27          1           0        2.211166    3.754991    0.798497
     28          1           0        1.068274    1.907064    2.008622
     29          1           0        1.604737   -0.474801    1.443811
     30          1           0        4.409865    0.847936   -1.523155
     31          1           0        3.882551    3.234115   -0.968023
     32          7           0        3.343074   -1.318430   -0.393174
     33          8           0        4.176252   -1.520649   -1.273833
     34          8           0        2.750159   -2.193112    0.234537
 ---------------------------------------------------------------------

 SCF Done:  E(RHF) =  -669.535505500     A.U. after   15 cycles
 E2 =    -0.2091448776D+01 EUMP2 =    -0.67162695427534D+03

 The electronic state is 1-A.
 Alpha  occ. eigenvalues --  -20.60792 -20.60786 -15.85838 -11.31196 -11.27777
 Alpha  occ. eigenvalues --  -11.27738 -11.27523 -11.26793 -11.26783 -11.21756
 Alpha  occ. eigenvalues --  -11.21571 -11.21509 -11.21453 -11.21207 -11.20971
 Alpha  occ. eigenvalues --   -1.59861  -1.39414  -1.19376  -1.08773  -1.08516
 Alpha  occ. eigenvalues --   -1.04782  -1.03582  -0.96034  -0.95604  -0.87051
 Alpha  occ. eigenvalues --   -0.86174  -0.82440  -0.79653  -0.78339  -0.77481
 Alpha  occ. eigenvalues --   -0.72058  -0.71182  -0.70493  -0.65165  -0.65030
 Alpha  occ. eigenvalues --   -0.64785  -0.62170  -0.60965  -0.59372  -0.57628
 Alpha  occ. eigenvalues --   -0.55440  -0.55200  -0.53110  -0.52916  -0.52655
 Alpha  occ. eigenvalues --   -0.52426  -0.49983  -0.48817  -0.48809  -0.47960
 Alpha  occ. eigenvalues --   -0.46696  -0.45875  -0.45810  -0.44821  -0.43810
 Alpha  occ. eigenvalues --   -0.37360  -0.36376
 Alpha virt. eigenvalues --    0.05016   0.11237   0.16493   0.20769   0.22840
 Alpha virt. eigenvalues --    0.24153   0.25825   0.26820   0.27432   0.27858
 Alpha virt. eigenvalues --    0.29144   0.30704   0.31473   0.31738   0.32139

 Mulliken charges:
               1
     1  C   -0.298286
     2  C   -0.299244
     3  C   -0.475687
     4  H    0.149661
     5  H    0.151040
     6  H    0.149358
     7  H    0.152213
     8  H    0.156224
     9  H    0.154980
    10  H    0.159912
    11  C   -0.297150
    12  C   -0.300241
    13  C   -0.478102
    14  H    0.143656
    15  H    0.149800
    16  H    0.152964
    17  H    0.154188
    18  H    0.154534
    19  H    0.140152
    20  H    0.178905
    21  C   -0.170655
    22  C   -0.220505
    23  C   -0.174126
    24  C    0.157660
    25  C   -0.170769
    26  C   -0.218672
    27  H    0.225627
    28  H    0.223427
    29  H    0.282716
    30  H    0.275605
    31  H    0.223486
    32  N    0.487978
    33  O   -0.460309
    34  O   -0.460340
 Sum of Mulliken charges =  -0.00000

 Dipole moment (field-independent basis, Debye):
    X=             -1.0870    Y=              4.8407    Z=              1.0986  Tot=              5.0815
 Quadrupole moment (field-independent basis, Debye-Ang):
   XX=           -100.1737   YY=            -93.1225   ZZ=            -93.3832
   XY=             17.2431   XZ=              0.4142   YZ=             -1.3574

 Normal termination of Gaussian 16 at Wed May  5 21:57:56 2021.
