 Gaussian 16, Revision A.03,
 Gaussian 16:  EM64L-G16RevA.03 25-Dec-2016

 -------------
 #p 6-31g* mp2
 -------------

 ------------------------------------------------------
 Input file generated by CHIRIPA (05-May-2021 14:53:16)
 ------------------------------------------------------
 Symbolic Z-matrix:
 Charge =  0 Multiplicity = 1

                         Standard orientation:
 ---------------------------------------------------------------------
 Center     Atomic      Atomic             Coordinates (Angstroms)
 Number     Number       Type             X           Y           Z
 ---------------------------------------------------------------------
      1          6           0        2.293628    0.642946    0.095922
      2          6           0        2.944112   -0.129945   -1.051900
      3          6           0        3.775734   -1.318225   -0.567968
      4          1           0        3.076041    0.996107    0.781526
      5          1           0        1.656477   -0.040446    0.674203
      6          1           0        3.578763    0.555016   -1.628668
      7          1           0        2.160074   -0.481143   -1.734953
      8          1           0        3.151363   -2.023791   -0.010349
      9          1           0        4.578113   -0.981745    0.096539
     10          1           0        4.231600   -1.856552   -1.404777
     11          6           0        1.458931    1.833789   -0.371948
     12          6           0        0.808448    2.606679    0.775875
     13          6           0       -0.023174    3.794959    0.291943
     14          1           0        2.096083    2.517180   -0.950228
     15          1           0        0.676518    1.480628   -1.057552
     16          1           0        1.592485    2.957877    1.458928
     17          1           0        0.173796    1.921718    1.352643
     18          1           0       -0.825553    3.458479   -0.372564
     19          1           0        0.601196    4.500526   -0.265676
     20          1           0       -0.479041    4.333287    1.128752
     21          6           0        0.271187   -2.460978    1.165221
     22          6           0       -0.048847   -2.608976   -0.188365
     23          6           0       -1.009706   -1.787021   -0.784760
     24          6           0       -1.633773   -0.823088    0.005597
     25          6           0       -1.336685   -0.651167    1.356697
     26          6           0       -0.372618   -1.484269    1.932080
     27          1           0        1.018852   -3.103823    1.620354
     28          1           0        0.449534   -3.366653   -0.786352
     29          1           0       -1.276676   -1.880008   -1.830465
     30          1           0       -1.850426    0.113077    1.927153
     31          1           0       -0.126088   -1.367068    2.983523
     32          7           0       -2.652690    0.052979   -0.614658
     33          8           0       -3.188200    0.894645    0.103301
     34          8           0       -2.896513   -0.118614   -1.807026
 ---------------------------------------------------------------------

 SCF Done:  E(RHF) =  -669.533675868     A.U. after   15 cycles
 E2 =    -0.2098344601D+01 EUMP2 =    -0.67163202046883D+03

 The electronic state is 1-A.
 Alpha  occ. eigenvalues --  -20.60992 -20.60982 -15.86035 -11.31451 -11.28018
 Alpha  occ. eigenvalues --  -11.27987 -11.27702 -11.27011 -11.26971 -11.21759
 Alpha  occ. eigenvalues --  -11.21527 -11.21435 -11.21266 -11.21201 -11.20624
 Alpha  occ. eigenvalues --   -1.60058  -1.39609  -1.19636  -1.09018  -1.08382
 Alpha  occ. eigenvalues --   -1.05028  -1.03523  -0.95961  -0.95830  -0.86988
 Alpha  occ. eigenvalues --   -0.86403  -0.82653  -0.79605  -0.78210  -0.77695
 Alpha  occ. eigenvalues --   -0.72247  -0.71392  -0.70713  -0.65263  -0.65114
 Alpha  occ. eigenvalues --   -0.65003  -0.62374  -0.60939  -0.59365  -0.57576
 Alpha  occ. eigenvalues --   -0.55514  -0.55308  -0.53339  -0.53088  -0.52654
 Alpha  occ. eigenvalues --   -0.52385  -0.49917  -0.49013  -0.49003  -0.47923
 Alpha  occ. eigenvalues --   -0.46658  -0.45712  -0.45644  -0.44981  -0.43737
 Alpha  occ. eigenvalues --   -0.37464  -0.36521
 Alpha virt. eigenvalues --    0.04750   0.10869   0.16169   0.20478   0.23026
 Alpha virt. eigenvalues --    0.23762   0.26545   0.26850   0.27004   0.28157
 Alpha virt. eigenvalues --    0.28394   0.30719   0.31434   0.31992   0.32084

 Mulliken charges:
               1
     1  C   -0.307946
     2  C   -0.297247
     3  C   -0.476396
     4  H    0.145561
     5  H    0.161035
     6  H    0.152945
     7  H    0.149786
     8  H    0.144688
     9  H    0.156133
    10  H    0.159361
    11  C   -0.297728
    12  C   -0.301754
    13  C   -0.476745
    14  H    0.149640
    15  H    0.149333
    16  H    0.148946
    17  H    0.146957
    18  H    0.165975
    19  H    0.153211
    20  H    0.159659
    21  C   -0.172292
    22  C   -0.213676
    23  C   -0.172584
    24  C    0.161430
    25  C   -0.169471
    26  C   -0.221527
    27  H    0.227835
    28  H    0.226083
    29  H    0.276954
    30  H    0.277175
    31  H    0.225770
    32  N    0.487710
    33  O   -0.459502
    34  O   -0.459322
 Sum of Mulliken charges =  -0.00000

 Dipole moment (field-independent basis, Debye):
    X=              3.3332    Y=             -3.1535    Z=              2.1892  Tot=              5.0840
 Quadrupole moment (field-independent basis, Debye-Ang):
   XX=           -107.3775   YY=            -89.4721   ZZ=            -91.0384
   XY=              2.7366   XZ=             -4.2905   YZ=              0.4684

 Normal termination of Gaussian 16 at Wed May  5 23:34:43 2021.
