 Gaussian 16, Revision A.03,
 Gaussian 16:  EM64L-G16RevA.03 25-Dec-2016

 -------------
 #p 6-31g* mp2
 -------------

 ------------------------------------------------------
 Input file generated by CHIRIPA (05-May-2021 14:57:24)
 ------------------------------------------------------
 Symbolic Z-matrix:
 Charge =  0 Multiplicity = 1

                         Standard orientation:
 ---------------------------------------------------------------------
 Center     Atomic      Atomic             Coordinates (Angstroms)
 Number     Number       Type             X           Y           Z
 ---------------------------------------------------------------------
      1          6           0       -4.402289    1.475468   -1.376056
      2          6           0       -4.060394    0.187138   -1.800125
      3          6           0       -3.296459   -0.650344   -0.981849
      4          6           0       -2.889465   -0.164995    0.259957
      5          6           0       -3.214007    1.113610    0.710659
      6          6           0       -3.978751    1.933784   -0.124224
      7          1           0       -4.996046    2.119321   -2.018162
      8          1           0       -4.387933   -0.171452   -2.771812
      9          1           0       -3.017572   -1.652129   -1.285275
     10          1           0       -2.872893    1.443084    1.684572
     11          1           0       -4.242782    2.933857    0.207722
     12          7           0       -2.080294   -1.042438    1.135020
     13          8           0       -1.734064   -0.591216    2.224589
     14          8           0       -1.807617   -2.164784    0.714756
     15          6           0        3.884612    2.360195    0.269649
     16          6           0        2.772834    1.897630    0.981340
     17          6           0        2.286684    0.603023    0.775916
     18          6           0        2.939512   -0.205823   -0.152993
     19          6           0        4.049349    0.226144   -0.877532
     20          6           0        4.518204    1.524450   -0.655885
     21          1           0        4.255548    3.367313    0.435529
     22          1           0        2.278784    2.544477    1.700748
     23          1           0        1.427876    0.219423    1.313240
     24          1           0        4.520827   -0.441886   -1.588069
     25          1           0        5.381823    1.881011   -1.210023
     26          7           0        2.434003   -1.578323   -0.379055
     27          8           0        3.026888   -2.271311   -1.203003
     28          8           0        1.454469   -1.935110    0.271987
 ---------------------------------------------------------------------

 SCF Done:  E(RHF) =  -868.336699292     A.U. after   16 cycles
 E2 =    -0.2600710443D+01 EUMP2 =    -0.87093740973536D+03

 The electronic state is 1-A.
 Alpha  occ. eigenvalues --  -20.60408 -20.60232 -20.59990 -20.59895 -15.85352
 Alpha  occ. eigenvalues --  -15.84987 -11.30947 -11.30590 -11.27590 -11.27484
 Alpha  occ. eigenvalues --  -11.27325 -11.27236 -11.27109 -11.27025 -11.26637
 Alpha  occ. eigenvalues --  -11.26568 -11.26302 -11.26252  -1.59362  -1.59031
 Alpha  occ. eigenvalues --   -1.38917  -1.38569  -1.19139  -1.18802  -1.08491
 Alpha  occ. eigenvalues --   -1.08165  -1.04574  -1.04231  -0.95289  -0.94945
 Alpha  occ. eigenvalues --   -0.85962  -0.85622  -0.82121  -0.81762  -0.77133
 Alpha  occ. eigenvalues --   -0.76771  -0.71591  -0.71233  -0.70626  -0.70352
 Alpha  occ. eigenvalues --   -0.70245  -0.69904  -0.64787  -0.64579  -0.64440
 Alpha  occ. eigenvalues --   -0.64239  -0.61918  -0.61555  -0.55068  -0.54749
 Alpha  occ. eigenvalues --   -0.52894  -0.52668  -0.52568  -0.52319  -0.48358
 Alpha  occ. eigenvalues --   -0.48313  -0.47987  -0.47934  -0.44335  -0.43829
 Alpha  occ. eigenvalues --   -0.37134  -0.36821  -0.36190  -0.35853
 Alpha virt. eigenvalues --    0.05386   0.05759   0.11459   0.11792   0.16825
 Alpha virt. eigenvalues --    0.17195   0.21551   0.21928   0.27456   0.27772
 Alpha virt. eigenvalues --    0.28435   0.28873   0.31018   0.31471   0.32703

 Mulliken charges:
               1
     1  C   -0.171619
     2  C   -0.218658
     3  C   -0.170191
     4  C    0.158735
     5  C   -0.173492
     6  C   -0.218580
     7  H    0.224344
     8  H    0.223734
     9  H    0.279998
    10  H    0.271673
    11  H    0.221017
    12  N    0.488241
    13  O   -0.471489
    14  O   -0.440915
    15  C   -0.171774
    16  C   -0.219927
    17  C   -0.177007
    18  C    0.157513
    19  C   -0.171746
    20  C   -0.219118
    21  H    0.222697
    22  H    0.222084
    23  H    0.287023
    24  H    0.274059
    25  H    0.220877
    26  N    0.486252
    27  O   -0.466434
    28  O   -0.447299
 Sum of Mulliken charges =  -0.00000

 Dipole moment (field-independent basis, Debye):
    X=             -1.2411    Y=              7.5546    Z=             -2.2764  Tot=              7.9872
 Quadrupole moment (field-independent basis, Debye-Ang):
   XX=            -77.6007   YY=           -105.9327   ZZ=           -103.1251
   XY=              5.2475   XZ=              8.2065   YZ=              3.7324

 Normal termination of Gaussian 16 at Wed May  5 19:29:27 2021.
