 Gaussian 16, Revision A.03,
 Gaussian 16:  EM64L-G16RevA.03 25-Dec-2016

 -------------
 #p 6-31g* mp2
 -------------

 ------------------------------------------------------
 Input file generated by CHIRIPA (05-May-2021 14:51:09)
 ------------------------------------------------------
 Symbolic Z-matrix:
 Charge =  0 Multiplicity = 1

                         Standard orientation:
 ---------------------------------------------------------------------
 Center     Atomic      Atomic             Coordinates (Angstroms)
 Number     Number       Type             X           Y           Z
 ---------------------------------------------------------------------
      1          6           0        3.058864    0.022113   -0.084472
      2          6           0        3.364285    1.454299   -0.524412
      3          6           0        4.405160    1.520013   -1.642471
      4          1           0        3.988701   -0.458268    0.249565
      5          1           0        2.704065   -0.552531   -0.951245
      6          1           0        3.717087    2.026441    0.343228
      7          1           0        2.433580    1.931389   -0.857261
      8          1           0        4.057566    0.973315   -2.525025
      9          1           0        5.348367    1.068907   -1.317715
     10          1           0        4.608404    2.553017   -1.941561
     11          6           0        2.020090   -0.059992    1.032638
     12          6           0        1.714668   -1.492178    1.472579
     13          6           0        0.673793   -1.557892    2.590637
     14          1           0        2.374889    0.514653    1.899412
     15          1           0        1.090253    0.420390    0.698601
     16          1           0        2.645374   -1.969268    1.805427
     17          1           0        1.361866   -2.064320    0.604938
     18          1           0       -0.269413   -1.106786    2.265882
     19          1           0        1.021387   -1.011194    3.473191
     20          1           0        0.470550   -2.590896    2.889727
     21          6           0       -1.973403   -0.452550   -0.675803
     22          6           0       -2.466307   -1.773711   -1.267041
     23          6           0       -1.322159   -2.706321   -1.665738
     24          1           0       -1.326405    0.050505   -1.407427
     25          1           0       -1.347488   -0.662798    0.202504
     26          1           0       -3.092237   -1.560977   -2.143152
     27          1           0       -3.112360   -2.273589   -0.533997
     28          1           0       -0.701306   -2.947664   -0.796891
     29          1           0       -0.681068   -2.231004   -2.415188
     30          1           0       -1.697053   -3.644768   -2.086015
     31          6           0       -3.105550    0.490429   -0.272364
     32          6           0       -2.612646    1.811590    0.318874
     33          6           0       -3.756794    2.744201    0.717572
     34          1           0       -3.731465    0.700677   -1.150670
     35          1           0       -3.752548   -0.012627    0.459261
     36          1           0       -1.966593    2.311468   -0.414169
     37          1           0       -1.986716    1.598856    1.194986
     38          1           0       -4.397885    2.268882    1.467022
     39          1           0       -4.377647    2.985543   -0.151275
     40          1           0       -3.381900    3.682646    1.137849
 ---------------------------------------------------------------------

 SCF Done:  E(RHF) =  -470.732990016     A.U. after   11 cycles
 E2 =    -0.1584536843D+01 EUMP2 =    -0.47231752685938D+03

 The electronic state is 1-A.
 Alpha  occ. eigenvalues --  -11.21661 -11.21659 -11.21590 -11.21574 -11.21462
 Alpha  occ. eigenvalues --  -11.21402 -11.21356 -11.21293 -11.21135 -11.21116
 Alpha  occ. eigenvalues --  -11.21105 -11.21053  -1.08511  -1.08389  -1.03596
 Alpha  occ. eigenvalues --   -1.03517  -0.96038  -0.95975  -0.87057  -0.86989
 Alpha  occ. eigenvalues --   -0.79654  -0.79584  -0.78371  -0.78167  -0.65293
 Alpha  occ. eigenvalues --   -0.64902  -0.61116  -0.60803  -0.59398  -0.59345
 Alpha  occ. eigenvalues --   -0.57673  -0.57566  -0.55379  -0.55226  -0.52727
 Alpha  occ. eigenvalues --   -0.52676  -0.52470  -0.52404  -0.50085  -0.49831
 Alpha  occ. eigenvalues --   -0.48054  -0.47869  -0.46718  -0.46600  -0.46142
 Alpha  occ. eigenvalues --   -0.45784  -0.45674  -0.45280  -0.43840  -0.43766
 Alpha virt. eigenvalues --    0.19722   0.22906   0.23392   0.24175   0.25604
 Alpha virt. eigenvalues --    0.26133   0.26424   0.28347   0.28897   0.29763
 Alpha virt. eigenvalues --    0.30315   0.31439   0.31670   0.31811   0.32252

 Mulliken charges:
               1
     1  C   -0.298270
     2  C   -0.299652
     3  C   -0.475674
     4  H    0.149383
     5  H    0.149931
     6  H    0.151838
     7  H    0.151921
     8  H    0.155031
     9  H    0.155174
    10  H    0.160092
    11  C   -0.302022
    12  C   -0.304542
    13  C   -0.480356
    14  H    0.148980
    15  H    0.154358
    16  H    0.152422
    17  H    0.156292
    18  H    0.157356
    19  H    0.155895
    20  H    0.160268
    21  C   -0.309316
    22  C   -0.298948
    23  C   -0.480124
    24  H    0.149230
    25  H    0.160440
    26  H    0.152255
    27  H    0.152244
    28  H    0.159311
    29  H    0.154763
    30  H    0.160836
    31  C   -0.297770
    32  C   -0.301289
    33  C   -0.475707
    34  H    0.149871
    35  H    0.149784
    36  H    0.151803
    37  H    0.152796
    38  H    0.155437
    39  H    0.155353
    40  H    0.160607
 Sum of Mulliken charges =  -0.00000

 Dipole moment (field-independent basis, Debye):
    X=             -0.0303    Y=             -0.0029    Z=             -0.0029  Tot=              0.0306
 Quadrupole moment (field-independent basis, Debye-Ang):
   XX=            -85.2589   YY=            -85.2385   ZZ=            -84.2187
   XY=              0.4402   XZ=              1.3404   YZ=             -0.4201

 Normal termination of Gaussian 16 at Wed May  5 15:07:29 2021.
