 Gaussian 16, Revision A.03,
 Gaussian 16:  EM64L-G16RevA.03 25-Dec-2016

 -------------
 #p 6-31g* mp2
 -------------

 ------------------------------------------------------
 Input file generated by CHIRIPA (05-May-2021 14:51:08)
 ------------------------------------------------------
 Symbolic Z-matrix:
 Charge =  0 Multiplicity = 1

                         Standard orientation:
 ---------------------------------------------------------------------
 Center     Atomic      Atomic             Coordinates (Angstroms)
 Number     Number       Type             X           Y           Z
 ---------------------------------------------------------------------
      1          6           0       -2.718971    1.508239   -0.249847
      2          6           0       -1.226605    1.782003   -0.060419
      3          6           0       -0.811141    3.165559   -0.561372
      4          1           0       -2.970729    1.605012   -1.314835
      5          1           0       -3.296118    2.279292    0.279088
      6          1           0       -0.652446    1.009869   -0.588404
      7          1           0       -0.978333    1.684378    1.004215
      8          1           0       -1.358291    3.949025   -0.027135
      9          1           0       -1.030552    3.270684   -1.628803
     10          1           0        0.259508    3.340255   -0.416279
     11          6           0       -3.149625    0.129021    0.246159
     12          6           0       -4.641991   -0.144744    0.056731
     13          6           0       -5.057455   -1.528300    0.557684
     14          1           0       -2.572478   -0.642033   -0.282776
     15          1           0       -2.897867    0.032247    1.311147
     16          1           0       -4.890263   -0.047119   -1.007903
     17          1           0       -5.216150    0.627390    0.584716
     18          1           0       -4.838044   -1.633425    1.625115
     19          1           0       -4.510305   -2.311766    0.023447
     20          1           0       -6.128105   -1.702996    0.412591
     21          6           0        2.694579   -1.476469   -0.303465
     22          6           0        1.238683   -1.804462    0.029361
     23          6           0        0.773738   -3.123495   -0.588516
     24          1           0        2.813984   -1.434048   -1.394743
     25          1           0        3.337438   -2.294622    0.049739
     26          1           0        0.598899   -0.985291   -0.323131
     27          1           0        1.122689   -1.845919    1.119977
     28          1           0        1.387562   -3.955281   -0.228026
     29          1           0        0.860796   -3.089763   -1.679334
     30          1           0       -0.269757   -3.338417   -0.337943
     31          6           0        3.174017   -0.160789    0.307152
     32          6           0        4.629913    0.167203   -0.025673
     33          6           0        5.094858    1.486236    0.592205
     34          1           0        2.531158    0.657363   -0.046051
     35          1           0        3.054613   -0.203212    1.398431
     36          1           0        4.745908    0.208660   -1.116289
     37          1           0        5.269697   -0.651968    0.326820
     38          1           0        5.007800    1.452504    1.683022
     39          1           0        4.481034    2.318022    0.231714
     40          1           0        6.138353    1.701158    0.341632
 ---------------------------------------------------------------------

 SCF Done:  E(RHF) =  -470.733298507     A.U. after   11 cycles
 E2 =    -0.1583282595D+01 EUMP2 =    -0.47231658110226D+03

 The electronic state is 1-A.
 Alpha  occ. eigenvalues --  -11.21616 -11.21611 -11.21594 -11.21546 -11.21421
 Alpha  occ. eigenvalues --  -11.21389 -11.21361 -11.21330 -11.21109 -11.21080
 Alpha  occ. eigenvalues --  -11.21069 -11.21066  -1.08458  -1.08406  -1.03556
 Alpha  occ. eigenvalues --   -1.03511  -0.95999  -0.95967  -0.87020  -0.86979
 Alpha  occ. eigenvalues --   -0.79675  -0.79530  -0.78351  -0.78130  -0.65165
 Alpha  occ. eigenvalues --   -0.64975  -0.61022  -0.60851  -0.59387  -0.59316
 Alpha  occ. eigenvalues --   -0.57632  -0.57554  -0.55288  -0.55255  -0.52704
 Alpha  occ. eigenvalues --   -0.52655  -0.52450  -0.52368  -0.49977  -0.49889
 Alpha  occ. eigenvalues --   -0.48109  -0.47791  -0.46852  -0.46503  -0.46036
 Alpha  occ. eigenvalues --   -0.45773  -0.45719  -0.45242  -0.43803  -0.43767
 Alpha virt. eigenvalues --    0.20780   0.22759   0.23705   0.24007   0.25687
 Alpha virt. eigenvalues --    0.26742   0.26859   0.27385   0.27960   0.29276
 Alpha virt. eigenvalues --    0.30488   0.31547   0.31690   0.31849   0.32383

 Mulliken charges:
               1
     1  C   -0.298044
     2  C   -0.306292
     3  C   -0.475693
     4  H    0.149354
     5  H    0.149698
     6  H    0.157972
     7  H    0.152867
     8  H    0.155572
     9  H    0.154975
    10  H    0.160044
    11  C   -0.299549
    12  C   -0.299673
    13  C   -0.475678
    14  H    0.150589
    15  H    0.149945
    16  H    0.151934
    17  H    0.152039
    18  H    0.155219
    19  H    0.155074
    20  H    0.160330
    21  C   -0.297793
    22  C   -0.307857
    23  C   -0.475784
    24  H    0.149087
    25  H    0.149471
    26  H    0.160244
    27  H    0.152061
    28  H    0.155302
    29  H    0.154540
    30  H    0.160258
    31  C   -0.299497
    32  C   -0.299649
    33  C   -0.475593
    34  H    0.150616
    35  H    0.149679
    36  H    0.151877
    37  H    0.151989
    38  H    0.155177
    39  H    0.154922
    40  H    0.160268
 Sum of Mulliken charges =  -0.00000

 Dipole moment (field-independent basis, Debye):
    X=             -0.0180    Y=              0.0120    Z=              0.0147  Tot=              0.0262
 Quadrupole moment (field-independent basis, Debye-Ang):
   XX=            -85.1321   YY=            -86.2484   ZZ=            -83.4376
   XY=             -1.1270   XZ=              0.0433   YZ=             -0.1098

 Normal termination of Gaussian 16 at Thu May  6 16:32:49 2021.
