 Gaussian 16, Revision A.03,
 Gaussian 16:  EM64L-G16RevA.03 25-Dec-2016

 -------------
 #p 6-31g* mp2
 -------------

 ------------------------------------------------------
 Input file generated by CHIRIPA (05-May-2021 14:53:14)
 ------------------------------------------------------
 Symbolic Z-matrix:
 Charge =  0 Multiplicity = 1

                         Standard orientation:
 ---------------------------------------------------------------------
 Center     Atomic      Atomic             Coordinates (Angstroms)
 Number     Number       Type             X           Y           Z
 ---------------------------------------------------------------------
      1          6           0        2.670047    1.220687    0.325211
      2          6           0        2.126010    2.109057   -0.794078
      3          6           0        1.267155    3.260500   -0.270301
      4          1           0        1.829278    0.817941    0.906457
      5          1           0        3.262108    1.835732    1.017005
      6          1           0        1.536298    1.492265   -1.484312
      7          1           0        2.968165    2.509582   -1.372845
      8          1           0        1.848429    3.899779    0.402041
      9          1           0        0.408427    2.876682    0.289940
     10          1           0        0.888599    3.882820   -1.087170
     11          6           0        3.530584    0.065130   -0.182620
     12          6           0        4.074621   -0.823239    0.936669
     13          6           0        4.933476   -1.974682    0.412893
     14          1           0        2.938524   -0.549914   -0.874414
     15          1           0        4.371354    0.467877   -0.763866
     16          1           0        3.232467   -1.223764    1.515436
     17          1           0        4.664333   -0.206448    1.626904
     18          1           0        5.792205   -1.590864   -0.147349
     19          1           0        4.352203   -2.613961   -0.259450
     20          1           0        5.312032   -2.597002    1.229761
     21          6           0       -4.140812    1.229790    0.586159
     22          6           0       -2.839808    1.623402    0.256039
     23          6           0       -1.879340    0.672353   -0.101112
     24          6           0       -2.255965   -0.669722   -0.117752
     25          6           0       -3.544020   -1.093276    0.205989
     26          6           0       -4.488153   -0.124904    0.560126
     27          1           0       -4.880583    1.975317    0.862433
     28          1           0       -2.567232    2.674768    0.275397
     29          1           0       -0.864938    0.949376   -0.361239
     30          1           0       -3.785953   -2.148777    0.177631
     31          1           0       -5.497774   -0.433491    0.816024
     32          7           0       -1.247806   -1.685724   -0.494257
     33          8           0       -1.604758   -2.861808   -0.501268
     34          8           0       -0.119751   -1.286745   -0.775222
 ---------------------------------------------------------------------

 SCF Done:  E(RHF) =  -669.535957601     A.U. after   15 cycles
 E2 =    -0.2093089633D+01 EUMP2 =    -0.67162904723347D+03

 The electronic state is 1-A.
 Alpha  occ. eigenvalues --  -20.60958 -20.60950 -15.85991 -11.31257 -11.27825
 Alpha  occ. eigenvalues --  -11.27777 -11.27552 -11.26826 -11.26798 -11.21523
 Alpha  occ. eigenvalues --  -11.21457 -11.20935 -11.20808 -11.20513 -11.20274
 Alpha  occ. eigenvalues --   -1.60016  -1.39574  -1.19426  -1.08840  -1.07919
 Alpha  occ. eigenvalues --   -1.04818  -1.03157  -0.95692  -0.95620  -0.86647
 Alpha  occ. eigenvalues --   -0.86219  -0.82526  -0.79240  -0.77636  -0.77592
 Alpha  occ. eigenvalues --   -0.72224  -0.71329  -0.70554  -0.65090  -0.64920
 Alpha  occ. eigenvalues --   -0.64463  -0.62228  -0.60463  -0.59057  -0.57195
 Alpha  occ. eigenvalues --   -0.55359  -0.54877  -0.53150  -0.52889  -0.52373
 Alpha  occ. eigenvalues --   -0.52040  -0.49615  -0.48959  -0.48929  -0.47541
 Alpha  occ. eigenvalues --   -0.46263  -0.45240  -0.45042  -0.44925  -0.43333
 Alpha  occ. eigenvalues --   -0.37406  -0.36411
 Alpha virt. eigenvalues --    0.04908   0.11213   0.16407   0.19653   0.23193
 Alpha virt. eigenvalues --    0.24403   0.26255   0.26895   0.28121   0.28299
 Alpha virt. eigenvalues --    0.29639   0.30687   0.31568   0.31944   0.32717

 Mulliken charges:
               1
     1  C   -0.295798
     2  C   -0.308270
     3  C   -0.479896
     4  H    0.150921
     5  H    0.145345
     6  H    0.160702
     7  H    0.154541
     8  H    0.159631
     9  H    0.141511
    10  H    0.159350
    11  C   -0.303428
    12  C   -0.299074
    13  C   -0.476690
    14  H    0.170805
    15  H    0.144303
    16  H    0.155832
    17  H    0.146357
    18  H    0.151768
    19  H    0.161975
    20  H    0.157531
    21  C   -0.170119
    22  C   -0.223170
    23  C   -0.179716
    24  C    0.157144
    25  C   -0.169768
    26  C   -0.219104
    27  H    0.226042
    28  H    0.225927
    29  H    0.290215
    30  H    0.275600
    31  H    0.223737
    32  N    0.490906
    33  O   -0.458771
    34  O   -0.466338
 Sum of Mulliken charges =  -0.00000

 Dipole moment (field-independent basis, Debye):
    X=             -3.6044    Y=              3.3925    Z=              1.2294  Tot=              5.1002
 Quadrupole moment (field-independent basis, Debye-Ang):
   XX=            -76.6907   YY=            -97.9192   ZZ=            -95.9603
   XY=             -2.1140   XZ=             -3.3307   YZ=             -1.9543

 Normal termination of Gaussian 16 at Thu May  6 13:47:55 2021.
