 Gaussian 16, Revision A.03,
 Gaussian 16:  EM64L-G16RevA.03 25-Dec-2016

 -------------
 #p 6-31g* mp2
 -------------

 ------------------------------------------------------
 Input file generated by CHIRIPA (05-May-2021 14:51:11)
 ------------------------------------------------------
 Symbolic Z-matrix:
 Charge =  0 Multiplicity = 1

                         Standard orientation:
 ---------------------------------------------------------------------
 Center     Atomic      Atomic             Coordinates (Angstroms)
 Number     Number       Type             X           Y           Z
 ---------------------------------------------------------------------
      1          6           0        3.900592    0.382394   -0.285491
      2          6           0        4.513943   -0.702617    0.600249
      3          6           0        5.780609   -1.311355   -0.002072
      4          1           0        3.670957   -0.044460   -1.271396
      5          1           0        4.644775    1.173307   -0.452955
      6          1           0        3.768366   -1.490577    0.767130
      7          1           0        4.741968   -0.273179    1.584222
      8          1           0        6.544031   -0.541253   -0.152839
      9          1           0        5.564896   -1.765569   -0.974574
     10          1           0        6.202441   -2.084669    0.647468
     11          6           0        2.633657    1.000504    0.303188
     12          6           0        2.020305    2.085516   -0.582551
     13          6           0        0.753640    2.694254    0.019770
     14          1           0        1.889474    0.209592    0.470653
     15          1           0        2.863292    1.427359    1.289093
     16          1           0        1.792280    1.656077   -1.566525
     17          1           0        2.765883    2.873476   -0.749433
     18          1           0        0.969352    3.148467    0.992271
     19          1           0       -0.009782    1.924152    0.170537
     20          1           0        0.331808    3.467568   -0.629771
     21          6           0       -2.816278   -1.227554   -0.313416
     22          6           0       -1.404819   -1.238499    0.274503
     23          6           0       -0.514782   -2.316455   -0.344883
     24          1           0       -3.275970   -2.214312   -0.165307
     25          1           0       -2.752445   -1.072283   -1.399331
     26          1           0       -1.471366   -1.392320    1.359182
     27          1           0       -0.948504   -0.251541    0.125148
     28          1           0       -0.418697   -2.163127   -1.424633
     29          1           0       -0.944531   -3.310388   -0.183587
     30          1           0        0.489569   -2.306460    0.089903
     31          6           0       -3.717971   -0.155345    0.295719
     32          6           0       -5.129429   -0.144400   -0.292201
     33          6           0       -6.019466    0.933557    0.327186
     34          1           0       -3.781804   -0.310615    1.381634
     35          1           0       -3.258279    0.831414    0.147610
     36          1           0       -5.585744   -1.131357   -0.142845
     37          1           0       -5.062882    0.009422   -1.376879
     38          1           0       -5.589718    1.927489    0.165891
     39          1           0       -6.115551    0.780228    1.406935
     40          1           0       -7.023818    0.923561   -0.107600
 ---------------------------------------------------------------------

 SCF Done:  E(RHF) =  -470.733265089     A.U. after   11 cycles
 E2 =    -0.1583472189D+01 EUMP2 =    -0.47231673727817D+03

 The electronic state is 1-A.
 Alpha  occ. eigenvalues --  -11.21659 -11.21614 -11.21613 -11.21606 -11.21438
 Alpha  occ. eigenvalues --  -11.21396 -11.21374 -11.21337 -11.21158 -11.21083
 Alpha  occ. eigenvalues --  -11.21071 -11.21067  -1.08475  -1.08424  -1.03583
 Alpha  occ. eigenvalues --   -1.03525  -0.96020  -0.95983  -0.87044  -0.86992
 Alpha  occ. eigenvalues --   -0.79675  -0.79565  -0.78317  -0.78204  -0.65203
 Alpha  occ. eigenvalues --   -0.64978  -0.61114  -0.60804  -0.59410  -0.59326
 Alpha  occ. eigenvalues --   -0.57637  -0.57590  -0.55302  -0.55287  -0.52723
 Alpha  occ. eigenvalues --   -0.52676  -0.52485  -0.52374  -0.50038  -0.49873
 Alpha  occ. eigenvalues --   -0.48060  -0.47837  -0.46843  -0.46504  -0.45928
 Alpha  occ. eigenvalues --   -0.45774  -0.45752  -0.45439  -0.43823  -0.43786
 Alpha virt. eigenvalues --    0.19900   0.22576   0.23639   0.24412   0.25675
 Alpha virt. eigenvalues --    0.26099   0.26974   0.27165   0.28885   0.29098
 Alpha virt. eigenvalues --    0.30457   0.31517   0.31685   0.31834   0.32570

 Mulliken charges:
               1
     1  C   -0.298030
     2  C   -0.300066
     3  C   -0.475718
     4  H    0.149878
     5  H    0.149516
     6  H    0.151733
     7  H    0.152021
     8  H    0.155200
     9  H    0.155371
    10  H    0.160271
    11  C   -0.303501
    12  C   -0.298991
    13  C   -0.483034
    14  H    0.154748
    15  H    0.149644
    16  H    0.151596
    17  H    0.152135
    18  H    0.155751
    19  H    0.160997
    20  H    0.160104
    21  C   -0.297621
    22  C   -0.309997
    23  C   -0.477176
    24  H    0.149915
    25  H    0.149466
    26  H    0.152555
    27  H    0.160936
    28  H    0.155160
    29  H    0.155898
    30  H    0.160912
    31  C   -0.299154
    32  C   -0.299677
    33  C   -0.475779
    34  H    0.149726
    35  H    0.150288
    36  H    0.151983
    37  H    0.151970
    38  H    0.155483
    39  H    0.155231
    40  H    0.160256
 Sum of Mulliken charges =  -0.00000

 Dipole moment (field-independent basis, Debye):
    X=             -0.0159    Y=             -0.0062    Z=              0.0060  Tot=              0.0181
 Quadrupole moment (field-independent basis, Debye-Ang):
   XX=            -85.7679   YY=            -84.6752   ZZ=            -84.2519
   XY=              1.6739   XZ=              0.5939   YZ=             -0.5495

 Normal termination of Gaussian 16 at Thu May  6 03:52:47 2021.
