 Gaussian 16, Revision A.03,
 Gaussian 16:  EM64L-G16RevA.03 25-Dec-2016

 -------------
 #p 6-31g* mp2
 -------------

 ------------------------------------------------------
 Input file generated by CHIRIPA (05-May-2021 14:51:10)
 ------------------------------------------------------
 Symbolic Z-matrix:
 Charge =  0 Multiplicity = 1

                         Standard orientation:
 ---------------------------------------------------------------------
 Center     Atomic      Atomic             Coordinates (Angstroms)
 Number     Number       Type             X           Y           Z
 ---------------------------------------------------------------------
      1          6           0       -3.704534    0.961849   -0.136389
      2          6           0       -2.367884    1.501903   -0.645989
      3          6           0       -2.174350    2.987035   -0.338220
      4          1           0       -4.522379    1.540744   -0.586895
      5          1           0       -3.767769    1.123687    0.948602
      6          1           0       -2.306602    1.337844   -1.729477
      7          1           0       -1.553133    0.921530   -0.194366
      8          1           0       -2.209058    3.164401    0.741566
      9          1           0       -2.966808    3.583081   -0.802268
     10          1           0       -1.212449    3.352315   -0.711282
     11          6           0       -3.912646   -0.521505   -0.436521
     12          6           0       -5.249297   -1.061559    0.073080
     13          6           0       -5.442830   -2.546691   -0.234689
     14          1           0       -3.849411   -0.683343   -1.521511
     15          1           0       -3.094801   -1.100400    0.013985
     16          1           0       -6.064048   -0.481186   -0.378544
     17          1           0       -5.310578   -0.897500    1.156567
     18          1           0       -4.650372   -3.142737    0.229358
     19          1           0       -5.408123   -2.724057   -1.314475
     20          1           0       -6.404732   -2.911972    0.138373
     21          6           0        4.364467   -0.680276    0.035979
     22          6           0        5.533625    0.072073   -0.600439
     23          6           0        6.637722   -0.862024   -1.096653
     24          1           0        4.738384   -1.285525    0.873119
     25          1           0        3.948021   -1.384602   -0.697433
     26          1           0        5.946861    0.775758    0.133507
     27          1           0        5.156850    0.675750   -1.436041
     28          1           0        6.246682   -1.555666   -1.848018
     29          1           0        7.041182   -1.455089   -0.269552
     30          1           0        7.463569   -0.303289   -1.547934
     31          6           0        3.252714    0.239931    0.536931
     32          6           0        2.083556   -0.512416    1.173349
     33          6           0        0.979458    0.421680    1.669563
     34          1           0        3.669160    0.944257    1.270342
     35          1           0        2.878796    0.845181   -0.300208
     36          1           0        2.460330   -1.116094    2.008951
     37          1           0        1.670319   -1.216102    0.439402
     38          1           0        0.575999    1.014745    0.842462
     39          1           0        1.370497    1.115322    2.420928
     40          1           0        0.153613   -0.137055    2.120843
 ---------------------------------------------------------------------

 SCF Done:  E(RHF) =  -470.733190676     A.U. after   11 cycles
 E2 =    -0.1582602633D+01 EUMP2 =    -0.47231579330888D+03

 The electronic state is 1-A.
 Alpha  occ. eigenvalues --  -11.21636 -11.21613 -11.21586 -11.21522 -11.21425
 Alpha  occ. eigenvalues --  -11.21376 -11.21365 -11.21315 -11.21105 -11.21079
 Alpha  occ. eigenvalues --  -11.21062 -11.21042  -1.08454  -1.08398  -1.03567
 Alpha  occ. eigenvalues --   -1.03491  -0.96018  -0.95945  -0.87030  -0.86966
 Alpha  occ. eigenvalues --   -0.79658  -0.79531  -0.78272  -0.78205  -0.65132
 Alpha  occ. eigenvalues --   -0.64993  -0.61103  -0.60776  -0.59374  -0.59326
 Alpha  occ. eigenvalues --   -0.57648  -0.57540  -0.55380  -0.55157  -0.52709
 Alpha  occ. eigenvalues --   -0.52647  -0.52426  -0.52378  -0.50038  -0.49833
 Alpha  occ. eigenvalues --   -0.47977  -0.47845  -0.46798  -0.46448  -0.45844
 Alpha  occ. eigenvalues --   -0.45754  -0.45722  -0.45562  -0.43808  -0.43754
 Alpha virt. eigenvalues --    0.21485   0.23082   0.23632   0.24750   0.26391
 Alpha virt. eigenvalues --    0.26707   0.27137   0.27350   0.27894   0.29059
 Alpha virt. eigenvalues --    0.30931   0.31427   0.31683   0.31847   0.32048

 Mulliken charges:
               1
     1  C   -0.297653
     2  C   -0.307128
     3  C   -0.475618
     4  H    0.149370
     5  H    0.149610
     6  H    0.151062
     7  H    0.159549
     8  H    0.155959
     9  H    0.155095
    10  H    0.159420
    11  C   -0.298392
    12  C   -0.299632
    13  C   -0.475687
    14  H    0.149329
    15  H    0.149594
    16  H    0.151937
    17  H    0.151920
    18  H    0.155097
    19  H    0.155111
    20  H    0.160214
    21  C   -0.298360
    22  C   -0.299690
    23  C   -0.475726
    24  H    0.149674
    25  H    0.149648
    26  H    0.151954
    27  H    0.151998
    28  H    0.155228
    29  H    0.155187
    30  H    0.160303
    31  C   -0.298519
    32  C   -0.299831
    33  C   -0.481306
    34  H    0.149630
    35  H    0.149912
    36  H    0.152109
    37  H    0.152131
    38  H    0.161496
    39  H    0.155689
    40  H    0.159314
 Sum of Mulliken charges =  -0.00000

 Dipole moment (field-independent basis, Debye):
    X=              0.0269    Y=              0.0020    Z=              0.0122  Tot=              0.0296
 Quadrupole moment (field-independent basis, Debye-Ang):
   XX=            -85.2935   YY=            -86.2029   ZZ=            -83.3488
   XY=              0.1019   XZ=              1.1082   YZ=             -0.5134

 Normal termination of Gaussian 16 at Wed May  5 16:41:45 2021.
