 Gaussian 16, Revision A.03,
 Gaussian 16:  EM64L-G16RevA.03 25-Dec-2016

 -------------
 #p 6-31g* mp2
 -------------

 ------------------------------------------------------
 Input file generated by CHIRIPA (05-May-2021 14:55:23)
 ------------------------------------------------------
 Symbolic Z-matrix:
 Charge =  0 Multiplicity = 1

                         Standard orientation:
 ---------------------------------------------------------------------
 Center     Atomic      Atomic             Coordinates (Angstroms)
 Number     Number       Type             X           Y           Z
 ---------------------------------------------------------------------
      1          6           0        1.628590    0.774004    0.303626
      2          6           0        2.625152    1.743972    0.153464
      3          6           0        3.956597    1.368596   -0.048761
      4          6           0        4.257359    0.008217   -0.095665
      5          6           0        3.286963   -0.981861    0.050510
      6          6           0        1.962088   -0.583423    0.251762
      7          1           0        0.596843    1.074563    0.460342
      8          1           0        2.369067    2.798902    0.193302
      9          1           0        4.747958    2.098622   -0.168042
     10          1           0        3.572950   -2.025730    0.006149
     11          1           0        1.190226   -1.338902    0.368062
     12          7           0        5.663422   -0.401384   -0.309237
     13          8           0        5.902467   -1.606413   -0.346635
     14          8           0        6.499826    0.490356   -0.435192
     15          6           0       -4.409196   -0.034706   -0.085755
     16          6           0       -3.500713   -0.298019    1.115624
     17          6           0       -2.016045   -0.169798    0.773406
     18          1           0       -4.154946   -0.737791   -0.890723
     19          1           0       -4.207440    0.972716   -0.475356
     20          1           0       -3.705100   -1.304121    1.503695
     21          1           0       -3.757285    0.405649    1.917896
     22          1           0       -1.790759    0.836895    0.406778
     23          1           0       -1.738276   -0.882590   -0.009777
     24          1           0       -1.384736   -0.362049    1.646531
     25          6           0       -5.896398   -0.159147    0.240549
     26          6           0       -6.804880    0.104164   -0.960830
     27          6           0       -8.289548   -0.024055   -0.618611
     28          1           0       -6.098153   -1.166571    0.630149
     29          1           0       -6.150648    0.543937    1.045516
     30          1           0       -6.548309   -0.599502   -1.763102
     31          1           0       -6.600494    1.110267   -1.348902
     32          1           0       -8.567317    0.688737    0.164570
     33          1           0       -8.514834   -1.030748   -0.251985
     34          1           0       -8.920857    0.168195   -1.491737
 ---------------------------------------------------------------------

 SCF Done:  E(RHF) =  -669.535347146     A.U. after   15 cycles
 E2 =    -0.2091380013D+01 EUMP2 =    -0.67162672715954D+03

 The electronic state is 1-A.
 Alpha  occ. eigenvalues --  -20.60666 -20.60661 -15.85719 -11.31050 -11.27626
 Alpha  occ. eigenvalues --  -11.27618 -11.27260 -11.26613 -11.26585 -11.22691
 Alpha  occ. eigenvalues --  -11.22602 -11.22239 -11.22157 -11.22040 -11.21528
 Alpha  occ. eigenvalues --   -1.59743  -1.39298  -1.19216  -1.09251  -1.08607
 Alpha  occ. eigenvalues --   -1.04621  -1.04408  -0.96905  -0.95447  -0.87941
 Alpha  occ. eigenvalues --   -0.86008  -0.82293  -0.80501  -0.79001  -0.77349
 Alpha  occ. eigenvalues --   -0.71937  -0.71067  -0.70315  -0.65875  -0.64863
 Alpha  occ. eigenvalues --   -0.64627  -0.61989  -0.61798  -0.60291  -0.58465
 Alpha  occ. eigenvalues --   -0.56270  -0.55116  -0.53549  -0.53292  -0.52939
 Alpha  occ. eigenvalues --   -0.52700  -0.50818  -0.48791  -0.48695  -0.48689
 Alpha  occ. eigenvalues --   -0.47484  -0.46557  -0.46441  -0.44711  -0.44633
 Alpha  occ. eigenvalues --   -0.37178  -0.36233
 Alpha virt. eigenvalues --    0.05187   0.11402   0.16683   0.20203   0.22249
 Alpha virt. eigenvalues --    0.23738   0.25456   0.25783   0.26786   0.27358
 Alpha virt. eigenvalues --    0.29213   0.29667   0.30515   0.31456   0.32039

 Mulliken charges:
               1
     1  C   -0.175824
     2  C   -0.220311
     3  C   -0.170810
     4  C    0.158001
     5  C   -0.170986
     6  C   -0.223936
     7  H    0.237178
     8  H    0.222857
     9  H    0.274942
    10  H    0.274951
    11  H    0.225090
    12  N    0.488047
    13  O   -0.460919
    14  O   -0.460878
    15  C   -0.299481
    16  C   -0.299490
    17  C   -0.486108
    18  H    0.151096
    19  H    0.149909
    20  H    0.155912
    21  H    0.155309
    22  H    0.151686
    23  H    0.157648
    24  H    0.160914
    25  C   -0.299088
    26  C   -0.300208
    27  C   -0.476151
    28  H    0.150985
    29  H    0.150730
    30  H    0.152844
    31  H    0.152368
    32  H    0.155789
    33  H    0.156028
    34  H    0.161909
 Sum of Mulliken charges =  -0.00000

 Dipole moment (field-independent basis, Debye):
    X=             -5.3149    Y=              1.4171    Z=              0.7661  Tot=              5.5536
 Quadrupole moment (field-independent basis, Debye-Ang):
   XX=           -137.5368   YY=            -89.1689   ZZ=            -95.7149
   XY=              7.6391   XZ=              3.6753   YZ=             -0.1171

 Normal termination of Gaussian 16 at Thu May  6 06:18:00 2021.
