 Gaussian 16, Revision A.03,
 Gaussian 16:  EM64L-G16RevA.03 25-Dec-2016

 -------------
 #p 6-31g* mp2
 -------------

 ------------------------------------------------------
 Input file generated by CHIRIPA (05-May-2021 14:51:13)
 ------------------------------------------------------
 Symbolic Z-matrix:
 Charge =  0 Multiplicity = 1

                         Standard orientation:
 ---------------------------------------------------------------------
 Center     Atomic      Atomic             Coordinates (Angstroms)
 Number     Number       Type             X           Y           Z
 ---------------------------------------------------------------------
      1          6           0        4.124005   -0.627825   -0.230192
      2          6           0        4.700543    0.581092   -0.967829
      3          6           0        5.943350    0.235288   -1.788588
      4          1           0        4.895176   -1.048975    0.429257
      5          1           0        3.876080   -1.410304   -0.960709
      6          1           0        4.946020    1.361589   -0.236269
      7          1           0        3.927850    0.999528   -1.625456
      8          1           0        5.709325   -0.525849   -2.539922
      9          1           0        6.733280   -0.161731   -1.142842
     10          1           0        6.338997    1.113916   -2.307563
     11          6           0        2.881228   -0.298045    0.594720
     12          6           0        2.304691   -1.506962    1.332357
     13          6           0        1.061883   -1.161158    2.153115
     14          1           0        3.129153    0.484434    1.325237
     15          1           0        2.110058    0.123105   -0.064730
     16          1           0        3.077383   -1.925398    1.989984
     17          1           0        2.059213   -2.287459    0.600797
     18          1           0        0.271953   -0.764139    1.507369
     19          1           0        1.295909   -0.400021    2.904450
     20          1           0        0.666236   -2.039786    2.672091
     21          6           0       -3.125385    1.116943   -0.298026
     22          6           0       -2.244487    1.526058    0.882919
     23          6           0       -1.496248    2.836432    0.636239
     24          1           0       -2.501118    1.020763   -1.196905
     25          1           0       -3.847344    1.919467   -0.503273
     26          1           0       -1.525312    0.722407    1.086758
     27          1           0       -2.870893    1.621090    1.779132
     28          1           0       -2.201105    3.654222    0.454582
     29          1           0       -0.847879    2.750433   -0.241726
     30          1           0       -0.872629    3.110071    1.493023
     31          6           0       -3.879848   -0.191074   -0.066502
     32          6           0       -4.760746   -0.600187   -1.247446
     33          6           0       -5.508985   -1.910562   -1.000766
     34          1           0       -3.157890   -0.993598    0.138745
     35          1           0       -4.504115   -0.094892    0.832378
     36          1           0       -4.134340   -0.695219   -2.143661
     37          1           0       -5.479921    0.203463   -1.451286
     38          1           0       -6.157354   -1.824563   -0.122801
     39          1           0       -4.804128   -2.728351   -0.819110
     40          1           0       -6.132604   -2.184200   -1.857552
 ---------------------------------------------------------------------

 SCF Done:  E(RHF) =  -470.733319774     A.U. after   11 cycles
 E2 =    -0.1582622855D+01 EUMP2 =    -0.47231594262957D+03

 The electronic state is 1-A.
 Alpha  occ. eigenvalues --  -11.21634 -11.21616 -11.21601 -11.21558 -11.21429
 Alpha  occ. eigenvalues --  -11.21398 -11.21369 -11.21339 -11.21101 -11.21083
 Alpha  occ. eigenvalues --  -11.21069 -11.21046  -1.08456  -1.08420  -1.03561
 Alpha  occ. eigenvalues --   -1.03510  -0.96008  -0.95963  -0.87030  -0.86975
 Alpha  occ. eigenvalues --   -0.79658  -0.79542  -0.78282  -0.78217  -0.65130
 Alpha  occ. eigenvalues --   -0.65020  -0.61049  -0.60838  -0.59381  -0.59324
 Alpha  occ. eigenvalues --   -0.57649  -0.57541  -0.55323  -0.55234  -0.52698
 Alpha  occ. eigenvalues --   -0.52660  -0.52453  -0.52377  -0.50040  -0.49845
 Alpha  occ. eigenvalues --   -0.48057  -0.47806  -0.46782  -0.46485  -0.45888
 Alpha  occ. eigenvalues --   -0.45756  -0.45742  -0.45526  -0.43809  -0.43771
 Alpha virt. eigenvalues --    0.21180   0.23124   0.23738   0.24830   0.25643
 Alpha virt. eigenvalues --    0.26772   0.27042   0.27535   0.28134   0.28887
 Alpha virt. eigenvalues --    0.30589   0.31600   0.31659   0.31931   0.32019

 Mulliken charges:
               1
     1  C   -0.298340
     2  C   -0.299637
     3  C   -0.475727
     4  H    0.149772
     5  H    0.149429
     6  H    0.152102
     7  H    0.151872
     8  H    0.155143
     9  H    0.155217
    10  H    0.160348
    11  C   -0.298159
    12  C   -0.299383
    13  C   -0.482399
    14  H    0.149836
    15  H    0.149164
    16  H    0.152188
    17  H    0.151666
    18  H    0.161028
    19  H    0.155649
    20  H    0.160652
    21  C   -0.297663
    22  C   -0.308621
    23  C   -0.475020
    24  H    0.148879
    25  H    0.149582
    26  H    0.160170
    27  H    0.152208
    28  H    0.155042
    29  H    0.154567
    30  H    0.160652
    31  C   -0.298397
    32  C   -0.299613
    33  C   -0.475702
    34  H    0.149219
    35  H    0.149910
    36  H    0.151728
    37  H    0.151995
    38  H    0.155254
    39  H    0.155186
    40  H    0.160204
 Sum of Mulliken charges =  -0.00000

 Dipole moment (field-independent basis, Debye):
    X=              0.0133    Y=             -0.0014    Z=              0.0198  Tot=              0.0239
 Quadrupole moment (field-independent basis, Debye-Ang):
   XX=            -84.9857   YY=            -85.3773   ZZ=            -84.3565
   XY=             -0.7590   XZ=              0.7523   YZ=              0.3668

 Normal termination of Gaussian 16 at Thu May  6 02:21:56 2021.
