 Gaussian 16, Revision A.03,
 Gaussian 16:  EM64L-G16RevA.03 25-Dec-2016

 -------------
 #p 6-31g* mp2
 -------------

 ------------------------------------------------------
 Input file generated by CHIRIPA (05-May-2021 14:53:16)
 ------------------------------------------------------
 Symbolic Z-matrix:
 Charge =  0 Multiplicity = 1

                         Standard orientation:
 ---------------------------------------------------------------------
 Center     Atomic      Atomic             Coordinates (Angstroms)
 Number     Number       Type             X           Y           Z
 ---------------------------------------------------------------------
      1          6           0       -4.544930   -0.523947   -0.212356
      2          6           0       -4.738173   -1.466224    0.976239
      3          6           0       -5.589872   -2.687850    0.629783
      4          1           0       -5.528439   -0.195905   -0.575735
      5          1           0       -4.075491   -1.077303   -1.037474
      6          1           0       -5.205845   -0.910903    1.799353
      7          1           0       -3.754084   -1.791909    1.336951
      8          1           0       -5.124312   -3.266461   -0.174620
      9          1           0       -6.584322   -2.380448    0.290409
     10          1           0       -5.715260   -3.347927    1.493748
     11          6           0       -3.695613    0.702041    0.118311
     12          6           0       -3.502370    1.644318   -1.070284
     13          6           0       -2.650671    2.865944   -0.723828
     14          1           0       -4.165052    1.255397    0.943429
     15          1           0       -2.712105    0.373999    0.481689
     16          1           0       -4.486460    1.970004   -1.430996
     17          1           0       -3.034698    1.088997   -1.893398
     18          1           0       -1.656221    2.558543   -0.384455
     19          1           0       -3.116231    3.444555    0.080575
     20          1           0       -2.525284    3.526021   -1.587793
     21          6           0        2.195677    2.129055    0.733061
     22          6           0        3.456485    1.760358    1.213633
     23          6           0        4.033152    0.544525    0.834487
     24          6           0        3.317890   -0.282123   -0.030581
     25          6           0        2.059975    0.057169   -0.526386
     26          6           0        1.502669    1.277785   -0.133887
     27          1           0        1.755229    3.075401    1.032778
     28          1           0        3.996978    2.419479    1.887038
     29          1           0        5.007689    0.234343    1.191532
     30          1           0        1.545354   -0.620821   -1.196394
     31          1           0        0.523349    1.561525   -0.508677
     32          7           0        3.918133   -1.571803   -0.439036
     33          8           0        3.267582   -2.282395   -1.202238
     34          8           0        5.027791   -1.847640    0.011755
 ---------------------------------------------------------------------

 SCF Done:  E(RHF) =  -669.535509137     A.U. after   15 cycles
 E2 =    -0.2090880995D+01 EUMP2 =    -0.67162639013194D+03

 The electronic state is 1-A.
 Alpha  occ. eigenvalues --  -20.60762 -20.60757 -15.85815 -11.31179 -11.27750
 Alpha  occ. eigenvalues --  -11.27747 -11.27485 -11.26761 -11.26742 -11.22382
 Alpha  occ. eigenvalues --  -11.22132 -11.22023 -11.21929 -11.21815 -11.21293
 Alpha  occ. eigenvalues --   -1.59837  -1.39391  -1.19351  -1.09000  -1.08745
 Alpha  occ. eigenvalues --   -1.04756  -1.04115  -0.96579  -0.95580  -0.87599
 Alpha  occ. eigenvalues --   -0.86155  -0.82415  -0.80187  -0.78770  -0.77464
 Alpha  occ. eigenvalues --   -0.72034  -0.71160  -0.70457  -0.65658  -0.65003
 Alpha  occ. eigenvalues --   -0.64773  -0.62157  -0.61476  -0.59957  -0.58162
 Alpha  occ. eigenvalues --   -0.55903  -0.55243  -0.53272  -0.53087  -0.53064
 Alpha  occ. eigenvalues --   -0.52784  -0.50520  -0.48796  -0.48789  -0.48488
 Alpha  occ. eigenvalues --   -0.47216  -0.46320  -0.46219  -0.44797  -0.44349
 Alpha  occ. eigenvalues --   -0.37330  -0.36359
 Alpha virt. eigenvalues --    0.05074   0.11274   0.16556   0.19246   0.22643
 Alpha virt. eigenvalues --    0.23719   0.25504   0.26532   0.27211   0.28229
 Alpha virt. eigenvalues --    0.28599   0.30308   0.31034   0.31588   0.31968

 Mulliken charges:
               1
     1  C   -0.298848
     2  C   -0.300252
     3  C   -0.476171
     4  H    0.150954
     5  H    0.150705
     6  H    0.152033
     7  H    0.153076
     8  H    0.156728
     9  H    0.155374
    10  H    0.161825
    11  C   -0.298602
    12  C   -0.300473
    13  C   -0.479713
    14  H    0.150987
    15  H    0.146864
    16  H    0.156274
    17  H    0.151901
    18  H    0.144705
    19  H    0.159467
    20  H    0.163587
    21  C   -0.172909
    22  C   -0.218619
    23  C   -0.171167
    24  C    0.158995
    25  C   -0.172686
    26  C   -0.226352
    27  H    0.226003
    28  H    0.223471
    29  H    0.275585
    30  H    0.275829
    31  H    0.234470
    32  N    0.487980
    33  O   -0.460565
    34  O   -0.460453
 Sum of Mulliken charges =  -0.00000

 Dipole moment (field-independent basis, Debye):
    X=             -2.2987    Y=              4.5310    Z=              1.4467  Tot=              5.2827
 Quadrupole moment (field-independent basis, Debye-Ang):
   XX=           -104.6038   YY=            -98.2282   ZZ=            -93.8046
   XY=             15.7179   XZ=              7.3016   YZ=              0.1802

 Normal termination of Gaussian 16 at Wed May  5 21:58:31 2021.
