 Gaussian 16, Revision A.03,
 Gaussian 16:  EM64L-G16RevA.03 25-Dec-2016

 -------------
 #p 6-31g* mp2
 -------------

 ------------------------------------------------------
 Input file generated by CHIRIPA (05-May-2021 14:51:10)
 ------------------------------------------------------
 Symbolic Z-matrix:
 Charge =  0 Multiplicity = 1

                         Standard orientation:
 ---------------------------------------------------------------------
 Center     Atomic      Atomic             Coordinates (Angstroms)
 Number     Number       Type             X           Y           Z
 ---------------------------------------------------------------------
      1          6           0       -1.752112   -1.245327    0.167379
      2          6           0       -1.521392   -1.723400    1.601324
      3          6           0       -0.487144   -2.845933    1.691023
      4          1           0       -2.077214   -2.095399   -0.447951
      5          1           0       -0.797984   -0.900664   -0.254810
      6          1           0       -2.475930   -2.065768    2.021153
      7          1           0       -1.196986   -0.872051    2.213355
      8          1           0        0.478531   -2.512370    1.297565
      9          1           0       -0.807680   -3.712870    1.104272
     10          1           0       -0.337728   -3.172482    2.724900
     11          6           0       -2.783422   -0.123321    0.061398
     12          6           0       -3.014142    0.354753   -1.372548
     13          6           0       -4.048390    1.477285   -1.462247
     14          1           0       -3.737549   -0.467983    0.483586
     15          1           0       -2.458320    0.726751    0.676728
     16          1           0       -3.338548   -0.496597   -1.984578
     17          1           0       -2.059603    0.697120   -1.792377
     18          1           0       -3.727854    2.344222   -0.875496
     19          1           0       -5.014065    1.143723   -1.068789
     20          1           0       -4.197806    1.803834   -2.496123
     21          6           0        1.738136    1.034374    0.310333
     22          6           0        2.066176    2.498887    0.602865
     23          6           0        0.997252    3.185603    1.453522
     24          1           0        0.767794    0.977794   -0.201701
     25          1           0        1.622039    0.494994    1.260589
     26          1           0        2.182983    3.035040   -0.347667
     27          1           0        3.035940    2.552002    1.114091
     28          1           0        0.885199    2.676408    2.416209
     29          1           0        0.027396    3.162190    0.946145
     30          1           0        1.251858    4.231638    1.650618
     31          6           0        2.797398    0.334273   -0.539109
     32          6           0        2.469358   -1.130240   -0.831641
     33          6           0        3.538282   -1.816955   -1.682299
     34          1           0        2.913495    0.873654   -1.489365
     35          1           0        3.767740    0.390854   -0.027075
     36          1           0        1.499593   -1.183354   -1.342867
     37          1           0        2.352550   -1.666392    0.118892
     38          1           0        4.508138   -1.793543   -1.174920
     39          1           0        3.650335   -1.307760   -2.644985
     40          1           0        3.283675   -2.862990   -1.879394
 ---------------------------------------------------------------------

 SCF Done:  E(RHF) =  -470.732382791     A.U. after   11 cycles
 E2 =    -0.1585402030D+01 EUMP2 =    -0.47231778482097D+03

 The electronic state is 1-A.
 Alpha  occ. eigenvalues --  -11.21693 -11.21673 -11.21618 -11.21515 -11.21507
 Alpha  occ. eigenvalues --  -11.21445 -11.21344 -11.21236 -11.21164 -11.21119
 Alpha  occ. eigenvalues --  -11.21081 -11.20957  -1.08555  -1.08359  -1.03621
 Alpha  occ. eigenvalues --   -1.03482  -0.96067  -0.95931  -0.87086  -0.86947
 Alpha  occ. eigenvalues --   -0.79735  -0.79527  -0.78499  -0.78061  -0.65250
 Alpha  occ. eigenvalues --   -0.64948  -0.61028  -0.60892  -0.59462  -0.59272
 Alpha  occ. eigenvalues --   -0.57716  -0.57514  -0.55368  -0.55221  -0.52757
 Alpha  occ. eigenvalues --   -0.52631  -0.52504  -0.52361  -0.50041  -0.49884
 Alpha  occ. eigenvalues --   -0.48159  -0.47777  -0.46809  -0.46595  -0.46363
 Alpha  occ. eigenvalues --   -0.45780  -0.45657  -0.44978  -0.43863  -0.43730
 Alpha virt. eigenvalues --    0.19871   0.22283   0.23619   0.23869   0.25124
 Alpha virt. eigenvalues --    0.25939   0.26860   0.28431   0.28586   0.29976
 Alpha virt. eigenvalues --    0.30389   0.31425   0.31681   0.31828   0.32066

 Mulliken charges:
               1
     1  C   -0.307814
     2  C   -0.298848
     3  C   -0.483128
     4  H    0.148654
     5  H    0.160729
     6  H    0.151389
     7  H    0.151957
     8  H    0.162435
     9  H    0.154692
    10  H    0.159190
    11  C   -0.298939
    12  C   -0.300174
    13  C   -0.475557
    14  H    0.149601
    15  H    0.150226
    16  H    0.152195
    17  H    0.150370
    18  H    0.154975
    19  H    0.155525
    20  H    0.160120
    21  C   -0.304545
    22  C   -0.299331
    23  C   -0.476210
    24  H    0.153624
    25  H    0.150654
    26  H    0.152292
    27  H    0.152474
    28  H    0.155302
    29  H    0.154873
    30  H    0.160930
    31  C   -0.297777
    32  C   -0.308804
    33  C   -0.475050
    34  H    0.149711
    35  H    0.149992
    36  H    0.155578
    37  H    0.157096
    38  H    0.155281
    39  H    0.155311
    40  H    0.161004
 Sum of Mulliken charges =  -0.00000

 Dipole moment (field-independent basis, Debye):
    X=              0.0694    Y=              0.0188    Z=             -0.0198  Tot=              0.0746
 Quadrupole moment (field-independent basis, Debye-Ang):
   XX=            -84.9369   YY=            -85.3306   ZZ=            -84.5161
   XY=              1.3572   XZ=              0.7712   YZ=             -0.2585

 Normal termination of Gaussian 16 at Wed May  5 16:40:13 2021.
