 Gaussian 16, Revision A.03,
 Gaussian 16:  EM64L-G16RevA.03 25-Dec-2016

 -------------
 #p 6-31g* mp2
 -------------

 ------------------------------------------------------
 Input file generated by CHIRIPA (05-May-2021 14:53:12)
 ------------------------------------------------------
 Symbolic Z-matrix:
 Charge =  0 Multiplicity = 1

                         Standard orientation:
 ---------------------------------------------------------------------
 Center     Atomic      Atomic             Coordinates (Angstroms)
 Number     Number       Type             X           Y           Z
 ---------------------------------------------------------------------
      1          6           0       -3.897618    0.077232   -0.328831
      2          6           0       -4.592339    1.412024   -0.057396
      3          6           0       -5.325046    1.957217   -1.283650
      4          1           0       -3.186541    0.202927   -1.156789
      5          1           0       -4.644288   -0.654800   -0.666483
      6          1           0       -3.844800    2.140935    0.280969
      7          1           0       -5.301706    1.283184    0.770139
      8          1           0       -6.091499    1.251425   -1.619818
      9          1           0       -4.626315    2.114050   -2.111767
     10          1           0       -5.814496    2.911938   -1.067302
     11          6           0       -3.160779   -0.480601    0.887565
     12          6           0       -2.466058   -1.815393    0.616131
     13          6           0       -1.733350   -2.360586    1.842384
     14          1           0       -2.414108    0.251431    1.225217
     15          1           0       -3.871856   -0.606296    1.715524
     16          1           0       -1.756691   -1.686552   -0.211404
     17          1           0       -3.213597   -2.544304    0.277766
     18          1           0       -2.432082   -2.517419    2.670502
     19          1           0       -0.966898   -1.654794    2.178553
     20          1           0       -1.243900   -3.315307    1.626037
     21          6           0        3.648315    2.244991    0.883774
     22          6           0        2.272825    2.093954    0.679480
     23          6           0        1.767884    0.941586    0.069868
     24          6           0        2.671035   -0.044238   -0.324796
     25          6           0        4.046756    0.076908   -0.135048
     26          6           0        4.529338    1.237762    0.476576
     27          1           0        4.031881    3.143474    1.358117
     28          1           0        1.586265    2.874544    0.994694
     29          1           0        0.707690    0.798774   -0.100462
     30          1           0        4.706431   -0.718475   -0.460027
     31          1           0        5.598050    1.352346    0.633957
     32          7           0        2.148312   -1.268691   -0.971230
     33          8           0        2.964862   -2.122637   -1.309846
     34          8           0        0.931951   -1.351286   -1.127049
 ---------------------------------------------------------------------

 SCF Done:  E(RHF) =  -669.536103635     A.U. after   15 cycles
 E2 =    -0.2091409887D+01 EUMP2 =    -0.67162751352144D+03

 The electronic state is 1-A.
 Alpha  occ. eigenvalues --  -20.60938 -20.60928 -15.85978 -11.31297 -11.27865
 Alpha  occ. eigenvalues --  -11.27854 -11.27594 -11.26868 -11.26858 -11.21462
 Alpha  occ. eigenvalues --  -11.21061 -11.20984 -11.20947 -11.20692 -11.20378
 Alpha  occ. eigenvalues --   -1.59998  -1.39555  -1.19464  -1.08867  -1.08029
 Alpha  occ. eigenvalues --   -1.04862  -1.03073  -0.95713  -0.95561  -0.86586
 Alpha  occ. eigenvalues --   -0.86262  -0.82549  -0.79159  -0.77817  -0.77587
 Alpha  occ. eigenvalues --   -0.72208  -0.71312  -0.70573  -0.65127  -0.64871
 Alpha  occ. eigenvalues --   -0.64656  -0.62211  -0.60461  -0.58941  -0.57144
 Alpha  occ. eigenvalues --   -0.55364  -0.54869  -0.53191  -0.52954  -0.52245
 Alpha  occ. eigenvalues --   -0.51984  -0.49536  -0.48962  -0.48951  -0.47469
 Alpha  occ. eigenvalues --   -0.46192  -0.45376  -0.45266  -0.44898  -0.43351
 Alpha  occ. eigenvalues --   -0.37441  -0.36463
 Alpha virt. eigenvalues --    0.04919   0.11178   0.16409   0.20355   0.22764
 Alpha virt. eigenvalues --    0.24427   0.26296   0.27471   0.27965   0.28280
 Alpha virt. eigenvalues --    0.29060   0.30913   0.31598   0.32158   0.32377

 Mulliken charges:
               1
     1  C   -0.298966
     2  C   -0.298263
     3  C   -0.475424
     4  H    0.152047
     5  H    0.150963
     6  H    0.146202
     7  H    0.151642
     8  H    0.156342
     9  H    0.155066
    10  H    0.158473
    11  C   -0.296250
    12  C   -0.311062
    13  C   -0.472394
    14  H    0.139116
    15  H    0.147474
    16  H    0.179237
    17  H    0.149612
    18  H    0.149726
    19  H    0.148545
    20  H    0.165200
    21  C   -0.170576
    22  C   -0.218579
    23  C   -0.171742
    24  C    0.158185
    25  C   -0.170728
    26  C   -0.218509
    27  H    0.226081
    28  H    0.223971
    29  H    0.276134
    30  H    0.275882
    31  H    0.223881
    32  N    0.494004
    33  O   -0.458902
    34  O   -0.466390
 Sum of Mulliken charges =  -0.00000

 Dipole moment (field-independent basis, Debye):
    X=              2.0179    Y=              4.2008    Z=              2.1354  Tot=              5.1263
 Quadrupole moment (field-independent basis, Debye-Ang):
   XX=            -80.4213   YY=            -95.0346   ZZ=            -97.9083
   XY=             10.7245   XZ=              4.8142   YZ=             -0.7639

 Normal termination of Gaussian 16 at Wed May  5 18:30:35 2021.
