 Gaussian 16, Revision A.03,
 Gaussian 16:  EM64L-G16RevA.03 25-Dec-2016

 -------------
 #p 6-31g* mp2
 -------------

 ------------------------------------------------------
 Input file generated by CHIRIPA (05-May-2021 14:53:17)
 ------------------------------------------------------
 Symbolic Z-matrix:
 Charge =  0 Multiplicity = 1

                         Standard orientation:
 ---------------------------------------------------------------------
 Center     Atomic      Atomic             Coordinates (Angstroms)
 Number     Number       Type             X           Y           Z
 ---------------------------------------------------------------------
      1          6           0       -2.896967    1.184495   -0.066268
      2          6           0       -1.811503    1.825621   -0.931549
      3          6           0       -1.357501    3.185174   -0.399297
      4          1           0       -3.758781    1.863310   -0.007677
      5          1           0       -2.518827    1.070207    0.959083
      6          1           0       -2.191088    1.937398   -1.955286
      7          1           0       -0.952249    1.145118   -0.988244
      8          1           0       -0.953580    3.087024    0.613529
      9          1           0       -2.199457    3.883805   -0.359008
     10          1           0       -0.581291    3.625518   -1.032902
     11          6           0       -3.361189   -0.175146   -0.585499
     12          6           0       -4.446653   -0.816271    0.279782
     13          6           0       -4.900655   -2.175824   -0.252470
     14          1           0       -3.739329   -0.060857   -1.610850
     15          1           0       -2.499375   -0.853960   -0.644090
     16          1           0       -5.305907   -0.135768    0.336477
     17          1           0       -4.067068   -0.928048    1.303519
     18          1           0       -4.058698   -2.874455   -0.292759
     19          1           0       -5.304576   -2.077674   -1.265296
     20          1           0       -5.676865   -2.616168    0.381135
     21          6           0        0.339217   -0.450947    1.643879
     22          6           0        1.430848    0.319182    2.058324
     23          6           0        2.602434    0.358058    1.296470
     24          6           0        2.648132   -0.388799    0.120285
     25          6           0        1.577339   -1.165707   -0.319154
     26          6           0        0.415812   -1.189631    0.458553
     27          1           0       -0.566992   -0.475339    2.241864
     28          1           0        1.374195    0.893861    2.978422
     29          1           0        3.462385    0.945786    1.593919
     30          1           0        1.663651   -1.727966   -1.241018
     31          1           0       -0.430407   -1.788612    0.134237
     32          7           0        3.883114   -0.355558   -0.694647
     33          8           0        3.898183   -1.022496   -1.726928
     34          8           0        4.812638    0.336807   -0.285680
 ---------------------------------------------------------------------

 SCF Done:  E(RHF) =  -669.534914655     A.U. after   15 cycles
 E2 =    -0.2094084368D+01 EUMP2 =    -0.67162899902335D+03

 The electronic state is 1-A.
 Alpha  occ. eigenvalues --  -20.60833 -20.60828 -15.85888 -11.31293 -11.27869
 Alpha  occ. eigenvalues --  -11.27861 -11.27621 -11.26889 -11.26876 -11.22459
 Alpha  occ. eigenvalues --  -11.22247 -11.22098 -11.21948 -11.21850 -11.21429
 Alpha  occ. eigenvalues --   -1.59907  -1.39460  -1.19478  -1.09175  -1.08847
 Alpha  occ. eigenvalues --   -1.04885  -1.04152  -0.96623  -0.95687  -0.87633
 Alpha  occ. eigenvalues --   -0.86282  -0.82521  -0.80235  -0.78972  -0.77557
 Alpha  occ. eigenvalues --   -0.72106  -0.71231  -0.70586  -0.65940  -0.65121
 Alpha  occ. eigenvalues --   -0.64797  -0.62230  -0.61567  -0.59990  -0.58223
 Alpha  occ. eigenvalues --   -0.55932  -0.55387  -0.53309  -0.53183  -0.53078
 Alpha  occ. eigenvalues --   -0.52929  -0.50569  -0.48874  -0.48858  -0.48535
 Alpha  occ. eigenvalues --   -0.47285  -0.46485  -0.46412  -0.44856  -0.44438
 Alpha  occ. eigenvalues --   -0.37421  -0.36442
 Alpha virt. eigenvalues --    0.04948   0.11044   0.16326   0.18872   0.23261
 Alpha virt. eigenvalues --    0.23323   0.24930   0.25477   0.27108   0.28578
 Alpha virt. eigenvalues --    0.29919   0.30552   0.30863   0.31423   0.31611

 Mulliken charges:
               1
     1  C   -0.297385
     2  C   -0.304640
     3  C   -0.475218
     4  H    0.152650
     5  H    0.140915
     6  H    0.153024
     7  H    0.159035
     8  H    0.151636
     9  H    0.154923
    10  H    0.163963
    11  C   -0.301696
    12  C   -0.299497
    13  C   -0.475105
    14  H    0.154829
    15  H    0.141753
    16  H    0.156144
    17  H    0.145610
    18  H    0.150785
    19  H    0.158708
    20  H    0.162974
    21  C   -0.170446
    22  C   -0.219092
    23  C   -0.170197
    24  C    0.159057
    25  C   -0.172215
    26  C   -0.219967
    27  H    0.227057
    28  H    0.224164
    29  H    0.276227
    30  H    0.276473
    31  H    0.227526
    32  N    0.488055
    33  O   -0.460013
    34  O   -0.460041
 Sum of Mulliken charges =  -0.00000

 Dipole moment (field-independent basis, Debye):
    X=             -4.3467    Y=             -0.0866    Z=              2.8102  Tot=              5.1768
 Quadrupole moment (field-independent basis, Debye-Ang):
   XX=           -116.6817   YY=            -93.9776   ZZ=            -91.9799
   XY=              2.1565   XZ=              9.2839   YZ=              0.6759

 Normal termination of Gaussian 16 at Thu May  6 20:31:14 2021.
