 Gaussian 16, Revision A.03,
 Gaussian 16:  EM64L-G16RevA.03 25-Dec-2016

 -------------
 #p 6-31g* mp2
 -------------

 ------------------------------------------------------
 Input file generated by CHIRIPA (05-May-2021 14:53:12)
 ------------------------------------------------------
 Symbolic Z-matrix:
 Charge =  0 Multiplicity = 1

                         Standard orientation:
 ---------------------------------------------------------------------
 Center     Atomic      Atomic             Coordinates (Angstroms)
 Number     Number       Type             X           Y           Z
 ---------------------------------------------------------------------
      1          6           0       -4.124881   -0.513088   -0.215603
      2          6           0       -5.496877   -0.911685    0.329130
      3          6           0       -5.695449   -2.426879    0.379625
      4          1           0       -4.000737   -0.934356   -1.222611
      5          1           0       -3.343774   -0.965510    0.410959
      6          1           0       -6.275167   -0.457512   -0.297453
      7          1           0       -5.617846   -0.489259    1.334883
      8          1           0       -4.940371   -2.893213    1.020710
      9          1           0       -5.601426   -2.861287   -0.620901
     10          1           0       -6.682787   -2.689524    0.772105
     11          6           0       -3.911346    0.998510   -0.272193
     12          6           0       -2.539350    1.397108   -0.816926
     13          6           0       -2.340778    2.912302   -0.867420
     14          1           0       -4.692453    1.450933   -0.898754
     15          1           0       -4.035490    1.419778    0.734816
     16          1           0       -2.418381    0.974682   -1.822678
     17          1           0       -1.761060    0.942935   -0.190342
     18          1           0       -2.434801    3.346709    0.133105
     19          1           0       -3.095856    3.378636   -1.508505
     20          1           0       -1.353440    3.174947   -1.259900
     21          6           0        5.402813   -0.813762   -0.732605
     22          6           0        4.276009   -1.570295   -1.070970
     23          6           0        3.016805   -1.233679   -0.565357
     24          6           0        2.920309   -0.129278    0.279792
     25          6           0        4.024242    0.644136    0.635390
     26          6           0        5.273561    0.289096    0.117995
     27          1           0        6.377152   -1.082410   -1.129953
     28          1           0        4.373401   -2.427307   -1.731343
     29          1           0        2.127945   -1.802014   -0.811005
     30          1           0        3.895697    1.492993    1.295949
     31          1           0        6.146920    0.878448    0.382484
     32          7           0        1.592479    0.236835    0.821298
     33          8           0        1.534025    1.214418    1.563962
     34          8           0        0.635322   -0.460722    0.492812
 ---------------------------------------------------------------------

 SCF Done:  E(RHF) =  -669.536537524     A.U. after   15 cycles
 E2 =    -0.2091130767D+01 EUMP2 =    -0.67162766829123D+03

 The electronic state is 1-A.
 Alpha  occ. eigenvalues --  -20.61040 -20.61016 -15.86044 -11.31336 -11.27893
 Alpha  occ. eigenvalues --  -11.27889 -11.27626 -11.26893 -11.26883 -11.20734
 Alpha  occ. eigenvalues --  -11.20356 -11.20273 -11.20171 -11.20014 -11.19841
 Alpha  occ. eigenvalues --   -1.60080  -1.39636  -1.19499  -1.08910  -1.07282
 Alpha  occ. eigenvalues --   -1.04890  -1.02416  -0.95757  -0.94915  -0.86292
 Alpha  occ. eigenvalues --   -0.85937  -0.82591  -0.78489  -0.77648  -0.77053
 Alpha  occ. eigenvalues --   -0.72261  -0.71387  -0.70608  -0.65155  -0.64893
 Alpha  occ. eigenvalues --   -0.63907  -0.62236  -0.59805  -0.58299  -0.56510
 Alpha  occ. eigenvalues --   -0.55397  -0.54209  -0.53223  -0.52981  -0.51639
 Alpha  occ. eigenvalues --   -0.51339  -0.49114  -0.49020  -0.48826  -0.46808
 Alpha  occ. eigenvalues --   -0.45522  -0.45076  -0.44626  -0.44345  -0.42672
 Alpha  occ. eigenvalues --   -0.37476  -0.36489
 Alpha virt. eigenvalues --    0.04859   0.11167   0.16358   0.21304   0.23982
 Alpha virt. eigenvalues --    0.25388   0.27226   0.27785   0.28168   0.28736
 Alpha virt. eigenvalues --    0.29040   0.30875   0.32385   0.32478   0.32906

 Mulliken charges:
               1
     1  C   -0.299258
     2  C   -0.298841
     3  C   -0.475070
     4  H    0.145516
     5  H    0.158550
     6  H    0.148945
     7  H    0.151454
     8  H    0.155724
     9  H    0.152899
    10  H    0.157186
    11  C   -0.296979
    12  C   -0.312368
    13  C   -0.473278
    14  H    0.143298
    15  H    0.149251
    16  H    0.143540
    17  H    0.183103
    18  H    0.156240
    19  H    0.147971
    20  H    0.156488
    21  C   -0.170456
    22  C   -0.218594
    23  C   -0.170650
    24  C    0.158133
    25  C   -0.170657
    26  C   -0.218617
    27  H    0.226161
    28  H    0.224023
    29  H    0.276143
    30  H    0.275963
    31  H    0.223971
    32  N    0.488691
    33  O   -0.458856
    34  O   -0.459628
 Sum of Mulliken charges =  -0.00000

 Dipole moment (field-independent basis, Debye):
    X=              5.0689    Y=             -1.3672    Z=             -1.7644  Tot=              5.5386
 Quadrupole moment (field-independent basis, Debye-Ang):
   XX=            -68.2908   YY=            -93.4741   ZZ=            -94.6034
   XY=             -2.8199   XZ=             -3.2861   YZ=              2.5475

 Normal termination of Gaussian 16 at Wed May  5 15:27:13 2021.
