 Gaussian 16, Revision A.03,
 Gaussian 16:  EM64L-G16RevA.03 25-Dec-2016

 -------------
 #p 6-31g* mp2
 -------------

 ------------------------------------------------------
 Input file generated by CHIRIPA (05-May-2021 14:51:11)
 ------------------------------------------------------
 Symbolic Z-matrix:
 Charge =  0 Multiplicity = 1

                         Standard orientation:
 ---------------------------------------------------------------------
 Center     Atomic      Atomic             Coordinates (Angstroms)
 Number     Number       Type             X           Y           Z
 ---------------------------------------------------------------------
      1          6           0        2.624980   -0.706935    0.189539
      2          6           0        2.251205   -1.872237   -0.727166
      3          6           0        1.023891   -2.640568   -0.236084
      4          1           0        2.811609   -1.090447    1.201979
      5          1           0        1.769403   -0.021886    0.267577
      6          1           0        3.107707   -2.554168   -0.804554
      7          1           0        2.065631   -1.485932   -1.737586
      8          1           0        0.153744   -1.978871   -0.176056
      9          1           0        1.201741   -3.053177    0.762276
     10          1           0        0.774388   -3.469205   -0.906136
     11          6           0        3.849976    0.070837   -0.288146
     12          6           0        4.223752    1.236138    0.628560
     13          6           0        5.451066    2.004469    0.137477
     14          1           0        4.705554   -0.614213   -0.366183
     15          1           0        3.663348    0.454348   -1.300585
     16          1           0        4.409326    0.849833    1.638979
     17          1           0        3.367249    1.918070    0.705948
     18          1           0        5.273215    2.417079   -0.860883
     19          1           0        6.321213    1.342773    0.077450
     20          1           0        5.700568    2.833106    0.807530
     21          6           0       -3.230849   -0.307074    0.488176
     22          6           0       -3.020604   -1.599767   -0.300955
     23          6           0       -3.009744   -2.841663    0.590880
     24          1           0       -2.437340   -0.211979    1.241996
     25          1           0       -4.179270   -0.372218    1.039217
     26          1           0       -2.073531   -1.531646   -0.851435
     27          1           0       -3.814597   -1.691699   -1.053112
     28          1           0       -3.957984   -2.937332    1.129665
     29          1           0       -2.207026   -2.776369    1.332487
     30          1           0       -2.858119   -3.754418    0.006288
     31          6           0       -3.244108    0.943173   -0.389569
     32          6           0       -3.454353    2.235866    0.399562
     33          6           0       -3.465212    3.477761   -0.492273
     34          1           0       -2.295685    1.008316   -0.940610
     35          1           0       -4.037618    0.848078   -1.143390
     36          1           0       -2.660360    2.327797    1.151719
     37          1           0       -4.401426    2.167744    0.950042
     38          1           0       -4.267931    3.412467   -1.233882
     39          1           0       -2.516972    3.573430   -1.031058
     40          1           0       -3.616837    4.390516    0.092319
 ---------------------------------------------------------------------

 SCF Done:  E(RHF) =  -470.733138490     A.U. after   11 cycles
 E2 =    -0.1582907426D+01 EUMP2 =    -0.47231604591577D+03

 The electronic state is 1-A.
 Alpha  occ. eigenvalues --  -11.21634 -11.21632 -11.21616 -11.21557 -11.21447
 Alpha  occ. eigenvalues --  -11.21414 -11.21386 -11.21351 -11.21094 -11.21088
 Alpha  occ. eigenvalues --  -11.21077 -11.20999  -1.08471  -1.08428  -1.03582
 Alpha  occ. eigenvalues --   -1.03499  -0.96035  -0.95941  -0.87032  -0.86977
 Alpha  occ. eigenvalues --   -0.79639  -0.79569  -0.78286  -0.78240  -0.65182
 Alpha  occ. eigenvalues --   -0.65005  -0.61149  -0.60766  -0.59389  -0.59321
 Alpha  occ. eigenvalues --   -0.57617  -0.57577  -0.55415  -0.55144  -0.52710
 Alpha  occ. eigenvalues --   -0.52638  -0.52451  -0.52359  -0.50017  -0.49861
 Alpha  occ. eigenvalues --   -0.48019  -0.47818  -0.46790  -0.46491  -0.45871
 Alpha  occ. eigenvalues --   -0.45783  -0.45745  -0.45602  -0.43817  -0.43773
 Alpha virt. eigenvalues --    0.20821   0.23109   0.23717   0.24840   0.26162
 Alpha virt. eigenvalues --    0.26729   0.27358   0.27500   0.28023   0.29023
 Alpha virt. eigenvalues --    0.30668   0.31335   0.31587   0.32053   0.32120

 Mulliken charges:
               1
     1  C   -0.298241
     2  C   -0.299933
     3  C   -0.481408
     4  H    0.149782
     5  H    0.148655
     6  H    0.152165
     7  H    0.151771
     8  H    0.161747
     9  H    0.155191
    10  H    0.160577
    11  C   -0.298300
    12  C   -0.299665
    13  C   -0.475731
    14  H    0.149746
    15  H    0.149678
    16  H    0.152008
    17  H    0.151766
    18  H    0.155229
    19  H    0.155272
    20  H    0.160357
    21  C   -0.299159
    22  C   -0.304231
    23  C   -0.475872
    24  H    0.149629
    25  H    0.149857
    26  H    0.155218
    27  H    0.152230
    28  H    0.154584
    29  H    0.156982
    30  H    0.160521
    31  C   -0.297974
    32  C   -0.299669
    33  C   -0.475665
    34  H    0.148502
    35  H    0.149862
    36  H    0.151889
    37  H    0.152120
    38  H    0.155266
    39  H    0.154907
    40  H    0.160340
 Sum of Mulliken charges =  -0.00000

 Dipole moment (field-independent basis, Debye):
    X=              0.0073    Y=             -0.0176    Z=              0.0045  Tot=              0.0195
 Quadrupole moment (field-independent basis, Debye-Ang):
   XX=            -84.1276   YY=            -85.7634   ZZ=            -84.7979
   XY=             -0.8245   XZ=              0.6343   YZ=              0.3168

 Normal termination of Gaussian 16 at Thu May  6 05:27:48 2021.
