 Gaussian 16, Revision A.03,
 Gaussian 16:  EM64L-G16RevA.03 25-Dec-2016

 -------------
 #p 6-31g* mp2
 -------------

 ------------------------------------------------------
 Input file generated by CHIRIPA (05-May-2021 14:57:22)
 ------------------------------------------------------
 Symbolic Z-matrix:
 Charge =  0 Multiplicity = 1

                         Standard orientation:
 ---------------------------------------------------------------------
 Center     Atomic      Atomic             Coordinates (Angstroms)
 Number     Number       Type             X           Y           Z
 ---------------------------------------------------------------------
      1          6           0        3.181437   -2.296491   -0.651889
      2          6           0        2.361048   -1.912407    0.413926
      3          6           0        2.257657   -0.567508    0.781492
      4          6           0        2.991950    0.371111    0.058236
      5          6           0        3.817870    0.019795   -1.008405
      6          6           0        3.905952   -1.330867   -1.358408
      7          1           0        3.255807   -3.343480   -0.930602
      8          1           0        1.797230   -2.660155    0.964406
      9          1           0        1.630082   -0.242495    1.602426
     10          1           0        4.367788    0.788046   -1.538308
     11          1           0        4.543866   -1.626252   -2.186573
     12          7           0        2.890598    1.797946    0.438065
     13          8           0        3.547746    2.605572   -0.215031
     14          8           0        2.155930    2.081657    1.381679
     15          6           0       -2.160343   -0.908012    2.251632
     16          6           0       -1.545065   -1.358051    1.078850
     17          6           0       -2.006672   -0.936845   -0.171772
     18          6           0       -3.090665   -0.061311   -0.212893
     19          6           0       -3.724795    0.404795    0.937721
     20          6           0       -3.246330   -0.029574    2.177456
     21          1           0       -1.795208   -1.240327    3.218917
     22          1           0       -0.701489   -2.040286    1.133424
     23          1           0       -1.548975   -1.269613   -1.095457
     24          1           0       -4.563767    1.084565    0.851370
     25          1           0       -3.726115    0.321570    3.086603
     26          7           0       -3.588272    0.391567   -1.531108
     27          8           0       -4.544914    1.163180   -1.540364
     28          8           0       -3.012231   -0.033656   -2.530107
 ---------------------------------------------------------------------

 SCF Done:  E(RHF) =  -868.336645978     A.U. after   16 cycles
 E2 =    -0.2600782017D+01 EUMP2 =    -0.87093742799459D+03

 The electronic state is 1-A.
 Alpha  occ. eigenvalues --  -20.61103 -20.61090 -20.60829 -20.60817 -15.86162
 Alpha  occ. eigenvalues --  -15.85885 -11.31661 -11.31325 -11.28340 -11.28233
 Alpha  occ. eigenvalues --  -11.28062 -11.27971 -11.27888 -11.27734 -11.27434
 Alpha  occ. eigenvalues --  -11.27237 -11.27072 -11.26904  -1.60170  -1.59898
 Alpha  occ. eigenvalues --   -1.39721  -1.39450  -1.19876  -1.19525  -1.09237
 Alpha  occ. eigenvalues --   -1.08917  -1.05332  -1.04945  -0.96043  -0.95730
 Alpha  occ. eigenvalues --   -0.86703  -0.86367  -0.82908  -0.82558  -0.77940
 Alpha  occ. eigenvalues --   -0.77573  -0.72379  -0.72106  -0.71494  -0.71217
 Alpha  occ. eigenvalues --   -0.70971  -0.70650  -0.65556  -0.65396  -0.65194
 Alpha  occ. eigenvalues --   -0.64971  -0.62743  -0.62212  -0.55796  -0.55476
 Alpha  occ. eigenvalues --   -0.53657  -0.53485  -0.53202  -0.53008  -0.49149
 Alpha  occ. eigenvalues --   -0.49122  -0.48870  -0.48851  -0.45097  -0.44839
 Alpha  occ. eigenvalues --   -0.37851  -0.37532  -0.37031  -0.36402
 Alpha virt. eigenvalues --    0.04597   0.05002   0.10645   0.11056   0.15912
 Alpha virt. eigenvalues --    0.16478   0.19137   0.22063   0.25044   0.27577
 Alpha virt. eigenvalues --    0.28020   0.28911   0.29432   0.31682   0.32245

 Mulliken charges:
               1
     1  C   -0.169907
     2  C   -0.225535
     3  C   -0.168044
     4  C    0.158540
     5  C   -0.168344
     6  C   -0.218267
     7  H    0.227258
     8  H    0.215610
     9  H    0.273744
    10  H    0.278624
    11  H    0.226494
    12  N    0.488464
    13  O   -0.457651
    14  O   -0.460458
    15  C   -0.170790
    16  C   -0.221158
    17  C   -0.169809
    18  C    0.159689
    19  C   -0.168505
    20  C   -0.216587
    21  H    0.224711
    22  H    0.214548
    23  H    0.275580
    24  H    0.277486
    25  H    0.225552
    26  N    0.488378
    27  O   -0.458748
    28  O   -0.460873
 Sum of Mulliken charges =  -0.00000

 Dipole moment (field-independent basis, Debye):
    X=              2.1321    Y=             -6.3920    Z=              3.1785  Tot=              7.4502
 Quadrupole moment (field-independent basis, Debye-Ang):
   XX=           -108.5884   YY=           -107.9621   ZZ=           -104.0094
   XY=            -11.6465   XZ=            -23.9427   YZ=             -0.0281

 Normal termination of Gaussian 16 at Wed May  5 16:17:59 2021.
