 Gaussian 16, Revision A.03,
 Gaussian 16:  EM64L-G16RevA.03 25-Dec-2016

 -------------
 #p 6-31g* mp2
 -------------

 ------------------------------------------------------
 Input file generated by CHIRIPA (05-May-2021 14:55:21)
 ------------------------------------------------------
 Symbolic Z-matrix:
 Charge =  0 Multiplicity = 1

                         Standard orientation:
 ---------------------------------------------------------------------
 Center     Atomic      Atomic             Coordinates (Angstroms)
 Number     Number       Type             X           Y           Z
 ---------------------------------------------------------------------
      1          6           0        3.649332   -0.040942   -1.632967
      2          6           0        2.598728   -0.930863   -1.879528
      3          6           0        1.683926   -1.246420   -0.870514
      4          6           0        1.850384   -0.651084    0.378948
      5          6           0        2.886735    0.239290    0.655537
      6          6           0        3.789735    0.540269   -0.368451
      7          1           0        4.355388    0.198528   -2.422609
      8          1           0        2.487232   -1.383744   -2.860605
      9          1           0        0.861413   -1.932082   -1.034099
     10          1           0        2.971984    0.674897    1.643665
     11          1           0        4.604687    1.231738   -0.174107
     12          7           0        0.888171   -0.977434    1.455072
     13          8           0        1.056684   -0.439563    2.547288
     14          8           0       -0.016304   -1.764919    1.185946
     15          6           0       -2.869053    0.172177   -0.637491
     16          6           0       -4.178745   -0.337620   -0.035162
     17          6           0       -4.761752   -1.522846   -0.805315
     18          1           0       -3.041951    0.461772   -1.683046
     19          1           0       -2.138669   -0.648523   -0.657156
     20          1           0       -4.905998    0.484164   -0.015366
     21          1           0       -4.002753   -0.625855    1.009138
     22          1           0       -4.057167   -2.360750   -0.814005
     23          1           0       -4.965543   -1.244425   -1.844330
     24          1           0       -5.697722   -1.871260   -0.357622
     25          6           0       -2.273906    1.356906    0.121420
     26          6           0       -0.964215    1.866702   -0.480909
     27          6           0       -0.381208    3.051928    0.289244
     28          1           0       -3.004290    2.177605    0.141085
     29          1           0       -2.101008    1.067311    1.166976
     30          1           0       -1.140207    2.154937   -1.525209
     31          1           0       -0.236962    1.044919   -0.500705
     32          1           0       -0.177417    2.773507    1.328259
     33          1           0       -1.085793    3.889833    0.297934
     34          1           0        0.554762    3.400342   -0.158449
 ---------------------------------------------------------------------

 SCF Done:  E(RHF) =  -669.535575519     A.U. after   15 cycles
 E2 =    -0.2094883983D+01 EUMP2 =    -0.67163045950253D+03

 The electronic state is 1-A.
 Alpha  occ. eigenvalues --  -20.61039 -20.61034 -15.86043 -11.31296 -11.27870
 Alpha  occ. eigenvalues --  -11.27863 -11.27605 -11.26878 -11.26868 -11.21185
 Alpha  occ. eigenvalues --  -11.20840 -11.20746 -11.20700 -11.20613 -11.20442
 Alpha  occ. eigenvalues --   -1.60087  -1.39644  -1.19494  -1.08907  -1.07792
 Alpha  occ. eigenvalues --   -1.04874  -1.02975  -0.95750  -0.95417  -0.86450
 Alpha  occ. eigenvalues --   -0.86275  -0.82584  -0.79058  -0.77686  -0.77560
 Alpha  occ. eigenvalues --   -0.72273  -0.71443  -0.70592  -0.65146  -0.64876
 Alpha  occ. eigenvalues --   -0.64372  -0.62221  -0.60387  -0.58818  -0.57044
 Alpha  occ. eigenvalues --   -0.55379  -0.54719  -0.53218  -0.52963  -0.52153
 Alpha  occ. eigenvalues --   -0.51854  -0.49364  -0.49041  -0.49021  -0.47368
 Alpha  occ. eigenvalues --   -0.46087  -0.45385  -0.45098  -0.44702  -0.43196
 Alpha  occ. eigenvalues --   -0.37390  -0.36453
 Alpha virt. eigenvalues --    0.04833   0.11108   0.16318   0.21155   0.23262
 Alpha virt. eigenvalues --    0.24702   0.26323   0.27295   0.28033   0.28417
 Alpha virt. eigenvalues --    0.28623   0.30982   0.31593   0.32228   0.32488

 Mulliken charges:
               1
     1  C   -0.170715
     2  C   -0.216107
     3  C   -0.172876
     4  C    0.155878
     5  C   -0.170553
     6  C   -0.217983
     7  H    0.226237
     8  H    0.224296
     9  H    0.275994
    10  H    0.276087
    11  H    0.224119
    12  N    0.492572
    13  O   -0.459235
    14  O   -0.460451
    15  C   -0.301445
    16  C   -0.299642
    17  C   -0.476060
    18  H    0.142278
    19  H    0.158253
    20  H    0.148156
    21  H    0.160386
    22  H    0.157401
    23  H    0.150660
    24  H    0.158876
    25  C   -0.300734
    26  C   -0.304471
    27  C   -0.477962
    28  H    0.146492
    29  H    0.161384
    30  H    0.148360
    31  H    0.150456
    32  H    0.161306
    33  H    0.154917
    34  H    0.154125
 Sum of Mulliken charges =  -0.00000

 Dipole moment (field-independent basis, Debye):
    X=              3.5434    Y=              1.0172    Z=             -3.6260  Tot=              5.1709
 Quadrupole moment (field-independent basis, Debye-Ang):
   XX=            -81.7260   YY=            -95.5838   ZZ=            -95.9059
   XY=              1.0386   XZ=             -4.5926   YZ=              4.4930

 Normal termination of Gaussian 16 at Thu May  6 12:30:36 2021.
