 Gaussian 16, Revision A.03,
 Gaussian 16:  EM64L-G16RevA.03 25-Dec-2016

 -------------
 #p 6-31g* mp2
 -------------

 ------------------------------------------------------
 Input file generated by CHIRIPA (05-May-2021 14:57:22)
 ------------------------------------------------------
 Symbolic Z-matrix:
 Charge =  0 Multiplicity = 1

                         Standard orientation:
 ---------------------------------------------------------------------
 Center     Atomic      Atomic             Coordinates (Angstroms)
 Number     Number       Type             X           Y           Z
 ---------------------------------------------------------------------
      1          6           0        1.946175   -0.904449    0.894208
      2          6           0        3.036502   -0.848836    1.768631
      3          6           0        4.298523   -0.464012    1.306287
      4          6           0        4.435002   -0.140082   -0.042688
      5          6           0        3.367994   -0.185767   -0.938621
      6          6           0        2.115103   -0.573320   -0.454250
      7          1           0        0.969353   -1.204449    1.261923
      8          1           0        2.908254   -1.105441    2.816367
      9          1           0        5.159657   -0.412378    1.961420
     10          1           0        3.526856    0.075860   -1.977723
     11          1           0        1.270127   -0.615611   -1.135625
     12          7           0        5.766214    0.268758   -0.543810
     13          8           0        5.860265    0.549219   -1.736762
     14          8           0        6.690361    0.301005    0.265850
     15          6           0       -2.186176    1.659958    0.331059
     16          6           0       -3.468667    2.205151    0.451495
     17          6           0       -4.600271    1.409741    0.248163
     18          6           0       -4.411800    0.067043   -0.075766
     19          6           0       -3.147115   -0.505391   -0.202972
     20          6           0       -2.029769    0.308809    0.004786
     21          1           0       -1.312657    2.285150    0.490731
     22          1           0       -3.593152    3.254149    0.704777
     23          1           0       -5.604684    1.806005    0.335035
     24          1           0       -3.054830   -1.554481   -0.456574
     25          1           0       -1.034982   -0.117299   -0.089413
     26          7           0       -5.602231   -0.784969   -0.293368
     27          8           0       -5.409334   -1.965020   -0.577807
     28          8           0       -6.705648   -0.256590   -0.175363
 ---------------------------------------------------------------------

 SCF Done:  E(RHF) =  -868.336489005     A.U. after   16 cycles
 E2 =    -0.2600153081D+01 EUMP2 =    -0.87093664208587D+03

 The electronic state is 1-A.
 Alpha  occ. eigenvalues --  -20.61364 -20.61358 -20.61352 -20.61342 -15.86424
 Alpha  occ. eigenvalues --  -15.86411 -11.31950 -11.31900 -11.28571 -11.28565
 Alpha  occ. eigenvalues --  -11.28510 -11.28468 -11.28390 -11.28276 -11.27694
 Alpha  occ. eigenvalues --  -11.27671 -11.27562 -11.27466  -1.60436  -1.60424
 Alpha  occ. eigenvalues --   -1.39984  -1.39974  -1.20156  -1.20105  -1.09547
 Alpha  occ. eigenvalues --   -1.09466  -1.05588  -1.05538  -0.96341  -0.96276
 Alpha  occ. eigenvalues --   -0.87046  -0.86886  -0.83163  -0.83121  -0.78211
 Alpha  occ. eigenvalues --   -0.78112  -0.72642  -0.72624  -0.71762  -0.71750
 Alpha  occ. eigenvalues --   -0.71316  -0.71185  -0.65946  -0.65765  -0.65758
 Alpha  occ. eigenvalues --   -0.65329  -0.63027  -0.62767  -0.56152  -0.55996
 Alpha  occ. eigenvalues --   -0.53930  -0.53850  -0.53760  -0.53528  -0.49417
 Alpha  occ. eigenvalues --   -0.49393  -0.49380  -0.49372  -0.45353  -0.45352
 Alpha  occ. eigenvalues --   -0.38178  -0.38076  -0.37177  -0.37152
 Alpha virt. eigenvalues --    0.04366   0.04415   0.10372   0.10450   0.15784
 Alpha virt. eigenvalues --    0.15854   0.18109   0.21960   0.24800   0.26892
 Alpha virt. eigenvalues --    0.27627   0.28710   0.29851   0.30672   0.31561

 Mulliken charges:
               1
     1  C   -0.174537
     2  C   -0.218225
     3  C   -0.169904
     4  C    0.158980
     5  C   -0.169710
     6  C   -0.223589
     7  H    0.223378
     8  H    0.226677
     9  H    0.278368
    10  H    0.278156
    11  H    0.219915
    12  N    0.487899
    13  O   -0.458634
    14  O   -0.458153
    15  C   -0.172041
    16  C   -0.218478
    17  C   -0.169300
    18  C    0.159178
    19  C   -0.171670
    20  C   -0.225617
    21  H    0.228983
    22  H    0.226604
    23  H    0.278249
    24  H    0.275616
    25  H    0.217749
    26  N    0.488077
    27  O   -0.459848
    28  O   -0.458123
 Sum of Mulliken charges =  -0.00000

 Dipole moment (field-independent basis, Debye):
    X=             -0.4507    Y=              1.6735    Z=              2.5873  Tot=              3.1141
 Quadrupole moment (field-independent basis, Debye-Ang):
   XX=           -179.7655   YY=           -101.6831   ZZ=           -101.4467
   XY=            -22.0621   XZ=              5.8077   YZ=             -0.1397

 Normal termination of Gaussian 16 at Fri May  7 04:48:57 2021.
