 Gaussian 16, Revision A.03,
 Gaussian 16:  EM64L-G16RevA.03 25-Dec-2016

 -------------
 #p 6-31g* mp2
 -------------

 ------------------------------------------------------
 Input file generated by CHIRIPA (05-May-2021 14:53:17)
 ------------------------------------------------------
 Symbolic Z-matrix:
 Charge =  0 Multiplicity = 1

                         Standard orientation:
 ---------------------------------------------------------------------
 Center     Atomic      Atomic             Coordinates (Angstroms)
 Number     Number       Type             X           Y           Z
 ---------------------------------------------------------------------
      1          6           0        3.449380   -0.488566    0.207184
      2          6           0        2.503686   -1.672602    0.411407
      3          6           0        3.225770   -2.928316    0.900865
      4          1           0        4.228510   -0.769996   -0.514411
      5          1           0        3.963634   -0.271512    1.153665
      6          1           0        1.990344   -1.886476   -0.534824
      7          1           0        1.726607   -1.388255    1.132455
      8          1           0        3.723897   -2.738230    1.857075
      9          1           0        3.989132   -3.239281    0.180323
     10          1           0        2.530952   -3.762387    1.040194
     11          6           0        2.742292    0.774153   -0.281994
     12          6           0        3.687986    1.958189   -0.486217
     13          6           0        2.965902    3.213904   -0.975675
     14          1           0        2.228038    0.557100   -1.228475
     15          1           0        1.963163    1.055583    0.439601
     16          1           0        4.465066    1.673843   -1.207265
     17          1           0        4.201329    2.172063    0.460014
     18          1           0        2.202540    3.524868   -0.255133
     19          1           0        2.467775    3.023818   -1.931885
     20          1           0        3.660720    4.047975   -1.115004
     21          6           0       -3.092591    2.148995    0.924540
     22          6           0       -1.843560    1.610718    1.251191
     23          6           0       -1.459599    0.359061    0.760806
     24          6           0       -2.353465   -0.330100   -0.057333
     25          6           0       -3.604740    0.179522   -0.400682
     26          6           0       -3.967651    1.432941    0.101098
     27          1           0       -3.382684    3.121997    1.309908
     28          1           0       -1.161939    2.164571    1.890475
     29          1           0       -0.498671   -0.081194    0.997894
     30          1           0       -4.262752   -0.396231   -1.040171
     31          1           0       -4.938297    1.848507   -0.154238
     32          7           0       -1.958125   -1.656105   -0.582513
     33          8           0       -2.763741   -2.243294   -1.301422
     34          8           0       -0.850129   -2.083133   -0.265295
 ---------------------------------------------------------------------

 SCF Done:  E(RHF) =  -669.535243822     A.U. after   15 cycles
 E2 =    -0.2092819230D+01 EUMP2 =    -0.67162806305227D+03

 The electronic state is 1-A.
 Alpha  occ. eigenvalues --  -20.60815 -20.60805 -15.85852 -11.31188 -11.27768
 Alpha  occ. eigenvalues --  -11.27737 -11.27509 -11.26777 -11.26766 -11.21662
 Alpha  occ. eigenvalues --  -11.21405 -11.21242 -11.21046 -11.20809 -11.20362
 Alpha  occ. eigenvalues --   -1.59887  -1.39441  -1.19366  -1.08769  -1.08224
 Alpha  occ. eigenvalues --   -1.04765  -1.03225  -0.95731  -0.95607  -0.86749
 Alpha  occ. eigenvalues --   -0.86166  -0.82452  -0.79340  -0.78092  -0.77366
 Alpha  occ. eigenvalues --   -0.72073  -0.71204  -0.70481  -0.65031  -0.64917
 Alpha  occ. eigenvalues --   -0.64729  -0.62117  -0.60629  -0.59111  -0.57284
 Alpha  occ. eigenvalues --   -0.55276  -0.55050  -0.53096  -0.52874  -0.52387
 Alpha  occ. eigenvalues --   -0.52143  -0.49707  -0.48883  -0.48842  -0.47590
 Alpha  occ. eigenvalues --   -0.46409  -0.45518  -0.45439  -0.44733  -0.43507
 Alpha  occ. eigenvalues --   -0.37348  -0.36359
 Alpha virt. eigenvalues --    0.05009   0.11274   0.16468   0.20115   0.23135
 Alpha virt. eigenvalues --    0.24169   0.25002   0.27253   0.27792   0.28134
 Alpha virt. eigenvalues --    0.29644   0.30552   0.31622   0.31939   0.32469

 Mulliken charges:
               1
     1  C   -0.299645
     2  C   -0.299682
     3  C   -0.476921
     4  H    0.150046
     5  H    0.145424
     6  H    0.170955
     7  H    0.146764
     8  H    0.149094
     9  H    0.153042
    10  H    0.167818
    11  C   -0.296437
    12  C   -0.299419
    13  C   -0.474588
    14  H    0.154158
    15  H    0.136044
    16  H    0.154325
    17  H    0.150844
    18  H    0.149284
    19  H    0.156779
    20  H    0.160436
    21  C   -0.170111
    22  C   -0.222000
    23  C   -0.173563
    24  C    0.154746
    25  C   -0.169856
    26  C   -0.219133
    27  H    0.225691
    28  H    0.223484
    29  H    0.286708
    30  H    0.275527
    31  H    0.223438
    32  N    0.490756
    33  O   -0.460285
    34  O   -0.463724
 Sum of Mulliken charges =  -0.00000

 Dipole moment (field-independent basis, Debye):
    X=             -1.4653    Y=              4.4996    Z=              1.7079  Tot=              5.0309
 Quadrupole moment (field-independent basis, Debye-Ang):
   XX=            -84.9633   YY=            -99.2474   ZZ=            -93.7571
   XY=            -10.2491   XZ=             -2.6127   YZ=              0.1026

 Normal termination of Gaussian 16 at Wed May  5 15:44:09 2021.
