 Gaussian 16, Revision A.03,
 Gaussian 16:  EM64L-G16RevA.03 25-Dec-2016

 -------------
 #p 6-31g* mp2
 -------------

 ------------------------------------------------------
 Input file generated by CHIRIPA (05-May-2021 14:53:13)
 ------------------------------------------------------
 Symbolic Z-matrix:
 Charge =  0 Multiplicity = 1

                         Standard orientation:
 ---------------------------------------------------------------------
 Center     Atomic      Atomic             Coordinates (Angstroms)
 Number     Number       Type             X           Y           Z
 ---------------------------------------------------------------------
      1          6           0       -2.707324   -0.649499    0.749044
      2          6           0       -1.551038   -1.489290    0.205226
      3          6           0       -0.405168   -1.636479    1.206780
      4          1           0       -2.331177    0.344659    1.026729
      5          1           0       -3.083462   -1.110609    1.672783
      6          1           0       -1.178097   -1.027492   -0.717961
      7          1           0       -1.930019   -2.481500   -0.071375
      8          1           0       -0.755895   -2.117843    2.125409
      9          1           0        0.000299   -0.655574    1.475150
     10          1           0        0.410691   -2.240398    0.797492
     11          6           0       -3.860472   -0.493290   -0.240691
     12          6           0       -5.016759    0.346500    0.303127
     13          6           0       -6.162629    0.493690   -0.698427
     14          1           0       -3.484335   -0.032180   -1.164430
     15          1           0       -4.236620   -1.487448   -0.518376
     16          1           0       -4.637777    1.338710    0.579728
     17          1           0       -5.389699   -0.115298    1.226314
     18          1           0       -6.568096   -0.487216   -0.966797
     19          1           0       -5.811901    0.975054   -1.617056
     20          1           0       -6.978488    1.097608   -0.289139
     21          6           0        4.357326   -1.327028   -0.300510
     22          6           0        4.516638   -0.218327    0.537297
     23          6           0        3.530344    0.770415    0.601799
     24          6           0        2.392323    0.617851   -0.188721
     25          6           0        2.204491   -0.475172   -1.033297
     26          6           0        3.203795   -1.451692   -1.081756
     27          1           0        5.128556   -2.090359   -0.344386
     28          1           0        5.411443   -0.118888    1.145147
     29          1           0        3.627997    1.638974    1.241712
     30          1           0        1.301521   -0.546661   -1.627395
     31          1           0        3.077379   -2.311652   -1.733319
     32          7           0        1.341291    1.658119   -0.128927
     33          8           0        0.347967    1.500375   -0.835370
     34          8           0        1.530718    2.611525    0.623250
 ---------------------------------------------------------------------

 SCF Done:  E(RHF) =  -669.535310958     A.U. after   15 cycles
 E2 =    -0.2094073805D+01 EUMP2 =    -0.67162938476390D+03

 The electronic state is 1-A.
 Alpha  occ. eigenvalues --  -20.60965 -20.60957 -15.85982 -11.31229 -11.27828
 Alpha  occ. eigenvalues --  -11.27813 -11.27564 -11.26814 -11.26804 -11.21080
 Alpha  occ. eigenvalues --  -11.20941 -11.20768 -11.20691 -11.20619 -11.20511
 Alpha  occ. eigenvalues --   -1.60023  -1.39580  -1.19428  -1.08842  -1.07778
 Alpha  occ. eigenvalues --   -1.04824  -1.02989  -0.95699  -0.95444  -0.86481
 Alpha  occ. eigenvalues --   -0.86213  -0.82530  -0.79060  -0.77650  -0.77527
 Alpha  occ. eigenvalues --   -0.72217  -0.71364  -0.70549  -0.65097  -0.64842
 Alpha  occ. eigenvalues --   -0.64351  -0.62190  -0.60355  -0.58849  -0.57077
 Alpha  occ. eigenvalues --   -0.55335  -0.54766  -0.53181  -0.52910  -0.52103
 Alpha  occ. eigenvalues --   -0.51884  -0.49378  -0.48986  -0.48962  -0.47386
 Alpha  occ. eigenvalues --   -0.46050  -0.45222  -0.45006  -0.44880  -0.43212
 Alpha  occ. eigenvalues --   -0.37377  -0.36373
 Alpha virt. eigenvalues --    0.04894   0.11197   0.16362   0.21004   0.23478
 Alpha virt. eigenvalues --    0.24523   0.26358   0.27378   0.27805   0.28396
 Alpha virt. eigenvalues --    0.28994   0.30380   0.31590   0.31842   0.32178

 Mulliken charges:
               1
     1  C   -0.298699
     2  C   -0.303880
     3  C   -0.477297
     4  H    0.162383
     5  H    0.145010
     6  H    0.159543
     7  H    0.145887
     8  H    0.154279
     9  H    0.154498
    10  H    0.153433
    11  C   -0.299015
    12  C   -0.300083
    13  C   -0.475588
    14  H    0.155008
    15  H    0.144683
    16  H    0.156563
    17  H    0.149239
    18  H    0.152570
    19  H    0.156271
    20  H    0.158852
    21  C   -0.169914
    22  C   -0.218707
    23  C   -0.170872
    24  C    0.156863
    25  C   -0.166057
    26  C   -0.220846
    27  H    0.225977
    28  H    0.223655
    29  H    0.275713
    30  H    0.277621
    31  H    0.223915
    32  N    0.489702
    33  O   -0.461718
    34  O   -0.458986
 Sum of Mulliken charges =  -0.00000

 Dipole moment (field-independent basis, Debye):
    X=              3.8353    Y=             -3.4731    Z=             -0.2510  Tot=              5.1802
 Quadrupole moment (field-independent basis, Debye-Ang):
   XX=            -76.9831   YY=            -98.1991   ZZ=            -93.2285
   XY=             -4.9385   XZ=              0.2240   YZ=              2.5206

 Normal termination of Gaussian 16 at Thu May  6 15:23:22 2021.
