 Gaussian 16, Revision A.03,
 Gaussian 16:  EM64L-G16RevA.03 25-Dec-2016

 -------------
 #p 6-31g* mp2
 -------------

 ------------------------------------------------------
 Input file generated by CHIRIPA (05-May-2021 14:51:13)
 ------------------------------------------------------
 Symbolic Z-matrix:
 Charge =  0 Multiplicity = 1

                         Standard orientation:
 ---------------------------------------------------------------------
 Center     Atomic      Atomic             Coordinates (Angstroms)
 Number     Number       Type             X           Y           Z
 ---------------------------------------------------------------------
      1          6           0        2.612458    0.793703   -0.016050
      2          6           0        2.505818    2.119244   -0.770739
      3          6           0        1.633427    3.144071   -0.045165
      4          1           0        1.605064    0.380945    0.131375
      5          1           0        3.022733    0.982119    0.985732
      6          1           0        2.097159    1.928203   -1.771298
      7          1           0        3.513597    2.528800   -0.916553
      8          1           0        2.041347    3.363782    0.946767
      9          1           0        0.616861    2.759773    0.087165
     10          1           0        1.570914    4.084147   -0.602128
     11          6           0        3.481341   -0.241041   -0.728843
     12          6           0        3.587981   -1.566582    0.025845
     13          6           0        4.460372   -2.591409   -0.699728
     14          1           0        3.071066   -0.429457   -1.730626
     15          1           0        4.488735    0.171717   -0.876268
     16          1           0        2.580202   -1.976138    0.171659
     17          1           0        3.996640   -1.375542    1.026404
     18          1           0        5.476938   -2.207111   -0.832059
     19          1           0        4.052452   -2.811120   -1.691660
     20          1           0        4.522885   -3.531485   -0.142766
     21          6           0       -2.652688   -0.557277    0.963292
     22          6           0       -1.391469    0.244351    1.286871
     23          6           0       -0.613556   -0.330047    2.471234
     24          1           0       -3.299993   -0.584299    1.850543
     25          1           0       -2.372406   -1.597920    0.749053
     26          1           0       -1.673903    1.283491    1.499083
     27          1           0       -0.747179    0.269630    0.398687
     28          1           0       -0.303480   -1.359680    2.265544
     29          1           0       -1.235468   -0.340058    3.372192
     30          1           0        0.284178    0.258298    2.685204
     31          6           0       -3.441111    0.004615   -0.218399
     32          6           0       -4.702330   -0.797013   -0.541977
     33          6           0       -5.480243   -0.222616   -1.726340
     34          1           0       -3.721393    1.045258   -0.004160
     35          1           0       -2.793807    0.031637   -1.105650
     36          1           0       -5.346620   -0.822292    0.346206
     37          1           0       -4.419896   -1.836153   -0.754190
     38          1           0       -4.858331   -0.212604   -2.627298
     39          1           0       -5.790319    0.807018   -1.520651
     40          1           0       -6.377977   -0.810960   -1.940311
 ---------------------------------------------------------------------

 SCF Done:  E(RHF) =  -470.733051543     A.U. after   11 cycles
 E2 =    -0.1583756511D+01 EUMP2 =    -0.47231680805479D+03

 The electronic state is 1-A.
 Alpha  occ. eigenvalues --  -11.21646 -11.21631 -11.21599 -11.21578 -11.21444
 Alpha  occ. eigenvalues --  -11.21385 -11.21383 -11.21311 -11.21094 -11.21073
 Alpha  occ. eigenvalues --  -11.21063 -11.21018  -1.08483  -1.08405  -1.03578
 Alpha  occ. eigenvalues --   -1.03499  -0.96009  -0.95955  -0.87024  -0.86972
 Alpha  occ. eigenvalues --   -0.79676  -0.79539  -0.78357  -0.78165  -0.65221
 Alpha  occ. eigenvalues --   -0.64955  -0.61031  -0.60862  -0.59448  -0.59254
 Alpha  occ. eigenvalues --   -0.57629  -0.57556  -0.55345  -0.55201  -0.52709
 Alpha  occ. eigenvalues --   -0.52644  -0.52468  -0.52339  -0.49974  -0.49885
 Alpha  occ. eigenvalues --   -0.48034  -0.47841  -0.46810  -0.46541  -0.46028
 Alpha  occ. eigenvalues --   -0.45770  -0.45735  -0.45323  -0.43809  -0.43766
 Alpha virt. eigenvalues --    0.20708   0.23203   0.23599   0.24441   0.25975
 Alpha virt. eigenvalues --    0.26449   0.26822   0.27475   0.28162   0.29681
 Alpha virt. eigenvalues --    0.30376   0.31228   0.31641   0.31852   0.32019

 Mulliken charges:
               1
     1  C   -0.308038
     2  C   -0.298930
     3  C   -0.479893
     4  H    0.160301
     5  H    0.149121
     6  H    0.151211
     7  H    0.151825
     8  H    0.154575
     9  H    0.160003
    10  H    0.159992
    11  C   -0.297741
    12  C   -0.299607
    13  C   -0.475700
    14  H    0.148947
    15  H    0.149670
    16  H    0.151536
    17  H    0.152206
    18  H    0.155274
    19  H    0.154982
    20  H    0.160238
    21  C   -0.297612
    22  C   -0.306272
    23  C   -0.477279
    24  H    0.150011
    25  H    0.149363
    26  H    0.152966
    27  H    0.155307
    28  H    0.154914
    29  H    0.155305
    30  H    0.163330
    31  C   -0.298464
    32  C   -0.299654
    33  C   -0.475738
    34  H    0.149750
    35  H    0.149254
    36  H    0.152115
    37  H    0.151927
    38  H    0.155130
    39  H    0.155306
    40  H    0.160371
 Sum of Mulliken charges =  -0.00000

 Dipole moment (field-independent basis, Debye):
    X=             -0.0257    Y=             -0.0039    Z=              0.0222  Tot=              0.0342
 Quadrupole moment (field-independent basis, Debye-Ang):
   XX=            -84.6575   YY=            -85.1903   ZZ=            -84.9690
   XY=              0.6313   XZ=             -0.2352   YZ=              0.4815

 Normal termination of Gaussian 16 at Thu May  6 02:24:05 2021.
