 Gaussian 16, Revision A.03,
 Gaussian 16:  EM64L-G16RevA.03 25-Dec-2016

 -------------
 #p 6-31g* mp2
 -------------

 ------------------------------------------------------
 Input file generated by CHIRIPA (05-May-2021 14:51:13)
 ------------------------------------------------------
 Symbolic Z-matrix:
 Charge =  0 Multiplicity = 1

                         Standard orientation:
 ---------------------------------------------------------------------
 Center     Atomic      Atomic             Coordinates (Angstroms)
 Number     Number       Type             X           Y           Z
 ---------------------------------------------------------------------
      1          6           0        3.925285    0.569205    0.330957
      2          6           0        4.515097    1.307851   -0.870920
      3          6           0        5.267990    2.577755   -0.473062
      4          1           0        3.248197    1.244310    0.872002
      5          1           0        4.734754    0.313313    1.028577
      6          1           0        3.704937    1.561055   -1.566726
      7          1           0        5.190712    0.630849   -1.409277
      8          1           0        6.095344    2.339229    0.203098
      9          1           0        4.601127    3.274720    0.044754
     10          1           0        5.681357    3.090002   -1.347471
     11          6           0        3.169597   -0.702416   -0.050677
     12          6           0        2.579785   -1.441063    1.151200
     13          6           0        1.826892   -2.710967    0.753342
     14          1           0        2.360128   -0.446525   -0.748297
     15          1           0        3.846685   -1.377522   -0.591722
     16          1           0        1.904171   -0.764060    1.689557
     17          1           0        3.389945   -1.694266    1.847005
     18          1           0        2.493755   -3.407932    0.235526
     19          1           0        0.999539   -2.472441    0.077182
     20          1           0        1.413526   -3.223213    1.627751
     21          6           0       -4.063663    0.617529   -0.256027
     22          6           0       -3.870497    1.830725    0.654373
     23          6           0       -4.910870    2.924344    0.410623
     24          1           0       -4.017198    0.942695   -1.304385
     25          1           0       -5.071212    0.207683   -0.100253
     26          1           0       -2.863116    2.237328    0.497933
     27          1           0       -3.917237    1.502604    1.700684
     28          1           0       -5.921223    2.540845    0.585888
     29          1           0       -4.861112    3.279743   -0.623697
     30          1           0       -4.754123    3.782162    1.072014
     31          6           0       -3.031220   -0.484318   -0.024253
     32          6           0       -3.224385   -1.697514   -0.934653
     33          6           0       -2.184012   -2.791133   -0.690902
     34          1           0       -2.023670   -0.074470   -0.180027
     35          1           0       -3.077684   -0.809483    1.024105
     36          1           0       -3.177646   -1.369393   -1.980964
     37          1           0       -4.231766   -2.104117   -0.778213
     38          1           0       -2.233769   -3.146532    0.343417
     39          1           0       -1.173660   -2.407633   -0.866168
     40          1           0       -2.340760   -3.648950   -1.352295
 ---------------------------------------------------------------------

 SCF Done:  E(RHF) =  -470.733201223     A.U. after   11 cycles
 E2 =    -0.1582413484D+01 EUMP2 =    -0.47231561470703D+03

 The electronic state is 1-A.
 Alpha  occ. eigenvalues --  -11.21628 -11.21617 -11.21606 -11.21567 -11.21433
 Alpha  occ. eigenvalues --  -11.21402 -11.21373 -11.21343 -11.21092 -11.21075
 Alpha  occ. eigenvalues --  -11.21067 -11.20987  -1.08455  -1.08420  -1.03556
 Alpha  occ. eigenvalues --   -1.03505  -0.96019  -0.95940  -0.87054  -0.86939
 Alpha  occ. eigenvalues --   -0.79653  -0.79534  -0.78274  -0.78228  -0.65104
 Alpha  occ. eigenvalues --   -0.65038  -0.61024  -0.60851  -0.59366  -0.59326
 Alpha  occ. eigenvalues --   -0.57668  -0.57530  -0.55419  -0.55138  -0.52700
 Alpha  occ. eigenvalues --   -0.52657  -0.52527  -0.52274  -0.50088  -0.49762
 Alpha  occ. eigenvalues --   -0.48025  -0.47790  -0.46729  -0.46503  -0.45847
 Alpha  occ. eigenvalues --   -0.45764  -0.45737  -0.45624  -0.43806  -0.43768
 Alpha virt. eigenvalues --    0.21710   0.23118   0.23533   0.24890   0.25877
 Alpha virt. eigenvalues --    0.26846   0.26973   0.27625   0.27713   0.29049
 Alpha virt. eigenvalues --    0.30141   0.31487   0.31814   0.31935   0.32116

 Mulliken charges:
               1
     1  C   -0.298287
     2  C   -0.299612
     3  C   -0.475699
     4  H    0.149603
     5  H    0.149651
     6  H    0.151673
     7  H    0.151988
     8  H    0.155244
     9  H    0.155147
    10  H    0.160228
    11  C   -0.298034
    12  C   -0.299541
    13  C   -0.481162
    14  H    0.148380
    15  H    0.149759
    16  H    0.151967
    17  H    0.151746
    18  H    0.154810
    19  H    0.161295
    20  H    0.160237
    21  C   -0.298298
    22  C   -0.299624
    23  C   -0.475721
    24  H    0.149653
    25  H    0.149718
    26  H    0.151642
    27  H    0.152017
    28  H    0.155284
    29  H    0.155202
    30  H    0.160296
    31  C   -0.298026
    32  C   -0.299644
    33  C   -0.479934
    34  H    0.148495
    35  H    0.149887
    36  H    0.151798
    37  H    0.152063
    38  H    0.155928
    39  H    0.159221
    40  H    0.160648
 Sum of Mulliken charges =  -0.00000

 Dipole moment (field-independent basis, Debye):
    X=             -0.0215    Y=             -0.0167    Z=              0.0022  Tot=              0.0273
 Quadrupole moment (field-independent basis, Debye-Ang):
   XX=            -84.4424   YY=            -85.9423   ZZ=            -84.3180
   XY=             -0.1209   XZ=             -0.4850   YZ=             -0.4191

 Normal termination of Gaussian 16 at Wed May  5 16:51:33 2021.
