 Gaussian 16, Revision A.03,
 Gaussian 16:  EM64L-G16RevA.03 25-Dec-2016

 -------------
 #p 6-31g* mp2
 -------------

 ------------------------------------------------------
 Input file generated by CHIRIPA (05-May-2021 14:55:24)
 ------------------------------------------------------
 Symbolic Z-matrix:
 Charge =  0 Multiplicity = 1

                         Standard orientation:
 ---------------------------------------------------------------------
 Center     Atomic      Atomic             Coordinates (Angstroms)
 Number     Number       Type             X           Y           Z
 ---------------------------------------------------------------------
      1          6           0        3.865010   -1.435148    1.012603
      2          6           0        2.993808   -0.799600    1.903449
      3          6           0        2.183512    0.255331    1.473231
      4          6           0        2.270401    0.650716    0.139285
      5          6           0        3.128373    0.037469   -0.772362
      6          6           0        3.929398   -1.015325   -0.320110
      7          1           0        4.490867   -2.253813    1.355365
      8          1           0        2.941700   -1.123523    2.939019
      9          1           0        1.500208    0.764966    2.141652
     10          1           0        3.158158    0.382683   -1.798694
     11          1           0        4.605058   -1.507053   -1.014180
     12          7           0        1.417484    1.766393   -0.327831
     13          8           0        1.512741    2.095890   -1.508082
     14          8           0        0.669860    2.290238    0.495141
     15          6           0       -3.647792   -0.081956   -0.231764
     16          6           0       -4.697543   -0.419943    0.827373
     17          6           0       -5.814850    0.620877    0.905539
     18          1           0       -3.217295    0.904291   -0.010553
     19          1           0       -4.139261    0.003979   -1.210778
     20          1           0       -4.204026   -0.506579    1.803872
     21          1           0       -5.125453   -1.405585    0.603722
     22          1           0       -6.333342    0.702358   -0.055256
     23          1           0       -5.406681    1.606473    1.151713
     24          1           0       -6.554261    0.359555    1.668980
     25          6           0       -2.524296   -1.113152   -0.321891
     26          6           0       -1.474545   -0.775164   -1.381028
     27          6           0       -0.357238   -1.815985   -1.459195
     28          1           0       -2.032827   -1.199087    0.657122
     29          1           0       -2.954792   -2.099399   -0.543103
     30          1           0       -1.046634    0.210478   -1.157378
     31          1           0       -1.968061   -0.688529   -2.357528
     32          1           0       -0.765408   -2.801581   -1.705368
     33          1           0        0.161255   -1.897465   -0.498400
     34          1           0        0.382173   -1.554663   -2.222635
 ---------------------------------------------------------------------

 SCF Done:  E(RHF) =  -669.535840262     A.U. after   15 cycles
 E2 =    -0.2093005699D+01 EUMP2 =    -0.67162884596083D+03

 The electronic state is 1-A.
 Alpha  occ. eigenvalues --  -20.60891 -20.60880 -15.85924 -11.31248 -11.27833
 Alpha  occ. eigenvalues --  -11.27811 -11.27563 -11.26843 -11.26818 -11.21175
 Alpha  occ. eigenvalues --  -11.21096 -11.20956 -11.20810 -11.20797 -11.20642
 Alpha  occ. eigenvalues --   -1.59964  -1.39515  -1.19429  -1.08831  -1.07962
 Alpha  occ. eigenvalues --   -1.04827  -1.03116  -0.95675  -0.95578  -0.86599
 Alpha  occ. eigenvalues --   -0.86225  -0.82506  -0.79166  -0.77760  -0.77559
 Alpha  occ. eigenvalues --   -0.72147  -0.71313  -0.70538  -0.65083  -0.64830
 Alpha  occ. eigenvalues --   -0.64582  -0.62177  -0.60517  -0.58946  -0.57180
 Alpha  occ. eigenvalues --   -0.55331  -0.54928  -0.53144  -0.52920  -0.52269
 Alpha  occ. eigenvalues --   -0.51998  -0.49494  -0.48911  -0.48907  -0.47482
 Alpha  occ. eigenvalues --   -0.46177  -0.45309  -0.45211  -0.44921  -0.43358
 Alpha  occ. eigenvalues --   -0.37387  -0.36413
 Alpha virt. eigenvalues --    0.04945   0.11192   0.16445   0.21309   0.23155
 Alpha virt. eigenvalues --    0.24458   0.26998   0.27174   0.27893   0.28249
 Alpha virt. eigenvalues --    0.28376   0.30897   0.31438   0.31802   0.32300

 Mulliken charges:
               1
     1  C   -0.170474
     2  C   -0.218675
     3  C   -0.172565
     4  C    0.160132
     5  C   -0.169208
     6  C   -0.218050
     7  H    0.226052
     8  H    0.223793
     9  H    0.275523
    10  H    0.275624
    11  H    0.223863
    12  N    0.487919
    13  O   -0.459065
    14  O   -0.460908
    15  C   -0.300731
    16  C   -0.298983
    17  C   -0.475818
    18  H    0.159865
    19  H    0.149021
    20  H    0.150022
    21  H    0.149412
    22  H    0.154896
    23  H    0.157836
    24  H    0.158010
    25  C   -0.296303
    26  C   -0.305109
    27  C   -0.478904
    28  H    0.145731
    29  H    0.146502
    30  H    0.162924
    31  H    0.153280
    32  H    0.152662
    33  H    0.153645
    34  H    0.158082
 Sum of Mulliken charges =  -0.00000

 Dipole moment (field-independent basis, Debye):
    X=              3.1062    Y=             -3.7988    Z=              1.6274  Tot=              5.1699
 Quadrupole moment (field-independent basis, Debye-Ang):
   XX=            -81.5176   YY=           -100.9800   ZZ=            -89.7511
   XY=             -6.8909   XZ=              2.8256   YZ=              1.0988

 Normal termination of Gaussian 16 at Thu May  6 09:29:50 2021.
