 Gaussian 16, Revision A.03,
 Gaussian 16:  EM64L-G16RevA.03 25-Dec-2016

 -------------
 #p 6-31g* mp2
 -------------

 ------------------------------------------------------
 Input file generated by CHIRIPA (05-May-2021 14:53:13)
 ------------------------------------------------------
 Symbolic Z-matrix:
 Charge =  0 Multiplicity = 1

                         Standard orientation:
 ---------------------------------------------------------------------
 Center     Atomic      Atomic             Coordinates (Angstroms)
 Number     Number       Type             X           Y           Z
 ---------------------------------------------------------------------
      1          6           0       -2.937662   -0.665338   -0.202470
      2          6           0       -4.049147   -1.616960    0.241377
      3          6           0       -3.817896   -3.054532   -0.225210
      4          1           0       -2.859483   -0.688671   -1.298047
      5          1           0       -1.976500   -1.028188    0.187278
      6          1           0       -5.008112   -1.251666   -0.147933
      7          1           0       -4.124817   -1.591216    1.336013
      8          1           0       -2.875452   -3.442454    0.174687
      9          1           0       -3.763766   -3.100975   -1.317691
     10          1           0       -4.624273   -3.717772    0.103013
     11          6           0       -3.154654    0.775528    0.256383
     12          6           0       -2.043168    1.727150   -0.187464
     13          6           0       -2.274420    3.164722    0.279123
     14          1           0       -4.115815    1.138377   -0.133365
     15          1           0       -3.232832    0.798860    1.351960
     16          1           0       -1.967499    1.701405   -1.282100
     17          1           0       -1.084204    1.361855    0.201846
     18          1           0       -2.328550    3.211165    1.371604
     19          1           0       -3.216863    3.552644   -0.120774
     20          1           0       -1.468043    3.827961   -0.049100
     21          6           0        3.067793   -2.457144    0.233340
     22          6           0        2.832757   -1.926648   -1.039394
     23          6           0        2.451119   -0.590410   -1.192267
     24          6           0        2.313300    0.190344   -0.045654
     25          6           0        2.540320   -0.309112    1.235867
     26          6           0        2.921082   -1.648109    1.364914
     27          1           0        3.363918   -3.496238    0.342840
     28          1           0        2.945922   -2.552614   -1.919965
     29          1           0        2.262853   -0.154049   -2.165694
     30          1           0        2.419373    0.339547    2.094955
     31          1           0        3.102953   -2.057409    2.354581
     32          7           0        1.909739    1.606420   -0.194881
     33          8           0        1.795192    2.273441    0.831081
     34          8           0        1.715618    2.022504   -1.334981
 ---------------------------------------------------------------------

 SCF Done:  E(RHF) =  -669.536001672     A.U. after   15 cycles
 E2 =    -0.2091835286D+01 EUMP2 =    -0.67162783695837D+03

 The electronic state is 1-A.
 Alpha  occ. eigenvalues --  -20.60871 -20.60862 -15.85896 -11.31253 -11.27821
 Alpha  occ. eigenvalues --  -11.27812 -11.27557 -11.26829 -11.26816 -11.21433
 Alpha  occ. eigenvalues --  -11.21090 -11.21041 -11.20845 -11.20748 -11.19981
 Alpha  occ. eigenvalues --   -1.59933  -1.39486  -1.19422  -1.08821  -1.07987
 Alpha  occ. eigenvalues --   -1.04820  -1.03003  -0.95660  -0.95457  -0.86484
 Alpha  occ. eigenvalues --   -0.86219  -0.82491  -0.79119  -0.77766  -0.77541
 Alpha  occ. eigenvalues --   -0.72122  -0.71260  -0.70529  -0.65075  -0.64823
 Alpha  occ. eigenvalues --   -0.64625  -0.62167  -0.60406  -0.58868  -0.57026
 Alpha  occ. eigenvalues --   -0.55323  -0.54770  -0.53150  -0.52912  -0.52119
 Alpha  occ. eigenvalues --   -0.51889  -0.49439  -0.48881  -0.48881  -0.47411
 Alpha  occ. eigenvalues --   -0.46181  -0.45303  -0.45257  -0.44827  -0.43259
 Alpha  occ. eigenvalues --   -0.37401  -0.36421
 Alpha virt. eigenvalues --    0.04981   0.11230   0.16451   0.21366   0.23211
 Alpha virt. eigenvalues --    0.24821   0.26901   0.27285   0.27698   0.28301
 Alpha virt. eigenvalues --    0.28550   0.30830   0.31749   0.32099   0.32495

 Mulliken charges:
               1
     1  C   -0.297502
     2  C   -0.298972
     3  C   -0.475095
     4  H    0.148742
     5  H    0.146366
     6  H    0.152378
     7  H    0.151204
     8  H    0.152353
     9  H    0.154415
    10  H    0.159390
    11  C   -0.298334
    12  C   -0.297131
    13  C   -0.475985
    14  H    0.148334
    15  H    0.147958
    16  H    0.153931
    17  H    0.148790
    18  H    0.152555
    19  H    0.149022
    20  H    0.175095
    21  C   -0.170651
    22  C   -0.218493
    23  C   -0.170212
    24  C    0.156667
    25  C   -0.171683
    26  C   -0.218702
    27  H    0.225914
    28  H    0.223824
    29  H    0.275948
    30  H    0.275774
    31  H    0.223635
    32  N    0.489043
    33  O   -0.459952
    34  O   -0.458625
 Sum of Mulliken charges =  -0.00000

 Dipole moment (field-independent basis, Debye):
    X=              1.5745    Y=             -4.8614    Z=              0.4808  Tot=              5.1326
 Quadrupole moment (field-independent basis, Debye-Ang):
   XX=            -89.2284   YY=            -98.1353   ZZ=            -89.1823
   XY=            -11.6883   XZ=              1.8835   YZ=              0.4545

 Normal termination of Gaussian 16 at Thu May  6 18:43:47 2021.
