 Gaussian 16, Revision A.03,
 Gaussian 16:  EM64L-G16RevA.03 25-Dec-2016

 -------------
 #p 6-31g* mp2
 -------------

 ------------------------------------------------------
 Input file generated by CHIRIPA (05-May-2021 14:55:24)
 ------------------------------------------------------
 Symbolic Z-matrix:
 Charge =  0 Multiplicity = 1

                         Standard orientation:
 ---------------------------------------------------------------------
 Center     Atomic      Atomic             Coordinates (Angstroms)
 Number     Number       Type             X           Y           Z
 ---------------------------------------------------------------------
      1          6           0       -3.721121    2.515645    0.002150
      2          6           0       -2.573239    1.871729   -0.471410
      3          6           0       -2.508262    0.475808   -0.512989
      4          6           0       -3.614499   -0.248326   -0.071222
      5          6           0       -4.772294    0.364075    0.406025
      6          6           0       -4.815057    1.761093    0.438587
      7          1           0       -3.762968    3.600456    0.030947
      8          1           0       -1.722164    2.455167   -0.810994
      9          1           0       -1.632079   -0.048409   -0.874815
     10          1           0       -5.604781   -0.244466    0.737781
     11          1           0       -5.707825    2.258471    0.806861
     12          7           0       -3.557470   -1.726706   -0.110466
     13          8           0       -4.545496   -2.341923    0.284437
     14          8           0       -2.525823   -2.242250   -0.535386
     15          6           0        5.294307    0.339083   -0.123291
     16          6           0        6.533919   -0.455614    0.288783
     17          6           0        7.837962    0.223590   -0.130675
     18          1           0        5.302185    0.479707   -1.212836
     19          1           0        5.345875    1.342416    0.321748
     20          1           0        6.479351   -1.457617   -0.155772
     21          1           0        6.522990   -0.594528    1.377451
     22          1           0        7.919006    1.216125    0.324195
     23          1           0        7.875119    0.348132   -1.217740
     24          1           0        8.711359   -0.361491    0.173823
     25          6           0        3.982873   -0.327125    0.289060
     26          6           0        2.743261    0.467573   -0.123013
     27          6           0        1.439217   -0.211631    0.296444
     28          1           0        3.931305   -1.330457   -0.155979
     29          1           0        3.974994   -0.467749    1.378605
     30          1           0        2.754190    0.606486   -1.211681
     31          1           0        2.797829    1.469575    0.321541
     32          1           0        1.402060   -0.336174    1.383509
     33          1           0        1.358174   -1.204167   -0.158425
     34          1           0        0.565821    0.373449   -0.008054
 ---------------------------------------------------------------------

 SCF Done:  E(RHF) =  -669.535334651     A.U. after   15 cycles
 E2 =    -0.2091165259D+01 EUMP2 =    -0.67162649990989D+03

 The electronic state is 1-A.
 Alpha  occ. eigenvalues --  -20.60727 -20.60720 -15.85779 -11.31145 -11.27733
 Alpha  occ. eigenvalues --  -11.27691 -11.27481 -11.26751 -11.26740 -11.21853
 Alpha  occ. eigenvalues --  -11.21661 -11.21524 -11.21463 -11.21337 -11.21129
 Alpha  occ. eigenvalues --   -1.59800  -1.39353  -1.19330  -1.08724  -1.08566
 Alpha  occ. eigenvalues --   -1.04739  -1.03685  -0.96136  -0.95555  -0.87154
 Alpha  occ. eigenvalues --   -0.86130  -0.82392  -0.79748  -0.78368  -0.77434
 Alpha  occ. eigenvalues --   -0.71999  -0.71122  -0.70449  -0.65190  -0.64986
 Alpha  occ. eigenvalues --   -0.64748  -0.62141  -0.61068  -0.59509  -0.57748
 Alpha  occ. eigenvalues --   -0.55396  -0.55241  -0.53150  -0.52970  -0.52638
 Alpha  occ. eigenvalues --   -0.52518  -0.50044  -0.48758  -0.48751  -0.48060
 Alpha  occ. eigenvalues --   -0.46765  -0.45911  -0.45827  -0.44758  -0.43946
 Alpha  occ. eigenvalues --   -0.37314  -0.36326
 Alpha virt. eigenvalues --    0.05074   0.11303   0.16524   0.20632   0.22820
 Alpha virt. eigenvalues --    0.24011   0.26235   0.26550   0.27347   0.27960
 Alpha virt. eigenvalues --    0.29000   0.30498   0.31347   0.31716   0.32251

 Mulliken charges:
               1
     1  C   -0.170691
     2  C   -0.220121
     3  C   -0.173033
     4  C    0.157978
     5  C   -0.170809
     6  C   -0.218721
     7  H    0.225481
     8  H    0.223466
     9  H    0.280753
    10  H    0.275513
    11  H    0.223336
    12  N    0.488028
    13  O   -0.460741
    14  O   -0.460115
    15  C   -0.298340
    16  C   -0.299922
    17  C   -0.475783
    18  H    0.149521
    19  H    0.148559
    20  H    0.153212
    21  H    0.152389
    22  H    0.154672
    23  H    0.155172
    24  H    0.160892
    25  C   -0.299031
    26  C   -0.300140
    27  C   -0.477434
    28  H    0.152584
    29  H    0.150805
    30  H    0.150730
    31  H    0.149515
    32  H    0.159338
    33  H    0.166073
    34  H    0.146863
 Sum of Mulliken charges =  -0.00000

 Dipole moment (field-independent basis, Debye):
    X=             -0.1239    Y=              5.1192    Z=              0.1694  Tot=              5.1235
 Quadrupole moment (field-independent basis, Debye-Ang):
   XX=            -89.9155   YY=            -97.8462   ZZ=            -94.1033
   XY=            -19.3544   XZ=             -2.2295   YZ=              0.0391

 Normal termination of Gaussian 16 at Thu May  6 07:56:40 2021.
