 Gaussian 16, Revision A.03,
 Gaussian 16:  EM64L-G16RevA.03 25-Dec-2016

 -------------
 #p 6-31g* mp2
 -------------

 ------------------------------------------------------
 Input file generated by CHIRIPA (05-May-2021 14:51:12)
 ------------------------------------------------------
 Symbolic Z-matrix:
 Charge =  0 Multiplicity = 1

                         Standard orientation:
 ---------------------------------------------------------------------
 Center     Atomic      Atomic             Coordinates (Angstroms)
 Number     Number       Type             X           Y           Z
 ---------------------------------------------------------------------
      1          6           0       -3.372073   -0.275190    0.510480
      2          6           0       -2.298600   -1.356458    0.382025
      3          6           0       -1.039498   -1.038265    1.189002
      4          1           0       -2.956248    0.686457    0.179923
      5          1           0       -3.635584   -0.154019    1.570327
      6          1           0       -2.038187   -1.476524   -0.677402
      7          1           0       -2.717087   -2.315680    0.712747
      8          1           0       -1.278593   -0.938789    2.252740
      9          1           0       -0.595836   -0.094865    0.854693
     10          1           0       -0.285314   -1.824266    1.082853
     11          6           0       -4.636866   -0.579004   -0.290596
     12          6           0       -5.710339    0.502264   -0.162141
     13          6           0       -6.969440    0.184071   -0.969118
     14          1           0       -4.373355   -0.700175   -1.350442
     15          1           0       -5.052691   -1.540651    0.039962
     16          1           0       -5.291851    1.461486   -0.492862
     17          1           0       -5.970751    0.622330    0.897286
     18          1           0       -7.413103   -0.759329   -0.634809
     19          1           0       -6.730345    0.084595   -2.032856
     20          1           0       -7.723624    0.970072   -0.862969
     21          6           0        4.756428    0.339919   -0.211876
     22          6           0        5.186467   -1.122436   -0.332568
     23          6           0        6.693568   -1.280551   -0.536134
     24          1           0        5.064548    0.881946   -1.116428
     25          1           0        5.291514    0.804072    0.628149
     26          1           0        4.649694   -1.584067   -1.171251
     27          1           0        4.877116   -1.661088    0.572294
     28          1           0        7.243589   -0.845695    0.304686
     29          1           0        7.014876   -0.768236   -1.448765
     30          1           0        6.979049   -2.333805   -0.619897
     31          6           0        3.252511    0.514274   -0.008008
     32          6           0        2.822472    1.976631    0.112683
     33          6           0        1.315371    2.134745    0.316249
     34          1           0        2.717425    0.050122   -0.848032
     35          1           0        2.944389   -0.027752    0.896543
     36          1           0        3.131822    2.515282   -0.792177
     37          1           0        3.359244    2.438261    0.951367
     38          1           0        0.994063    1.622431    1.228881
     39          1           0        0.765349    1.699888   -0.524570
     40          1           0        1.029890    3.187999    0.400013
 ---------------------------------------------------------------------

 SCF Done:  E(RHF) =  -470.732867510     A.U. after   11 cycles
 E2 =    -0.1582762875D+01 EUMP2 =    -0.47231563038459D+03

 The electronic state is 1-A.
 Alpha  occ. eigenvalues --  -11.21621 -11.21598 -11.21567 -11.21522 -11.21401
 Alpha  occ. eigenvalues --  -11.21353 -11.21341 -11.21291 -11.21100 -11.21069
 Alpha  occ. eigenvalues --  -11.21045 -11.20891  -1.08435  -1.08371  -1.03554
 Alpha  occ. eigenvalues --   -1.03455  -0.96021  -0.95891  -0.87060  -0.86893
 Alpha  occ. eigenvalues --   -0.79674  -0.79475  -0.78257  -0.78170  -0.65063
 Alpha  occ. eigenvalues --   -0.65006  -0.60949  -0.60876  -0.59363  -0.59282
 Alpha  occ. eigenvalues --   -0.57731  -0.57437  -0.55310  -0.55187  -0.52694
 Alpha  occ. eigenvalues --   -0.52636  -0.52592  -0.52160  -0.49975  -0.49828
 Alpha  occ. eigenvalues --   -0.48081  -0.47674  -0.46652  -0.46527  -0.45841
 Alpha  occ. eigenvalues --   -0.45714  -0.45682  -0.45544  -0.43794  -0.43720
 Alpha virt. eigenvalues --    0.22225   0.22986   0.23643   0.24812   0.26287
 Alpha virt. eigenvalues --    0.26415   0.27100   0.27378   0.27954   0.29193
 Alpha virt. eigenvalues --    0.30856   0.31307   0.31799   0.31896   0.32165

 Mulliken charges:
               1
     1  C   -0.298393
     2  C   -0.299052
     3  C   -0.484625
     4  H    0.149955
     5  H    0.149327
     6  H    0.151109
     7  H    0.151341
     8  H    0.153568
     9  H    0.166122
    10  H    0.159528
    11  C   -0.298201
    12  C   -0.299616
    13  C   -0.475664
    14  H    0.149274
    15  H    0.149536
    16  H    0.151952
    17  H    0.151867
    18  H    0.155115
    19  H    0.155081
    20  H    0.160138
    21  C   -0.298288
    22  C   -0.299649
    23  C   -0.475708
    24  H    0.149540
    25  H    0.149531
    26  H    0.151887
    27  H    0.152069
    28  H    0.155196
    29  H    0.155136
    30  H    0.160252
    31  C   -0.298748
    32  C   -0.299515
    33  C   -0.480292
    34  H    0.149489
    35  H    0.150893
    36  H    0.151821
    37  H    0.152084
    38  H    0.160334
    39  H    0.155079
    40  H    0.160527
 Sum of Mulliken charges =  -0.00000

 Dipole moment (field-independent basis, Debye):
    X=              0.0439    Y=              0.0370    Z=              0.0053  Tot=              0.0577
 Quadrupole moment (field-independent basis, Debye-Ang):
   XX=            -86.8338   YY=            -84.6964   ZZ=            -83.4050
   XY=              0.3608   XZ=             -0.5027   YZ=             -0.4883

 Normal termination of Gaussian 16 at Wed May  5 21:30:39 2021.
