 Gaussian 16, Revision A.03,
 Gaussian 16:  EM64L-G16RevA.03 25-Dec-2016

 -------------
 #p 6-31g* mp2
 -------------

 ------------------------------------------------------
 Input file generated by CHIRIPA (05-May-2021 14:57:27)
 ------------------------------------------------------
 Symbolic Z-matrix:
 Charge =  0 Multiplicity = 1

                         Standard orientation:
 ---------------------------------------------------------------------
 Center     Atomic      Atomic             Coordinates (Angstroms)
 Number     Number       Type             X           Y           Z
 ---------------------------------------------------------------------
      1          6           0        3.773893    0.920825    1.453769
      2          6           0        3.538378   -0.449104    1.609805
      3          6           0        2.743204   -1.141885    0.692036
      4          6           0        2.196835   -0.430202   -0.374865
      5          6           0        2.413062    0.934779   -0.557518
      6          6           0        3.211475    1.607185    0.372512
      7          1           0        4.392862    1.451080    2.171476
      8          1           0        3.973866   -0.984715    2.448564
      9          1           0        2.544620   -2.202362    0.788842
     10          1           0        1.965320    1.441565   -1.403753
     11          1           0        3.392676    2.671098    0.248817
     12          7           0        1.353305   -1.152833   -1.352956
     13          8           0        0.883457   -0.502926   -2.284353
     14          8           0        1.177967   -2.355454   -1.169665
     15          6           0       -2.924034   -1.950404    1.165270
     16          6           0       -2.730892   -1.799125   -0.211802
     17          6           0       -2.404696   -0.550776   -0.750103
     18          6           0       -2.278996    0.529738    0.121666
     19          6           0       -2.465208    0.410963    1.498076
     20          6           0       -2.790810   -0.846823    2.014319
     21          1           0       -3.177200   -2.923817    1.574868
     22          1           0       -2.833705   -2.654422   -0.873574
     23          1           0       -2.249684   -0.405470   -1.812307
     24          1           0       -2.355864    1.282093    2.132579
     25          1           0       -2.940231   -0.961354    3.084178
     26          7           0       -1.933982    1.856304   -0.436534
     27          8           0       -1.829026    2.792594    0.352759
     28          8           0       -1.775046    1.934658   -1.652772
 ---------------------------------------------------------------------

 SCF Done:  E(RHF) =  -868.339725114     A.U. after   16 cycles
 E2 =    -0.2600806913D+01 EUMP2 =    -0.87094053202718D+03

 The electronic state is 1-A.
 Alpha  occ. eigenvalues --  -20.60850 -20.60801 -20.60339 -20.60269 -15.85840
 Alpha  occ. eigenvalues --  -15.85343 -11.31040 -11.30551 -11.27648 -11.27496
 Alpha  occ. eigenvalues --  -11.27326 -11.27202 -11.26945 -11.26862 -11.26630
 Alpha  occ. eigenvalues --  -11.26508 -11.26192 -11.25984  -1.59897  -1.59391
 Alpha  occ. eigenvalues --   -1.39448  -1.38936  -1.19203  -1.18726  -1.08640
 Alpha  occ. eigenvalues --   -1.08160  -1.04569  -1.04079  -0.95497  -0.95010
 Alpha  occ. eigenvalues --   -0.85980  -0.85490  -0.82323  -0.81830  -0.77386
 Alpha  occ. eigenvalues --   -0.76884  -0.72078  -0.71568  -0.71252  -0.70681
 Alpha  occ. eigenvalues --   -0.70306  -0.69817  -0.64855  -0.64571  -0.64367
 Alpha  occ. eigenvalues --   -0.64073  -0.61904  -0.61401  -0.55098  -0.54623
 Alpha  occ. eigenvalues --   -0.52925  -0.52654  -0.52453  -0.52155  -0.48850
 Alpha  occ. eigenvalues --   -0.48830  -0.48338  -0.48307  -0.44927  -0.44320
 Alpha  occ. eigenvalues --   -0.37207  -0.36725  -0.36164  -0.35657
 Alpha virt. eigenvalues --    0.05066   0.05643   0.11480   0.11976   0.16623
 Alpha virt. eigenvalues --    0.17119   0.21640   0.22131   0.27589   0.28079
 Alpha virt. eigenvalues --    0.28522   0.29056   0.31172   0.31619   0.32786

 Mulliken charges:
               1
     1  C   -0.170651
     2  C   -0.219346
     3  C   -0.171371
     4  C    0.156246
     5  C   -0.172514
     6  C   -0.217399
     7  H    0.225496
     8  H    0.221470
     9  H    0.272447
    10  H    0.285257
    11  H    0.227627
    12  N    0.487614
    13  O   -0.457114
    14  O   -0.466350
    15  C   -0.171339
    16  C   -0.214129
    17  C   -0.169254
    18  C    0.151073
    19  C   -0.172844
    20  C   -0.220269
    21  H    0.223779
    22  H    0.228998
    23  H    0.288087
    24  H    0.271291
    25  H    0.219260
    26  N    0.486709
    27  O   -0.468135
    28  O   -0.454641
 Sum of Mulliken charges =  -0.00000

 Dipole moment (field-independent basis, Debye):
    X=              1.8240    Y=             -2.1210    Z=              5.0910  Tot=              5.8090
 Quadrupole moment (field-independent basis, Debye-Ang):
   XX=            -87.7144   YY=           -108.4658   ZZ=           -102.0104
   XY=             14.6730   XZ=              2.7372   YZ=             -2.4632

 Normal termination of Gaussian 16 at Wed May  5 19:38:09 2021.
