 Gaussian 16, Revision A.03,
 Gaussian 16:  EM64L-G16RevA.03 25-Dec-2016

 -------------
 #p 6-31g* mp2
 -------------

 ------------------------------------------------------
 Input file generated by CHIRIPA (05-May-2021 14:57:26)
 ------------------------------------------------------
 Symbolic Z-matrix:
 Charge =  0 Multiplicity = 1

                         Standard orientation:
 ---------------------------------------------------------------------
 Center     Atomic      Atomic             Coordinates (Angstroms)
 Number     Number       Type             X           Y           Z
 ---------------------------------------------------------------------
      1          6           0        2.973568   -1.776709    1.235893
      2          6           0        2.777616   -0.638782    2.025353
      3          6           0        2.360819    0.563687    1.446650
      4          6           0        2.148370    0.592724    0.069220
      5          6           0        2.334951   -0.523993   -0.744057
      6          6           0        2.752001   -1.715790   -0.143860
      7          1           0        3.297444   -2.706671    1.693793
      8          1           0        2.948919   -0.683164    3.097141
      9          1           0        2.201485    1.459657    2.034246
     10          1           0        2.156094   -0.448898   -1.809791
     11          1           0        2.903381   -2.597944   -0.759435
     12          7           0        1.706993    1.860075   -0.554805
     13          8           0        1.526657    1.859608   -1.770582
     14          8           0        1.549733    2.829894    0.183679
     15          6           0       -3.562991    0.939028    1.505815
     16          6           0       -3.241927   -0.397699    1.763879
     17          6           0       -2.498921   -1.140296    0.841360
     18          6           0       -2.091387   -0.511740   -0.334279
     19          6           0       -2.395457    0.818343   -0.620128
     20          6           0       -3.139478    1.541721    0.316731
     21          1           0       -4.140570    1.508429    2.228020
     22          1           0       -3.569498   -0.868356    2.686498
     23          1           0       -2.236409   -2.176673    1.015790
     24          1           0       -2.054861    1.260153   -1.548684
     25          1           0       -3.387358    2.579681    0.113659
     26          7           0       -1.304263   -1.287720   -1.318499
     27          8           0       -0.957092   -0.710859   -2.346770
     28          8           0       -1.049389   -2.458100   -1.043023
 ---------------------------------------------------------------------

 SCF Done:  E(RHF) =  -868.339748843     A.U. after   16 cycles
 E2 =    -0.2601399553D+01 EUMP2 =    -0.87094114839652D+03

 The electronic state is 1-A.
 Alpha  occ. eigenvalues --  -20.60807 -20.60752 -20.60423 -20.60356 -15.85793
 Alpha  occ. eigenvalues --  -15.85427 -11.30990 -11.30639 -11.27601 -11.27435
 Alpha  occ. eigenvalues --  -11.27274 -11.27273 -11.27020 -11.26931 -11.26584
 Alpha  occ. eigenvalues --  -11.26447 -11.26270 -11.26062  -1.59854  -1.59477
 Alpha  occ. eigenvalues --   -1.39403  -1.39022  -1.19152  -1.18805  -1.08590
 Alpha  occ. eigenvalues --   -1.08239  -1.04515  -1.04156  -0.95448  -0.95090
 Alpha  occ. eigenvalues --   -0.85927  -0.85569  -0.82273  -0.81907  -0.77337
 Alpha  occ. eigenvalues --   -0.76963  -0.72032  -0.71650  -0.71247  -0.70740
 Alpha  occ. eigenvalues --   -0.70252  -0.69889  -0.64803  -0.64518  -0.64443
 Alpha  occ. eigenvalues --   -0.64148  -0.61849  -0.61477  -0.55046  -0.54696
 Alpha  occ. eigenvalues --   -0.52874  -0.52601  -0.52527  -0.52230  -0.48805
 Alpha  occ. eigenvalues --   -0.48785  -0.48421  -0.48391  -0.44902  -0.44379
 Alpha  occ. eigenvalues --   -0.37183  -0.36778  -0.36108  -0.35733
 Alpha virt. eigenvalues --    0.05084   0.05584   0.11531   0.11889   0.16668
 Alpha virt. eigenvalues --    0.17039   0.21689   0.22072   0.27643   0.28020
 Alpha virt. eigenvalues --    0.28570   0.29002   0.31212   0.31564   0.32832

 Mulliken charges:
               1
     1  C   -0.171606
     2  C   -0.220161
     3  C   -0.172519
     4  C    0.151341
     5  C   -0.172850
     6  C   -0.212596
     7  H    0.224021
     8  H    0.219442
     9  H    0.271411
    10  H    0.288765
    11  H    0.229420
    12  N    0.486548
    13  O   -0.454791
    14  O   -0.467682
    15  C   -0.170611
    16  C   -0.219527
    17  C   -0.171183
    18  C    0.155159
    19  C   -0.172344
    20  C   -0.216530
    21  H    0.225364
    22  H    0.221057
    23  H    0.272139
    24  H    0.285767
    25  H    0.227857
    26  N    0.487102
    27  O   -0.456200
    28  O   -0.466793
 Sum of Mulliken charges =  -0.00000

 Dipole moment (field-independent basis, Debye):
    X=             -1.2716    Y=             -1.7279    Z=              5.3459  Tot=              5.7603
 Quadrupole moment (field-independent basis, Debye-Ang):
   XX=            -87.9862   YY=           -109.6568   ZZ=           -101.5591
   XY=            -13.8724   XZ=             -2.0632   YZ=             -2.2363

 Normal termination of Gaussian 16 at Thu May  6 11:29:14 2021.
