 Gaussian 16, Revision A.03,
 Gaussian 16:  EM64L-G16RevA.03 25-Dec-2016

 -------------
 #p 6-31g* mp2
 -------------

 ------------------------------------------------------
 Input file generated by CHIRIPA (05-May-2021 14:53:13)
 ------------------------------------------------------
 Symbolic Z-matrix:
 Charge =  0 Multiplicity = 1

                         Standard orientation:
 ---------------------------------------------------------------------
 Center     Atomic      Atomic             Coordinates (Angstroms)
 Number     Number       Type             X           Y           Z
 ---------------------------------------------------------------------
      1          6           0        2.837282    0.695463    0.196443
      2          6           0        2.698124    2.095681   -0.401896
      3          6           0        1.710050    2.972165    0.368350
      4          1           0        1.851299    0.211213    0.213342
      5          1           0        3.160992    0.781994    1.242922
      6          1           0        2.376108    2.006490   -1.447346
      7          1           0        3.684585    2.576581   -0.417549
      8          1           0        2.030062    3.090783    1.408601
      9          1           0        0.714150    2.517452    0.372953
     10          1           0        1.625979    3.968625   -0.076464
     11          6           0        3.821598   -0.192620   -0.562607
     12          6           0        3.960756   -1.592838    0.035732
     13          6           0        4.948830   -2.469323   -0.734514
     14          1           0        3.497888   -0.279152   -1.609087
     15          1           0        4.807581    0.291630   -0.579506
     16          1           0        2.974295   -2.073739    0.051385
     17          1           0        4.282772   -1.503648    1.081182
     18          1           0        5.944730   -2.014610   -0.739117
     19          1           0        4.628818   -2.587941   -1.774766
     20          1           0        5.032902   -3.465783   -0.289700
     21          6           0       -3.675898   -0.111742   -2.138111
     22          6           0       -2.742557    0.861923   -1.767474
     23          6           0       -2.140748    0.824884   -0.506124
     24          6           0       -2.497220   -0.204609    0.363565
     25          6           0       -3.423650   -1.189197    0.023555
     26          6           0       -4.012872   -1.132395   -1.242991
     27          1           0       -4.138509   -0.075292   -3.119975
     28          1           0       -2.478941    1.655740   -2.460587
     29          1           0       -1.415114    1.565869   -0.193369
     30          1           0       -3.666225   -1.968241    0.736061
     31          1           0       -4.737395   -1.889897   -1.528127
     32          7           0       -1.866774   -0.254282    1.701650
     33          8           0       -2.197890   -1.171628    2.449632
     34          8           0       -1.053452    0.625070    1.977122
 ---------------------------------------------------------------------

 SCF Done:  E(RHF) =  -669.535610315     A.U. after   15 cycles
 E2 =    -0.2091937606D+01 EUMP2 =    -0.67162754792116D+03

 The electronic state is 1-A.
 Alpha  occ. eigenvalues --  -20.60878 -20.60870 -15.85909 -11.31263 -11.27826
 Alpha  occ. eigenvalues --  -11.27822 -11.27567 -11.26843 -11.26833 -11.21320
 Alpha  occ. eigenvalues --  -11.21235 -11.21037 -11.20870 -11.20803 -11.20724
 Alpha  occ. eigenvalues --   -1.59939  -1.39494  -1.19434  -1.08831  -1.08058
 Alpha  occ. eigenvalues --   -1.04835  -1.03202  -0.95687  -0.95624  -0.86660
 Alpha  occ. eigenvalues --   -0.86234  -0.82499  -0.79261  -0.77856  -0.77534
 Alpha  occ. eigenvalues --   -0.72130  -0.71254  -0.70549  -0.65088  -0.64878
 Alpha  occ. eigenvalues --   -0.64673  -0.62215  -0.60599  -0.59005  -0.57238
 Alpha  occ. eigenvalues --   -0.55357  -0.54926  -0.53164  -0.52938  -0.52364
 Alpha  occ. eigenvalues --   -0.52028  -0.49591  -0.48894  -0.48885  -0.47550
 Alpha  occ. eigenvalues --   -0.46296  -0.45425  -0.45338  -0.44810  -0.43442
 Alpha  occ. eigenvalues --   -0.37414  -0.36436
 Alpha virt. eigenvalues --    0.04962   0.11183   0.16460   0.20571   0.23118
 Alpha virt. eigenvalues --    0.24139   0.26160   0.27298   0.27634   0.28055
 Alpha virt. eigenvalues --    0.29233   0.30465   0.31508   0.32023   0.32193

 Mulliken charges:
               1
     1  C   -0.297722
     2  C   -0.300132
     3  C   -0.482641
     4  H    0.153497
     5  H    0.154493
     6  H    0.144756
     7  H    0.151246
     8  H    0.163065
     9  H    0.161542
    10  H    0.154241
    11  C   -0.298293
    12  C   -0.299238
    13  C   -0.475485
    14  H    0.145632
    15  H    0.148310
    16  H    0.152731
    17  H    0.154356
    18  H    0.154475
    19  H    0.153013
    20  H    0.160159
    21  C   -0.170337
    22  C   -0.222738
    23  C   -0.175496
    24  C    0.154667
    25  C   -0.169872
    26  C   -0.218957
    27  H    0.225950
    28  H    0.224567
    29  H    0.288999
    30  H    0.275852
    31  H    0.223745
    32  N    0.487886
    33  O   -0.459296
    34  O   -0.462972
 Sum of Mulliken charges =  -0.00000

 Dipole moment (field-independent basis, Debye):
    X=             -2.3011    Y=              0.1310    Z=             -4.5571  Tot=              5.1068
 Quadrupole moment (field-independent basis, Debye-Ang):
   XX=            -82.8386   YY=            -92.4717   ZZ=            -98.3889
   XY=              3.3855   XZ=             11.8101   YZ=              0.0292

 Normal termination of Gaussian 16 at Wed May  5 15:32:48 2021.
