 Gaussian 16, Revision A.03,
 Gaussian 16:  EM64L-G16RevA.03 25-Dec-2016

 -------------
 #p 6-31g* mp2
 -------------

 ------------------------------------------------------
 Input file generated by CHIRIPA (05-May-2021 14:55:24)
 ------------------------------------------------------
 Symbolic Z-matrix:
 Charge =  0 Multiplicity = 1

                         Standard orientation:
 ---------------------------------------------------------------------
 Center     Atomic      Atomic             Coordinates (Angstroms)
 Number     Number       Type             X           Y           Z
 ---------------------------------------------------------------------
      1          6           0        1.802202    2.122630    1.046537
      2          6           0        1.338033    0.803343    1.070015
      3          6           0        2.075284   -0.219572    0.466150
      4          6           0        3.277835    0.113926   -0.155090
      5          6           0        3.766835    1.418746   -0.195276
      6          6           0        3.012986    2.425586    0.415080
      7          1           0        1.223041    2.911011    1.518155
      8          1           0        0.398071    0.565135    1.559683
      9          1           0        1.739355   -1.249407    0.469508
     10          1           0        4.707522    1.625353   -0.691097
     11          1           0        3.375920    3.449272    0.395293
     12          7           0        4.067115   -0.960479   -0.797811
     13          8           0        5.123451   -0.640621   -1.338626
     14          8           0        3.614471   -2.102113   -0.748589
     15          6           0       -4.737478   -0.384827   -0.222575
     16          6           0       -5.200798    0.971988   -0.753964
     17          6           0       -6.619824    0.931208   -1.321850
     18          1           0       -4.788753   -1.125532   -1.032311
     19          1           0       -5.435262   -0.723694    0.555667
     20          1           0       -4.501574    1.308839   -1.530002
     21          1           0       -5.148232    1.709592    0.057081
     22          1           0       -7.333791    0.619519   -0.552629
     23          1           0       -6.683459    0.216489   -2.148729
     24          1           0       -6.930797    1.911559   -1.696104
     25          6           0       -3.320767   -0.360137    0.348430
     26          6           0       -2.857448   -1.716952    0.879819
     27          6           0       -1.438421   -1.676172    1.447704
     28          1           0       -2.622983   -0.021270   -0.429812
     29          1           0       -3.269493    0.380568    1.158166
     30          1           0       -2.910013   -2.454556    0.068773
     31          1           0       -3.556671   -2.053804    1.655856
     32          1           0       -1.374785   -0.961453    2.274583
     33          1           0       -0.724453   -1.364483    0.678483
     34          1           0       -1.127448   -2.656524    1.821958
 ---------------------------------------------------------------------

 SCF Done:  E(RHF) =  -669.534519884     A.U. after   15 cycles
 E2 =    -0.2092374739D+01 EUMP2 =    -0.67162689462362D+03

 The electronic state is 1-A.
 Alpha  occ. eigenvalues --  -20.60696 -20.60691 -15.85746 -11.31086 -11.27655
 Alpha  occ. eigenvalues --  -11.27605 -11.27368 -11.26674 -11.26539 -11.22357
 Alpha  occ. eigenvalues --  -11.22160 -11.22087 -11.22062 -11.21893 -11.21435
 Alpha  occ. eigenvalues --   -1.59771  -1.39325  -1.19249  -1.09064  -1.08648
 Alpha  occ. eigenvalues --   -1.04664  -1.04180  -0.96678  -0.95491  -0.87716
 Alpha  occ. eigenvalues --   -0.86042  -0.82339  -0.80283  -0.78862  -0.77360
 Alpha  occ. eigenvalues --   -0.71966  -0.71094  -0.70370  -0.65689  -0.64902
 Alpha  occ. eigenvalues --   -0.64670  -0.62121  -0.61541  -0.60017  -0.58234
 Alpha  occ. eigenvalues --   -0.55978  -0.55158  -0.53340  -0.53235  -0.52973
 Alpha  occ. eigenvalues --   -0.52579  -0.50609  -0.48747  -0.48722  -0.48515
 Alpha  occ. eigenvalues --   -0.47278  -0.46395  -0.46297  -0.44737  -0.44420
 Alpha  occ. eigenvalues --   -0.37233  -0.36236
 Alpha virt. eigenvalues --    0.05123   0.11393   0.16557   0.20701   0.22476
 Alpha virt. eigenvalues --    0.23866   0.25556   0.25859   0.27009   0.27713
 Alpha virt. eigenvalues --    0.29262   0.30202   0.31145   0.31381   0.32180

 Mulliken charges:
               1
     1  C   -0.172535
     2  C   -0.222170
     3  C   -0.178373
     4  C    0.159259
     5  C   -0.171568
     6  C   -0.218449
     7  H    0.225340
     8  H    0.232863
     9  H    0.278086
    10  H    0.275102
    11  H    0.222866
    12  N    0.488470
    13  O   -0.460816
    14  O   -0.460896
    15  C   -0.298697
    16  C   -0.300118
    17  C   -0.476089
    18  H    0.152447
    19  H    0.150785
    20  H    0.152670
    21  H    0.150708
    22  H    0.155795
    23  H    0.156710
    24  H    0.161164
    25  C   -0.300350
    26  C   -0.298947
    27  C   -0.487343
    28  H    0.150989
    29  H    0.145690
    30  H    0.157736
    31  H    0.155209
    32  H    0.150724
    33  H    0.154920
    34  H    0.168820
 Sum of Mulliken charges =  -0.00000

 Dipole moment (field-independent basis, Debye):
    X=             -3.0194    Y=              3.6888    Z=              2.2358  Tot=              5.2653
 Quadrupole moment (field-independent basis, Debye-Ang):
   XX=           -111.3373   YY=            -91.7186   ZZ=            -95.2372
   XY=             15.1417   XZ=              6.1516   YZ=             -1.1446

 Normal termination of Gaussian 16 at Wed May  5 17:37:51 2021.
