 Gaussian 16, Revision A.03,
 Gaussian 16:  EM64L-G16RevA.03 25-Dec-2016

 -------------
 #p 6-31g* mp2
 -------------

 ------------------------------------------------------
 Input file generated by CHIRIPA (05-May-2021 14:53:16)
 ------------------------------------------------------
 Symbolic Z-matrix:
 Charge =  0 Multiplicity = 1

                         Standard orientation:
 ---------------------------------------------------------------------
 Center     Atomic      Atomic             Coordinates (Angstroms)
 Number     Number       Type             X           Y           Z
 ---------------------------------------------------------------------
      1          6           0        5.542709   -0.211376   -0.427951
      2          6           0        6.442942    0.871112    0.168526
      3          6           0        7.860716    0.842098   -0.403199
      4          1           0        5.993486   -1.196311   -0.244516
      5          1           0        5.501895   -0.084546   -1.518659
      6          1           0        6.480939    0.743120    1.257925
      7          1           0        5.989873    1.853571   -0.016183
      8          1           0        7.842007    0.992422   -1.487474
      9          1           0        8.335863   -0.124339   -0.206127
     10          1           0        8.487180    1.624179    0.036975
     11          6           0        4.122134   -0.195180    0.133681
     12          6           0        3.221900   -1.277668   -0.462796
     13          6           0        1.804126   -1.248653    0.108929
     14          1           0        4.162947   -0.322010    1.224389
     15          1           0        3.671356    0.789755   -0.049754
     16          1           0        3.674969   -2.260127   -0.278087
     17          1           0        3.183904   -1.149676   -1.552195
     18          1           0        1.328980   -0.282217   -0.088143
     19          1           0        1.822836   -1.398978    1.193204
     20          1           0        1.177663   -2.030735   -0.331245
     21          6           0       -1.439095    0.163953    1.067791
     22          6           0       -2.113271   -1.046152    0.873740
     23          6           0       -3.408002   -1.060977    0.346481
     24          6           0       -4.001188    0.158314    0.022832
     25          6           0       -3.355458    1.380332    0.204479
     26          6           0       -2.061243    1.371203    0.733132
     27          1           0       -0.433518    0.166165    1.477920
     28          1           0       -1.632570   -1.985242    1.132736
     29          1           0       -3.952840   -1.983362    0.185938
     30          1           0       -3.860642    2.300407   -0.063233
     31          1           0       -1.540072    2.312500    0.882753
     32          7           0       -5.371588    0.155298   -0.536091
     33          8           0       -5.872237    1.243052   -0.813179
     34          8           0       -5.919109   -0.934764   -0.686503
 ---------------------------------------------------------------------

 SCF Done:  E(RHF) =  -669.535017165     A.U. after   15 cycles
 E2 =    -0.2091600971D+01 EUMP2 =    -0.67162661813568D+03

 The electronic state is 1-A.
 Alpha  occ. eigenvalues --  -20.60701 -20.60696 -15.85755 -11.31097 -11.27680
 Alpha  occ. eigenvalues --  -11.27670 -11.27330 -11.26669 -11.26648 -11.22474
 Alpha  occ. eigenvalues --  -11.22267 -11.22169 -11.22133 -11.21981 -11.21506
 Alpha  occ. eigenvalues --   -1.59778  -1.39332  -1.19271  -1.09152  -1.08661
 Alpha  occ. eigenvalues --   -1.04674  -1.04280  -0.96770  -0.95496  -0.87797
 Alpha  occ. eigenvalues --   -0.86064  -0.82342  -0.80368  -0.78937  -0.77392
 Alpha  occ. eigenvalues --   -0.71973  -0.71102  -0.70376  -0.65774  -0.64917
 Alpha  occ. eigenvalues --   -0.64676  -0.62026  -0.61673  -0.60131  -0.58378
 Alpha  occ. eigenvalues --   -0.56087  -0.55212  -0.53479  -0.53156  -0.52908
 Alpha  occ. eigenvalues --   -0.52755  -0.50691  -0.48752  -0.48729  -0.48624
 Alpha  occ. eigenvalues --   -0.47368  -0.46484  -0.46383  -0.44743  -0.44519
 Alpha  occ. eigenvalues --   -0.37204  -0.36285
 Alpha virt. eigenvalues --    0.05124   0.11327   0.16555   0.20665   0.22274
 Alpha virt. eigenvalues --    0.23791   0.25775   0.26213   0.26643   0.27457
 Alpha virt. eigenvalues --    0.29437   0.30092   0.30479   0.31489   0.32113

 Mulliken charges:
               1
     1  C   -0.298829
     2  C   -0.300067
     3  C   -0.476097
     4  H    0.151077
     5  H    0.151267
     6  H    0.151990
     7  H    0.151916
     8  H    0.156162
     9  H    0.155986
    10  H    0.161522
    11  C   -0.299027
    12  C   -0.300053
    13  C   -0.482096
    14  H    0.148816
    15  H    0.148367
    16  H    0.154712
    17  H    0.156229
    18  H    0.154852
    19  H    0.149861
    20  H    0.163480
    21  C   -0.169664
    22  C   -0.220242
    23  C   -0.171267
    24  C    0.158146
    25  C   -0.170665
    26  C   -0.221040
    27  H    0.231101
    28  H    0.223878
    29  H    0.275160
    30  H    0.275157
    31  H    0.222794
    32  N    0.488126
    33  O   -0.460797
    34  O   -0.460757
 Sum of Mulliken charges =  -0.00000

 Dipole moment (field-independent basis, Debye):
    X=              5.0603    Y=             -0.0208    Z=              1.9109  Tot=              5.4091
 Quadrupole moment (field-independent basis, Debye-Ang):
   XX=           -134.5868   YY=            -89.3263   ZZ=            -95.0683
   XY=              0.5233   XZ=             -7.4709   YZ=             -0.4135

 Normal termination of Gaussian 16 at Thu May  6 02:44:20 2021.
