 Gaussian 16, Revision A.03,
 Gaussian 16:  EM64L-G16RevA.03 25-Dec-2016

 -------------
 #p 6-31g* mp2
 -------------

 ------------------------------------------------------
 Input file generated by CHIRIPA (05-May-2021 14:51:12)
 ------------------------------------------------------
 Symbolic Z-matrix:
 Charge =  0 Multiplicity = 1

                         Standard orientation:
 ---------------------------------------------------------------------
 Center     Atomic      Atomic             Coordinates (Angstroms)
 Number     Number       Type             X           Y           Z
 ---------------------------------------------------------------------
      1          6           0       -3.093798    0.507917    0.294096
      2          6           0       -3.924003   -0.207031   -0.772485
      3          6           0       -5.036214   -1.070000   -0.175773
      4          1           0       -2.657092   -0.238830    0.971297
      5          1           0       -3.757185    1.134725    0.905999
      6          1           0       -3.259042   -0.831234   -1.383069
      7          1           0       -4.358628    0.541493   -1.447339
      8          1           0       -5.722731   -0.457459    0.417599
      9          1           0       -4.616897   -1.837986    0.482233
     10          1           0       -5.617187   -1.571892   -0.955794
     11          6           0       -1.977940    1.374544   -0.286889
     12          6           0       -1.147735    2.089493    0.779691
     13          6           0       -0.035524    2.952462    0.182979
     14          1           0       -1.314553    0.747736   -0.898792
     15          1           0       -2.414646    2.121291   -0.964090
     16          1           0       -0.713110    1.340968    1.454546
     17          1           0       -1.812696    2.713696    1.390276
     18          1           0       -0.454841    3.720448   -0.475026
     19          1           0        0.650993    2.339921   -0.410392
     20          1           0        0.545449    3.454354    0.963001
     21          6           0        2.969516   -0.478340   -0.429179
     22          6           0        4.232191   -0.000616    0.288746
     23          6           0        5.089390    0.924620   -0.575512
     24          1           0        3.255575   -0.998552   -1.353569
     25          1           0        2.376115    0.395168   -0.732909
     26          1           0        4.822354   -0.874806    0.592252
     27          1           0        3.943101    0.518350    1.211630
     28          1           0        4.522024    1.814310   -0.867313
     29          1           0        5.406274    0.413239   -1.490212
     30          1           0        5.986859    1.254193   -0.042791
     31          6           0        2.102221   -1.404121    0.421972
     32          6           0        0.839547   -1.881846   -0.295953
     33          6           0       -0.017652   -2.807082    0.568306
     34          1           0        2.695623   -2.277630    0.725702
     35          1           0        1.816163   -0.883911    1.346362
     36          1           0        1.128637   -2.400811   -1.218837
     37          1           0        0.249383   -1.007655   -0.599459
     38          1           0       -0.334536   -2.295700    1.483005
     39          1           0        0.549714   -3.696772    0.860107
     40          1           0       -0.915121   -3.136655    0.035584
 ---------------------------------------------------------------------

 SCF Done:  E(RHF) =  -470.733157623     A.U. after   11 cycles
 E2 =    -0.1584601549D+01 EUMP2 =    -0.47231775917254D+03

 The electronic state is 1-A.
 Alpha  occ. eigenvalues --  -11.21673 -11.21660 -11.21618 -11.21609 -11.21455
 Alpha  occ. eigenvalues --  -11.21429 -11.21394 -11.21366 -11.21164 -11.21151
 Alpha  occ. eigenvalues --  -11.21073 -11.21069  -1.08514  -1.08433  -1.03581
 Alpha  occ. eigenvalues --   -1.03564  -0.96052  -0.95991  -0.87073  -0.87004
 Alpha  occ. eigenvalues --   -0.79654  -0.79625  -0.78373  -0.78201  -0.65449
 Alpha  occ. eigenvalues --   -0.64809  -0.61019  -0.60910  -0.59403  -0.59375
 Alpha  occ. eigenvalues --   -0.57678  -0.57589  -0.55522  -0.55101  -0.52722
 Alpha  occ. eigenvalues --   -0.52708  -0.52503  -0.52389  -0.50175  -0.49776
 Alpha  occ. eigenvalues --   -0.47998  -0.47922  -0.46842  -0.46667  -0.46064
 Alpha  occ. eigenvalues --   -0.45858  -0.45727  -0.45255  -0.43831  -0.43817
 Alpha virt. eigenvalues --    0.18467   0.21725   0.24187   0.24422   0.25360
 Alpha virt. eigenvalues --    0.26106   0.27085   0.27992   0.28704   0.29496
 Alpha virt. eigenvalues --    0.31003   0.31366   0.31713   0.31783   0.32182

 Mulliken charges:
               1
     1  C   -0.300096
     2  C   -0.299851
     3  C   -0.475988
     4  H    0.151977
     5  H    0.149569
     6  H    0.152115
     7  H    0.151928
     8  H    0.155153
     9  H    0.155662
    10  H    0.160232
    11  C   -0.303955
    12  C   -0.300429
    13  C   -0.480475
    14  H    0.154321
    15  H    0.150337
    16  H    0.151837
    17  H    0.152631
    18  H    0.155933
    19  H    0.158383
    20  H    0.160467
    21  C   -0.303670
    22  C   -0.299426
    23  C   -0.475956
    24  H    0.149915
    25  H    0.153914
    26  H    0.151972
    27  H    0.152316
    28  H    0.155668
    29  H    0.155104
    30  H    0.160352
    31  C   -0.298085
    32  C   -0.308321
    33  C   -0.476339
    34  H    0.149923
    35  H    0.149918
    36  H    0.152394
    37  H    0.159229
    38  H    0.155156
    39  H    0.155842
    40  H    0.160343
 Sum of Mulliken charges =  -0.00000

 Dipole moment (field-independent basis, Debye):
    X=              0.0022    Y=              0.0004    Z=             -0.0015  Tot=              0.0027
 Quadrupole moment (field-independent basis, Debye-Ang):
   XX=            -85.2967   YY=            -84.3450   ZZ=            -84.9878
   XY=             -2.0063   XZ=              0.4333   YZ=              0.7861

 Normal termination of Gaussian 16 at Thu May  6 05:30:39 2021.
