 Gaussian 16, Revision A.03,
 Gaussian 16:  EM64L-G16RevA.03 25-Dec-2016

 -------------
 #p 6-31g* mp2
 -------------

 ------------------------------------------------------
 Input file generated by CHIRIPA (05-May-2021 14:55:23)
 ------------------------------------------------------
 Symbolic Z-matrix:
 Charge =  0 Multiplicity = 1

                         Standard orientation:
 ---------------------------------------------------------------------
 Center     Atomic      Atomic             Coordinates (Angstroms)
 Number     Number       Type             X           Y           Z
 ---------------------------------------------------------------------
      1          6           0       -0.870546   -0.409821    0.077880
      2          6           0       -1.494693    0.824260   -0.131894
      3          6           0       -2.888749    0.914681   -0.186476
      4          6           0       -3.631196   -0.254288   -0.026556
      5          6           0       -3.038714   -1.498465    0.183864
      6          6           0       -1.643186   -1.565208    0.234813
      7          1           0        0.212962   -0.470865    0.118869
      8          1           0       -0.897180    1.723198   -0.254100
      9          1           0       -3.397858    1.857154   -0.347625
     10          1           0       -3.661002   -2.377197    0.302212
     11          1           0       -1.161182   -2.524965    0.397857
     12          7           0       -5.107800   -0.171097   -0.082417
     13          8           0       -5.739391   -1.215628    0.061405
     14          8           0       -5.605612    0.937064   -0.268964
     15          6           0        3.963008    0.943812   -0.265995
     16          6           0        2.882606    1.490997    0.667443
     17          6           0        2.144380    2.692694    0.076902
     18          1           0        4.682257    1.742859   -0.492158
     19          1           0        3.501919    0.658589   -1.221735
     20          1           0        3.345372    1.773816    1.621632
     21          1           0        2.165952    0.690502    0.891564
     22          1           0        1.656604    2.420486   -0.864681
     23          1           0        2.842725    3.509954   -0.130464
     24          1           0        1.376544    3.067831    0.760686
     25          6           0        4.709847   -0.257735    0.310411
     26          6           0        5.790249   -0.804920   -0.623027
     27          6           0        6.528476   -2.006617   -0.032486
     28          1           0        5.170936    0.027489    1.266150
     29          1           0        3.990599   -1.056783    0.536575
     30          1           0        6.506902   -0.004425   -0.847148
     31          1           0        5.327483   -1.087739   -1.577217
     32          1           0        5.830130   -2.823878    0.174880
     33          1           0        7.016251   -1.734409    0.909097
     34          1           0        7.296311   -2.381754   -0.716271
 ---------------------------------------------------------------------

 SCF Done:  E(RHF) =  -669.535310438     A.U. after   15 cycles
 E2 =    -0.2091801211D+01 EUMP2 =    -0.67162711164924D+03

 The electronic state is 1-A.
 Alpha  occ. eigenvalues --  -20.60722 -20.60717 -15.85774 -11.31132 -11.27700
 Alpha  occ. eigenvalues --  -11.27684 -11.27416 -11.26717 -11.26660 -11.22892
 Alpha  occ. eigenvalues --  -11.22433 -11.22394 -11.22353 -11.22279 -11.21706
 Alpha  occ. eigenvalues --   -1.59797  -1.39351  -1.19299  -1.09444  -1.08695
 Alpha  occ. eigenvalues --   -1.04703  -1.04531  -0.96976  -0.95535  -0.87996
 Alpha  occ. eigenvalues --   -0.86094  -0.82371  -0.80611  -0.79211  -0.77415
 Alpha  occ. eigenvalues --   -0.71993  -0.71120  -0.70447  -0.66103  -0.64949
 Alpha  occ. eigenvalues --   -0.64712  -0.62149  -0.61831  -0.60352  -0.58562
 Alpha  occ. eigenvalues --   -0.56260  -0.55239  -0.53688  -0.53381  -0.53030
 Alpha  occ. eigenvalues --   -0.52772  -0.50902  -0.48906  -0.48748  -0.48748
 Alpha  occ. eigenvalues --   -0.47641  -0.46753  -0.46661  -0.44773  -0.44758
 Alpha  occ. eigenvalues --   -0.37279  -0.36304
 Alpha virt. eigenvalues --    0.05108   0.11320   0.16575   0.18486   0.22503
 Alpha virt. eigenvalues --    0.23882   0.24702   0.25716   0.26555   0.28467
 Alpha virt. eigenvalues --    0.29256   0.30220   0.30808   0.31165   0.32322

 Mulliken charges:
               1
     1  C   -0.176642
     2  C   -0.225816
     3  C   -0.171544
     4  C    0.158737
     5  C   -0.171075
     6  C   -0.219373
     7  H    0.232113
     8  H    0.230979
     9  H    0.275666
    10  H    0.275305
    11  H    0.223280
    12  N    0.487968
    13  O   -0.460618
    14  O   -0.460517
    15  C   -0.299881
    16  C   -0.303970
    17  C   -0.482573
    18  H    0.154305
    19  H    0.149016
    20  H    0.159124
    21  H    0.144383
    22  H    0.152240
    23  H    0.163683
    24  H    0.161324
    25  C   -0.297837
    26  C   -0.300402
    27  C   -0.476098
    28  H    0.152441
    29  H    0.145199
    30  H    0.154160
    31  H    0.152378
    32  H    0.154698
    33  H    0.156595
    34  H    0.162751
 Sum of Mulliken charges =  -0.00000

 Dipole moment (field-independent basis, Debye):
    X=              5.5050    Y=             -0.2080    Z=              0.2055  Tot=              5.5127
 Quadrupole moment (field-independent basis, Debye-Ang):
   XX=           -131.8800   YY=            -89.7546   ZZ=            -95.4329
   XY=              1.3332   XZ=             -0.7606   YZ=             -0.3347

 Normal termination of Gaussian 16 at Wed May  5 22:20:59 2021.
