 Gaussian 16, Revision A.03,
 Gaussian 16:  EM64L-G16RevA.03 25-Dec-2016

 -------------
 #p 6-31g* mp2
 -------------

 ------------------------------------------------------
 Input file generated by CHIRIPA (05-May-2021 14:55:24)
 ------------------------------------------------------
 Symbolic Z-matrix:
 Charge =  0 Multiplicity = 1

                         Standard orientation:
 ---------------------------------------------------------------------
 Center     Atomic      Atomic             Coordinates (Angstroms)
 Number     Number       Type             X           Y           Z
 ---------------------------------------------------------------------
      1          6           0       -0.483104   -2.254538    0.676282
      2          6           0       -0.205205   -1.401303   -0.396697
      3          6           0       -1.159524   -0.478855   -0.835915
      4          6           0       -2.386843   -0.436491   -0.176230
      5          6           0       -2.693596   -1.273255    0.895693
      6          6           0       -1.724225   -2.187908    1.317921
      7          1           0        0.264081   -2.968090    1.010878
      8          1           0        0.757811   -1.450827   -0.896890
      9          1           0       -0.970746    0.193457   -1.664032
     10          1           0       -3.662584   -1.200477    1.374425
     11          1           0       -1.942808   -2.849308    2.151478
     12          7           0       -3.405106    0.535937   -0.632217
     13          8           0       -4.478771    0.553495   -0.034245
     14          8           0       -3.110273    1.262154   -1.578958
     15          6           0        2.472120    1.416861   -0.016976
     16          6           0        1.656368    1.931997    1.169266
     17          6           0        0.925471    3.239116    0.861003
     18          1           0        3.199899    2.184280   -0.314214
     19          1           0        1.803679    1.270326   -0.876691
     20          1           0        2.325913    2.076202    2.026896
     21          1           0        0.930575    1.163187    1.463837
     22          1           0        0.235037    3.105780    0.021882
     23          1           0        1.638304    4.023982    0.588140
     24          1           0        0.348602    3.589360    1.722635
     25          6           0        3.208573    0.110842    0.275734
     26          6           0        4.024325   -0.404293   -0.910507
     27          6           0        4.755222   -1.711411   -0.602245
     28          1           0        3.877014    0.257378    1.135448
     29          1           0        2.480794   -0.656576    0.572973
     30          1           0        4.750118    0.364518   -1.205079
     31          1           0        3.354779   -0.548497   -1.768138
     32          1           0        4.042389   -2.496278   -0.329381
     33          1           0        5.445655   -1.578075    0.236877
     34          1           0        5.332092   -2.061656   -1.463877
 ---------------------------------------------------------------------

 SCF Done:  E(RHF) =  -669.534899696     A.U. after   15 cycles
 E2 =    -0.2094293122D+01 EUMP2 =    -0.67162919281785D+03

 The electronic state is 1-A.
 Alpha  occ. eigenvalues --  -20.60836 -20.60831 -15.85889 -11.31288 -11.27854
 Alpha  occ. eigenvalues --  -11.27840 -11.27595 -11.26870 -11.26852 -11.22449
 Alpha  occ. eigenvalues --  -11.22107 -11.21933 -11.21921 -11.21818 -11.21114
 Alpha  occ. eigenvalues --   -1.59909  -1.39462  -1.19463  -1.09071  -1.08834
 Alpha  occ. eigenvalues --   -1.04867  -1.04055  -0.96504  -0.95678  -0.87516
 Alpha  occ. eigenvalues --   -0.86266  -0.82509  -0.80144  -0.78827  -0.77559
 Alpha  occ. eigenvalues --   -0.72107  -0.71231  -0.70563  -0.65959  -0.65113
 Alpha  occ. eigenvalues --   -0.64712  -0.62173  -0.61456  -0.59893  -0.58097
 Alpha  occ. eigenvalues --   -0.55827  -0.55344  -0.53232  -0.53119  -0.52966
 Alpha  occ. eigenvalues --   -0.52881  -0.50455  -0.48868  -0.48860  -0.48436
 Alpha  occ. eigenvalues --   -0.47213  -0.46346  -0.46285  -0.44859  -0.44319
 Alpha  occ. eigenvalues --   -0.37415  -0.36423
 Alpha virt. eigenvalues --    0.04950   0.11044   0.16372   0.18727   0.23109
 Alpha virt. eigenvalues --    0.23331   0.25045   0.25903   0.27485   0.28620
 Alpha virt. eigenvalues --    0.29410   0.29991   0.31071   0.31751   0.31925

 Mulliken charges:
               1
     1  C   -0.173162
     2  C   -0.218400
     3  C   -0.173405
     4  C    0.158685
     5  C   -0.170948
     6  C   -0.218138
     7  H    0.226456
     8  H    0.230415
     9  H    0.275856
    10  H    0.276045
    11  H    0.224080
    12  N    0.488276
    13  O   -0.459901
    14  O   -0.460379
    15  C   -0.296650
    16  C   -0.303072
    17  C   -0.477364
    18  H    0.153225
    19  H    0.142678
    20  H    0.151387
    21  H    0.155778
    22  H    0.159753
    23  H    0.155192
    24  H    0.162667
    25  C   -0.303293
    26  C   -0.302398
    27  C   -0.474274
    28  H    0.153739
    29  H    0.143371
    30  H    0.157820
    31  H    0.146072
    32  H    0.147410
    33  H    0.158797
    34  H    0.163683
 Sum of Mulliken charges =  -0.00000

 Dipole moment (field-independent basis, Debye):
    X=              3.5900    Y=             -3.3497    Z=              1.6569  Tot=              5.1821
 Quadrupole moment (field-independent basis, Debye-Ang):
   XX=           -109.5170   YY=            -92.2766   ZZ=            -93.1463
   XY=              8.9692   XZ=             -6.8639   YZ=             -1.2418

 Normal termination of Gaussian 16 at Thu May  6 20:54:49 2021.
