 Gaussian 16, Revision A.03,
 Gaussian 16:  EM64L-G16RevA.03 25-Dec-2016

 -------------
 #p 6-31g* mp2
 -------------

 ------------------------------------------------------
 Input file generated by CHIRIPA (05-May-2021 14:53:16)
 ------------------------------------------------------
 Symbolic Z-matrix:
 Charge =  0 Multiplicity = 1

                         Standard orientation:
 ---------------------------------------------------------------------
 Center     Atomic      Atomic             Coordinates (Angstroms)
 Number     Number       Type             X           Y           Z
 ---------------------------------------------------------------------
      1          6           0        2.795185   -0.408263    0.413731
      2          6           0        1.965024    0.147493    1.571294
      3          6           0        0.523630   -0.362520    1.563305
      4          1           0        2.314494   -0.138361   -0.536550
      5          1           0        2.793363   -1.505915    0.464252
      6          1           0        1.969555    1.243807    1.519407
      7          1           0        2.447849   -0.123599    2.518925
      8          1           0        0.500944   -1.454498    1.638616
      9          1           0        0.019933   -0.079323    0.633419
     10          1           0       -0.051847    0.047226    2.399245
     11          6           0        4.238432    0.092471    0.408138
     12          6           0        5.068593   -0.463285   -0.749425
     13          6           0        6.509987    0.046729   -0.741436
     14          1           0        4.240254    1.190123    0.357618
     15          1           0        4.719123   -0.177430    1.358420
     16          1           0        4.585768   -0.192192   -1.697056
     17          1           0        5.064062   -1.559598   -0.697538
     18          1           0        7.013684   -0.236469    0.188451
     19          1           0        6.532673    1.138706   -0.816746
     20          1           0        7.085464   -0.363017   -1.577375
     21          6           0       -3.398404   -2.312722   -0.232860
     22          6           0       -4.021866   -1.390482    0.614070
     23          6           0       -3.669181   -0.038246    0.573844
     24          6           0       -2.684581    0.358867   -0.329568
     25          6           0       -2.045153   -0.535883   -1.186216
     26          6           0       -2.413774   -1.883237   -1.128720
     27          1           0       -3.678568   -3.361276   -0.194903
     28          1           0       -4.786875   -1.721178    1.310809
     29          1           0       -4.135735    0.696987    1.218187
     30          1           0       -1.286053   -0.176218   -1.870193
     31          1           0       -1.927897   -2.597232   -1.787643
     32          7           0       -2.302773    1.787835   -0.381295
     33          8           0       -1.432386    2.112354   -1.186124
     34          8           0       -2.881130    2.556281    0.383970
 ---------------------------------------------------------------------

 SCF Done:  E(RHF) =  -669.534535617     A.U. after   15 cycles
 E2 =    -0.2093224406D+01 EUMP2 =    -0.67162776002238D+03

 The electronic state is 1-A.
 Alpha  occ. eigenvalues --  -20.60834 -20.60824 -15.85861 -11.31162 -11.27755
 Alpha  occ. eigenvalues --  -11.27743 -11.27500 -11.26769 -11.26759 -11.21477
 Alpha  occ. eigenvalues --  -11.21329 -11.21234 -11.21171 -11.20941 -11.20847
 Alpha  occ. eigenvalues --   -1.59894  -1.39452  -1.19368  -1.08769  -1.08248
 Alpha  occ. eigenvalues --   -1.04770  -1.03349  -0.95822  -0.95606  -0.86847
 Alpha  occ. eigenvalues --   -0.86169  -0.82444  -0.79426  -0.78073  -0.77496
 Alpha  occ. eigenvalues --   -0.72090  -0.71225  -0.70486  -0.65026  -0.64872
 Alpha  occ. eigenvalues --   -0.64769  -0.62122  -0.60750  -0.59182  -0.57445
 Alpha  occ. eigenvalues --   -0.55299  -0.55146  -0.53278  -0.52861  -0.52484
 Alpha  occ. eigenvalues --   -0.52088  -0.49746  -0.48855  -0.48841  -0.47733
 Alpha  occ. eigenvalues --   -0.46454  -0.45623  -0.45530  -0.44827  -0.43611
 Alpha  occ. eigenvalues --   -0.37282  -0.36316
 Alpha virt. eigenvalues --    0.05020   0.11198   0.16536   0.21307   0.23028
 Alpha virt. eigenvalues --    0.24395   0.26483   0.27310   0.27710   0.28099
 Alpha virt. eigenvalues --    0.28512   0.30753   0.31593   0.31895   0.32077

 Mulliken charges:
               1
     1  C   -0.298233
     2  C   -0.299103
     3  C   -0.479527
     4  H    0.149998
     5  H    0.145325
     6  H    0.158896
     7  H    0.149939
     8  H    0.150288
     9  H    0.158042
    10  H    0.160465
    11  C   -0.298486
    12  C   -0.299582
    13  C   -0.475701
    14  H    0.152967
    15  H    0.148912
    16  H    0.152154
    17  H    0.149681
    18  H    0.154733
    19  H    0.156658
    20  H    0.159387
    21  C   -0.170933
    22  C   -0.217943
    23  C   -0.171006
    24  C    0.163148
    25  C   -0.176458
    26  C   -0.215267
    27  H    0.225573
    28  H    0.223394
    29  H    0.275440
    30  H    0.274907
    31  H    0.223591
    32  N    0.490020
    33  O   -0.461651
    34  O   -0.459629
 Sum of Mulliken charges =  -0.00000

 Dipole moment (field-independent basis, Debye):
    X=             -1.4181    Y=             -4.9688    Z=              0.1817  Tot=              5.1704
 Quadrupole moment (field-independent basis, Debye-Ang):
   XX=            -86.8660   YY=            -98.2326   ZZ=            -92.4863
   XY=             12.2367   XZ=             -2.6189   YZ=              2.2687

 Normal termination of Gaussian 16 at Thu May  6 07:32:29 2021.
