 Gaussian 16, Revision A.03,
 Gaussian 16:  EM64L-G16RevA.03 25-Dec-2016

 -------------
 #p 6-31g* mp2
 -------------

 ------------------------------------------------------
 Input file generated by CHIRIPA (05-May-2021 14:53:12)
 ------------------------------------------------------
 Symbolic Z-matrix:
 Charge =  0 Multiplicity = 1

                         Standard orientation:
 ---------------------------------------------------------------------
 Center     Atomic      Atomic             Coordinates (Angstroms)
 Number     Number       Type             X           Y           Z
 ---------------------------------------------------------------------
      1          6           0       -3.619065    0.623247   -0.082456
      2          6           0       -3.505096    1.640034    1.053827
      3          6           0       -2.579752    2.808037    0.711331
      4          1           0       -2.618242    0.240907   -0.325587
      5          1           0       -3.987113    1.131538   -0.984441
      6          1           0       -3.138688    1.129697    1.953781
      7          1           0       -4.506331    2.019856    1.294410
      8          1           0       -2.944979    3.342841   -0.171389
      9          1           0       -1.569565    2.447624    0.491728
     10          1           0       -2.512826    3.522804    1.537460
     11          6           0       -4.540699   -0.550281    0.244883
     12          6           0       -4.654668   -1.567068   -0.891400
     13          6           0       -5.580012   -2.735071   -0.548904
     14          1           0       -4.172651   -1.058572    1.146868
     15          1           0       -5.541523   -0.167941    0.488014
     16          1           0       -3.653434   -1.946890   -1.131983
     17          1           0       -5.021076   -1.056731   -1.791354
     18          1           0       -6.590199   -2.374658   -0.329301
     19          1           0       -5.214785   -3.269874    0.333816
     20          1           0       -5.646938   -3.449838   -1.375033
     21          6           0        4.880228   -1.773619    0.610978
     22          6           0        3.661641   -1.680686    1.291369
     23          6           0        2.716253   -0.717619    0.926275
     24          6           0        3.023752    0.140209   -0.128649
     25          6           0        4.228962    0.072594   -0.825922
     26          6           0        5.159506   -0.898227   -0.443636
     27          1           0        5.608863   -2.524764    0.901270
     28          1           0        3.442045   -2.359200    2.110784
     29          1           0        1.765012   -0.623634    1.435907
     30          1           0        4.419363    0.762953   -1.638676
     31          1           0        6.105054   -0.968090   -0.973829
     32          7           0        2.030770    1.163869   -0.524257
     33          8           0        2.325740    1.907812   -1.457091
     34          8           0        0.976301    1.202887    0.105989
 ---------------------------------------------------------------------

 SCF Done:  E(RHF) =  -669.536357088     A.U. after   15 cycles
 E2 =    -0.2090916394D+01 EUMP2 =    -0.67162727348183D+03

 The electronic state is 1-A.
 Alpha  occ. eigenvalues --  -20.61012 -20.61006 -15.86045 -11.31340 -11.27900
 Alpha  occ. eigenvalues --  -11.27894 -11.27631 -11.26901 -11.26891 -11.21071
 Alpha  occ. eigenvalues --  -11.20704 -11.20682 -11.20520 -11.20382 -11.19489
 Alpha  occ. eigenvalues --   -1.60067  -1.39625  -1.19504  -1.08913  -1.07607
 Alpha  occ. eigenvalues --   -1.04897  -1.02651  -0.95760  -0.95080  -0.86299
 Alpha  occ. eigenvalues --   -0.86092  -0.82596  -0.78759  -0.77652  -0.77369
 Alpha  occ. eigenvalues --   -0.72271  -0.71379  -0.70613  -0.65162  -0.64900
 Alpha  occ. eigenvalues --   -0.64243  -0.62245  -0.60044  -0.58520  -0.56687
 Alpha  occ. eigenvalues --   -0.55402  -0.54352  -0.53230  -0.52989  -0.51794
 Alpha  occ. eigenvalues --   -0.51493  -0.49208  -0.49014  -0.48815  -0.47034
 Alpha  occ. eigenvalues --   -0.45791  -0.45055  -0.44912  -0.44780  -0.42920
 Alpha  occ. eigenvalues --   -0.37482  -0.36497
 Alpha virt. eigenvalues --    0.04880   0.11158   0.16382   0.21278   0.23612
 Alpha virt. eigenvalues --    0.25225   0.27208   0.27404   0.28088   0.28383
 Alpha virt. eigenvalues --    0.29004   0.30859   0.32158   0.32420   0.32569

 Mulliken charges:
               1
     1  C   -0.299556
     2  C   -0.297230
     3  C   -0.488922
     4  H    0.157031
     5  H    0.148368
     6  H    0.147168
     7  H    0.146169
     8  H    0.150658
     9  H    0.187311
    10  H    0.153052
    11  C   -0.297364
    12  C   -0.298835
    13  C   -0.475048
    14  H    0.146135
    15  H    0.147681
    16  H    0.150959
    17  H    0.152015
    18  H    0.154619
    19  H    0.153064
    20  H    0.158324
    21  C   -0.170506
    22  C   -0.218515
    23  C   -0.170816
    24  C    0.157443
    25  C   -0.170297
    26  C   -0.218604
    27  H    0.226177
    28  H    0.223969
    29  H    0.275493
    30  H    0.276044
    31  H    0.223997
    32  N    0.493416
    33  O   -0.458020
    34  O   -0.465381
 Sum of Mulliken charges =  -0.00000

 Dipole moment (field-independent basis, Debye):
    X=              3.8787    Y=             -3.5854    Z=              1.3155  Tot=              5.4433
 Quadrupole moment (field-independent basis, Debye-Ang):
   XX=            -72.9315   YY=            -96.8444   ZZ=            -92.9891
   XY=            -10.4588   XZ=              1.8572   YZ=             -1.1143

 Normal termination of Gaussian 16 at Thu May  6 15:18:20 2021.
