 Gaussian 16, Revision A.03,
 Gaussian 16:  EM64L-G16RevA.03 25-Dec-2016

 -------------
 #p 6-31g* mp2
 -------------

 ------------------------------------------------------
 Input file generated by CHIRIPA (05-May-2021 14:51:09)
 ------------------------------------------------------
 Symbolic Z-matrix:
 Charge =  0 Multiplicity = 1

                         Standard orientation:
 ---------------------------------------------------------------------
 Center     Atomic      Atomic             Coordinates (Angstroms)
 Number     Number       Type             X           Y           Z
 ---------------------------------------------------------------------
      1          6           0        1.964614   -0.461855   -0.580310
      2          6           0        2.457635   -1.685793   -1.352896
      3          6           0        1.317480   -2.484026   -1.985876
      4          1           0        1.264692   -0.787147    0.201509
      5          1           0        1.394706    0.186896   -1.259812
      6          1           0        3.027617   -2.331360   -0.672469
      7          1           0        3.156611   -1.357568   -2.132842
      8          1           0        0.752899   -1.860106   -2.686285
      9          1           0        0.623172   -2.839431   -1.217615
     10          1           0        1.692392   -3.354505   -2.533204
     11          6           0        3.092789    0.346342    0.058256
     12          6           0        2.599768    1.570281    0.830842
     13          6           0        3.739923    2.368514    1.463822
     14          1           0        3.662696   -0.302408    0.737758
     15          1           0        3.792710    0.671635   -0.723562
     16          1           0        1.900791    1.242055    1.610788
     17          1           0        2.029786    2.215847    0.150415
     18          1           0        4.434231    2.723918    0.695561
     19          1           0        4.304503    1.744593    2.164232
     20          1           0        3.365010    3.238992    2.011150
     21          6           0       -2.913088    0.710582    0.163575
     22          6           0       -2.551484    1.439732   -1.130863
     23          6           0       -3.328723    2.743966   -1.311613
     24          1           0       -3.991378    0.500341    0.169561
     25          1           0       -2.719471    1.375167    1.016941
     26          1           0       -2.744421    0.773475   -1.981446
     27          1           0       -1.473897    1.648093   -1.133854
     28          1           0       -3.128289    3.429970   -0.482262
     29          1           0       -4.406032    2.550385   -1.334670
     30          1           0       -3.054724    3.248785   -2.243247
     31          6           0       -2.144314   -0.595069    0.358479
     32          6           0       -2.505919   -1.324220    1.652916
     33          6           0       -1.728680   -2.628452    1.833667
     34          1           0       -2.337932   -1.259655   -0.494887
     35          1           0       -1.066025   -0.384828    0.352493
     36          1           0       -3.583505   -1.532580    1.655908
     37          1           0       -2.312980   -0.657963    2.503500
     38          1           0       -0.651370   -2.434872    1.856724
     39          1           0       -1.929113   -3.314459    1.004315
     40          1           0       -2.002678   -3.133273    2.765301
 ---------------------------------------------------------------------

 SCF Done:  E(RHF) =  -470.733196002     A.U. after   11 cycles
 E2 =    -0.1584061299D+01 EUMP2 =    -0.47231725730121D+03

 The electronic state is 1-A.
 Alpha  occ. eigenvalues --  -11.21675 -11.21611 -11.21590 -11.21573 -11.21446
 Alpha  occ. eigenvalues --  -11.21385 -11.21341 -11.21251 -11.21124 -11.21122
 Alpha  occ. eigenvalues --  -11.21053 -11.21029  -1.08487  -1.08381  -1.03560
 Alpha  occ. eigenvalues --   -1.03515  -0.96007  -0.95961  -0.87025  -0.86978
 Alpha  occ. eigenvalues --   -0.79652  -0.79558  -0.78471  -0.78031  -0.65164
 Alpha  occ. eigenvalues --   -0.64975  -0.60975  -0.60899  -0.59396  -0.59309
 Alpha  occ. eigenvalues --   -0.57646  -0.57550  -0.55306  -0.55241  -0.52702
 Alpha  occ. eigenvalues --   -0.52666  -0.52476  -0.52351  -0.49964  -0.49896
 Alpha  occ. eigenvalues --   -0.48060  -0.47837  -0.46746  -0.46610  -0.46346
 Alpha  occ. eigenvalues --   -0.45732  -0.45685  -0.45018  -0.43815  -0.43755
 Alpha virt. eigenvalues --    0.20305   0.22494   0.23562   0.24345   0.24988
 Alpha virt. eigenvalues --    0.26199   0.26764   0.27740   0.28484   0.30550
 Alpha virt. eigenvalues --    0.30850   0.31318   0.31721   0.31808   0.32008

 Mulliken charges:
               1
     1  C   -0.306046
     2  C   -0.299102
     3  C   -0.477640
     4  H    0.155320
     5  H    0.151050
     6  H    0.151782
     7  H    0.151910
     8  H    0.155387
     9  H    0.157840
    10  H    0.159888
    11  C   -0.297541
    12  C   -0.300140
    13  C   -0.475621
    14  H    0.149608
    15  H    0.149974
    16  H    0.151129
    17  H    0.151719
    18  H    0.155499
    19  H    0.155415
    20  H    0.160360
    21  C   -0.297591
    22  C   -0.300832
    23  C   -0.475681
    24  H    0.149275
    25  H    0.149216
    26  H    0.151777
    27  H    0.152865
    28  H    0.155187
    29  H    0.155211
    30  H    0.159900
    31  C   -0.307388
    32  C   -0.299320
    33  C   -0.477895
    34  H    0.149631
    35  H    0.159965
    36  H    0.151962
    37  H    0.151455
    38  H    0.154982
    39  H    0.155870
    40  H    0.160619
 Sum of Mulliken charges =  -0.00000

 Dipole moment (field-independent basis, Debye):
    X=              0.0268    Y=             -0.0055    Z=             -0.0063  Tot=              0.0280
 Quadrupole moment (field-independent basis, Debye-Ang):
   XX=            -85.0006   YY=            -85.6294   ZZ=            -84.1845
   XY=              0.4480   XZ=             -0.1891   YZ=             -0.3064

 Normal termination of Gaussian 16 at Thu May  6 02:08:11 2021.
