 Gaussian 16, Revision A.03,
 Gaussian 16:  EM64L-G16RevA.03 25-Dec-2016

 -------------
 #p 6-31g* mp2
 -------------

 ------------------------------------------------------
 Input file generated by CHIRIPA (05-May-2021 14:53:13)
 ------------------------------------------------------
 Symbolic Z-matrix:
 Charge =  0 Multiplicity = 1

                         Standard orientation:
 ---------------------------------------------------------------------
 Center     Atomic      Atomic             Coordinates (Angstroms)
 Number     Number       Type             X           Y           Z
 ---------------------------------------------------------------------
      1          6           0        4.385965    0.321589    0.172259
      2          6           0        5.851034    0.038588   -0.161609
      3          6           0        6.810094    1.028193    0.500719
      4          1           0        4.135567    1.343835   -0.142797
      5          1           0        4.252688    0.289030    1.262476
      6          1           0        5.981224    0.070305   -1.250949
      7          1           0        6.097920   -0.983170    0.154104
      8          1           0        6.709468    0.991694    1.590280
      9          1           0        6.592109    2.051154    0.177244
     10          1           0        7.852008    0.807423    0.248655
     11          6           0        3.414997   -0.659313   -0.482554
     12          6           0        1.949928   -0.376311   -0.148686
     13          6           0        0.990868   -1.365917   -0.811014
     14          1           0        3.548273   -0.626753   -1.572771
     15          1           0        3.665395   -1.681558   -0.167499
     16          1           0        1.703042    0.645446   -0.464400
     17          1           0        1.819738   -0.408028    0.940653
     18          1           0        1.208853   -2.388877   -0.487539
     19          1           0        1.091494   -1.329417   -1.900575
     20          1           0       -0.051046   -1.145147   -0.558951
     21          6           0       -3.266749    2.613974   -0.275234
     22          6           0       -3.442457    1.717657   -1.334604
     23          6           0       -3.323180    0.340332   -1.126529
     24          6           0       -3.026030   -0.108032    0.159536
     25          6           0       -2.845282    0.759846    1.235364
     26          6           0       -2.969248    2.133055    1.004113
     27          1           0       -3.361227    3.682315   -0.445873
     28          1           0       -3.673569    2.088298   -2.329219
     29          1           0       -3.454188   -0.375752   -1.928699
     30          1           0       -2.615619    0.360370    2.215717
     31          1           0       -2.832265    2.826820    1.828717
     32          7           0       -2.897275   -1.563966    0.392084
     33          8           0       -2.634877   -1.933645    1.534503
     34          8           0       -3.061195   -2.307880   -0.572468
 ---------------------------------------------------------------------

 SCF Done:  E(RHF) =  -669.535480981     A.U. after   15 cycles
 E2 =    -0.2091538213D+01 EUMP2 =    -0.67162701919373D+03

 The electronic state is 1-A.
 Alpha  occ. eigenvalues --  -20.60790 -20.60783 -15.85837 -11.31216 -11.27785
 Alpha  occ. eigenvalues --  -11.27781 -11.27528 -11.26798 -11.26789 -11.21511
 Alpha  occ. eigenvalues --  -11.21359 -11.21278 -11.21173 -11.21023 -11.20673
 Alpha  occ. eigenvalues --   -1.59867  -1.39417  -1.19391  -1.08787  -1.08268
 Alpha  occ. eigenvalues --   -1.04789  -1.03343  -0.95783  -0.95617  -0.86796
 Alpha  occ. eigenvalues --   -0.86189  -0.82444  -0.79408  -0.78083  -0.77491
 Alpha  occ. eigenvalues --   -0.72057  -0.71217  -0.70493  -0.65040  -0.64898
 Alpha  occ. eigenvalues --   -0.64791  -0.62135  -0.60734  -0.59166  -0.57406
 Alpha  occ. eigenvalues --   -0.55292  -0.55061  -0.53142  -0.52881  -0.52457
 Alpha  occ. eigenvalues --   -0.52201  -0.49715  -0.48818  -0.48811  -0.47728
 Alpha  occ. eigenvalues --   -0.46445  -0.45622  -0.45550  -0.44817  -0.43603
 Alpha  occ. eigenvalues --   -0.37363  -0.36389
 Alpha virt. eigenvalues --    0.05036   0.11256   0.16514   0.21401   0.22999
 Alpha virt. eigenvalues --    0.24359   0.26807   0.27306   0.27613   0.27898
 Alpha virt. eigenvalues --    0.28345   0.30593   0.31611   0.31663   0.32020

 Mulliken charges:
               1
     1  C   -0.297872
     2  C   -0.299553
     3  C   -0.475552
     4  H    0.147502
     5  H    0.149422
     6  H    0.151577
     7  H    0.152888
     8  H    0.155097
     9  H    0.154020
    10  H    0.160164
    11  C   -0.298408
    12  C   -0.300162
    13  C   -0.472100
    14  H    0.148662
    15  H    0.151591
    16  H    0.147811
    17  H    0.152592
    18  H    0.162058
    19  H    0.152923
    20  H    0.155608
    21  C   -0.170689
    22  C   -0.218400
    23  C   -0.171371
    24  C    0.154833
    25  C   -0.171278
    26  C   -0.218352
    27  H    0.225696
    28  H    0.223570
    29  H    0.276180
    30  H    0.275882
    31  H    0.223622
    32  N    0.491065
    33  O   -0.459825
    34  O   -0.459203
 Sum of Mulliken charges =  -0.00000

 Dipole moment (field-independent basis, Debye):
    X=             -0.5053    Y=              5.0700    Z=             -0.8115  Tot=              5.1594
 Quadrupole moment (field-independent basis, Debye-Ang):
   XX=            -93.5025   YY=            -96.1780   ZZ=            -89.8972
   XY=            -16.2545   XZ=              3.3217   YZ=              1.0977

 Normal termination of Gaussian 16 at Thu May  6 18:40:53 2021.
