 Gaussian 16, Revision A.03,
 Gaussian 16:  EM64L-G16RevA.03 25-Dec-2016

 -------------
 #p 6-31g* mp2
 -------------

 ------------------------------------------------------
 Input file generated by CHIRIPA (05-May-2021 14:53:16)
 ------------------------------------------------------
 Symbolic Z-matrix:
 Charge =  0 Multiplicity = 1

                         Standard orientation:
 ---------------------------------------------------------------------
 Center     Atomic      Atomic             Coordinates (Angstroms)
 Number     Number       Type             X           Y           Z
 ---------------------------------------------------------------------
      1          6           0        3.159514    0.785055    0.065548
      2          6           0        2.314617    1.481153   -1.001964
      3          6           0        1.928922    2.908555   -0.612662
      4          1           0        2.603053    0.770660    1.012696
      5          1           0        4.068639    1.375219    0.246087
      6          1           0        1.408021    0.889130   -1.181431
      7          1           0        2.873076    1.493723   -1.946730
      8          1           0        2.823371    3.519375   -0.453098
      9          1           0        1.349992    2.911347    0.316549
     10          1           0        1.325276    3.387464   -1.389912
     11          6           0        3.552989   -0.642708   -0.309148
     12          6           0        4.397886   -1.338806    0.758364
     13          6           0        4.783581   -2.766208    0.369062
     14          1           0        2.643864   -1.232872   -0.489687
     15          1           0        4.109450   -0.628313   -1.256296
     16          1           0        3.839427   -1.351375    1.703130
     17          1           0        5.304482   -0.746783    0.937831
     18          1           0        5.362511   -2.769000   -0.560149
     19          1           0        3.889132   -3.377028    0.209498
     20          1           0        5.387227   -3.245117    1.146312
     21          6           0       -1.565324    2.081231    0.921679
     22          6           0       -1.507111    1.751191   -0.436337
     23          6           0       -2.089157    0.569807   -0.905485
     24          6           0       -2.724234   -0.262186    0.015251
     25          6           0       -2.798913    0.038995    1.374296
     26          6           0       -2.209902    1.225588    1.821075
     27          1           0       -1.110470    3.000982    1.277436
     28          1           0       -1.007182    2.413799   -1.137099
     29          1           0       -2.058808    0.289908   -1.951503
     30          1           0       -3.304217   -0.641509    2.048832
     31          1           0       -2.256653    1.479344    2.876285
     32          7           0       -3.344107   -1.515621   -0.469575
     33          8           0       -3.897741   -2.231736    0.361873
     34          8           0       -3.264591   -1.758215   -1.671849
 ---------------------------------------------------------------------

 SCF Done:  E(RHF) =  -669.534843919     A.U. after   15 cycles
 E2 =    -0.2093099470D+01 EUMP2 =    -0.67162794338897D+03

 The electronic state is 1-A.
 Alpha  occ. eigenvalues --  -20.60798 -20.60793 -15.85851 -11.31229 -11.27789
 Alpha  occ. eigenvalues --  -11.27776 -11.27510 -11.26816 -11.26756 -11.22242
 Alpha  occ. eigenvalues --  -11.22091 -11.21861 -11.21825 -11.21661 -11.21190
 Alpha  occ. eigenvalues --   -1.59874  -1.39427  -1.19400  -1.08886  -1.08769
 Alpha  occ. eigenvalues --   -1.04808  -1.04010  -0.96498  -0.95621  -0.87520
 Alpha  occ. eigenvalues --   -0.86183  -0.82456  -0.80089  -0.78631  -0.77502
 Alpha  occ. eigenvalues --   -0.72069  -0.71197  -0.70511  -0.65552  -0.65045
 Alpha  occ. eigenvalues --   -0.64790  -0.62226  -0.61340  -0.59882  -0.58085
 Alpha  occ. eigenvalues --   -0.55799  -0.55287  -0.53267  -0.53132  -0.52944
 Alpha  occ. eigenvalues --   -0.52711  -0.50413  -0.48828  -0.48823  -0.48399
 Alpha  occ. eigenvalues --   -0.47103  -0.46186  -0.46073  -0.44829  -0.44254
 Alpha  occ. eigenvalues --   -0.37354  -0.36371
 Alpha virt. eigenvalues --    0.04984   0.11192   0.16362   0.20186   0.22781
 Alpha virt. eigenvalues --    0.24079   0.25738   0.26192   0.26471   0.27783
 Alpha virt. eigenvalues --    0.29065   0.29777   0.31300   0.31548   0.32305

 Mulliken charges:
               1
     1  C   -0.298149
     2  C   -0.302218
     3  C   -0.481031
     4  H    0.149595
     5  H    0.149832
     6  H    0.154361
     7  H    0.154481
     8  H    0.160720
     9  H    0.150730
    10  H    0.153119
    11  C   -0.299420
    12  C   -0.299952
    13  C   -0.476262
    14  H    0.152729
    15  H    0.150449
    16  H    0.151878
    17  H    0.151499
    18  H    0.155587
    19  H    0.157571
    20  H    0.160849
    21  C   -0.174556
    22  C   -0.215253
    23  C   -0.174264
    24  C    0.158809
    25  C   -0.171265
    26  C   -0.219047
    27  H    0.226772
    28  H    0.229734
    29  H    0.276003
    30  H    0.275660
    31  H    0.223614
    32  N    0.488021
    33  O   -0.460362
    34  O   -0.460234
 Sum of Mulliken charges =  -0.00000

 Dipole moment (field-independent basis, Debye):
    X=              2.2579    Y=              4.3383    Z=              1.7181  Tot=              5.1837
 Quadrupole moment (field-independent basis, Debye-Ang):
   XX=           -106.1323   YY=            -98.6025   ZZ=            -90.2878
   XY=            -11.8181   XZ=             -6.5987   YZ=             -1.7622

 Normal termination of Gaussian 16 at Thu May  6 09:04:50 2021.
