 Gaussian 16, Revision A.03,
 Gaussian 16:  EM64L-G16RevA.03 25-Dec-2016

 -------------
 #p 6-31g* mp2
 -------------

 ------------------------------------------------------
 Input file generated by CHIRIPA (05-May-2021 14:53:14)
 ------------------------------------------------------
 Symbolic Z-matrix:
 Charge =  0 Multiplicity = 1

                         Standard orientation:
 ---------------------------------------------------------------------
 Center     Atomic      Atomic             Coordinates (Angstroms)
 Number     Number       Type             X           Y           Z
 ---------------------------------------------------------------------
      1          6           0       -3.711740    1.259394   -0.036103
      2          6           0       -2.385386    1.681664   -0.668922
      3          6           0       -2.108158    3.177708   -0.517950
      4          1           0       -4.528637    1.833245   -0.494709
      5          1           0       -3.702664    1.525824    1.029884
      6          1           0       -2.396418    1.413266   -1.733091
      7          1           0       -1.571572    1.106604   -0.208891
      8          1           0       -2.070258    3.457663    0.539778
      9          1           0       -2.899790    3.766069   -0.993083
     10          1           0       -1.155081    3.457763   -0.977377
     11          6           0       -4.002969   -0.233434   -0.178851
     12          6           0       -5.329322   -0.655704    0.453968
     13          6           0       -5.606550   -2.151748    0.302996
     14          1           0       -4.012045   -0.499864   -1.244838
     15          1           0       -3.186072   -0.807285    0.279755
     16          1           0       -6.143136   -0.080644   -0.006063
     17          1           0       -5.318291   -0.387307    1.518137
     18          1           0       -4.814918   -2.740109    0.778129
     19          1           0       -5.644451   -2.431704   -0.754732
     20          1           0       -6.559627   -2.431803    0.762423
     21          6           0        5.299305    0.665062    0.156738
     22          6           0        4.238392    1.234597    0.868507
     23          6           0        2.967666    0.652612    0.835438
     24          6           0        2.792580   -0.503805    0.076931
     25          6           0        3.829638   -1.095010   -0.642985
     26          6           0        5.091907   -0.495877   -0.595410
     27          1           0        6.283151    1.123823    0.188061
     28          1           0        4.396542    2.136175    1.453479
     29          1           0        2.128734    1.072560    1.376968
     30          1           0        3.641238   -1.993995   -1.217223
     31          1           0        5.913981   -0.940383   -1.149174
     32          7           0        1.451795   -1.129004    0.034244
     33          8           0        1.323505   -2.147600   -0.641508
     34          8           0        0.554566   -0.588601    0.677347
 ---------------------------------------------------------------------

 SCF Done:  E(RHF) =  -669.536432013     A.U. after   15 cycles
 E2 =    -0.2091035705D+01 EUMP2 =    -0.67162746771739D+03

 The electronic state is 1-A.
 Alpha  occ. eigenvalues --  -20.61009 -20.61002 -15.86031 -11.31321 -11.27881
 Alpha  occ. eigenvalues --  -11.27877 -11.27615 -11.26883 -11.26873 -11.20670
 Alpha  occ. eigenvalues --  -11.20416 -11.20355 -11.20325 -11.20197 -11.20184
 Alpha  occ. eigenvalues --   -1.60059  -1.39618  -1.19487  -1.08897  -1.07374
 Alpha  occ. eigenvalues --   -1.04879  -1.02571  -0.95744  -0.95054  -0.86281
 Alpha  occ. eigenvalues --   -0.86072  -0.82581  -0.78616  -0.77638  -0.77157
 Alpha  occ. eigenvalues --   -0.72258  -0.71366  -0.70597  -0.65145  -0.64882
 Alpha  occ. eigenvalues --   -0.63995  -0.62227  -0.59965  -0.58425  -0.56657
 Alpha  occ. eigenvalues --   -0.55386  -0.54347  -0.53212  -0.52971  -0.51786
 Alpha  occ. eigenvalues --   -0.51476  -0.49042  -0.49023  -0.48962  -0.46954
 Alpha  occ. eigenvalues --   -0.45688  -0.45071  -0.44721  -0.44438  -0.42805
 Alpha  occ. eigenvalues --   -0.37463  -0.36479
 Alpha virt. eigenvalues --    0.04854   0.11177   0.16324   0.21278   0.23902
 Alpha virt. eigenvalues --    0.25157   0.27220   0.27631   0.28090   0.28765
 Alpha virt. eigenvalues --    0.28929   0.30854   0.32153   0.32420   0.32602

 Mulliken charges:
               1
     1  C   -0.296408
     2  C   -0.311567
     3  C   -0.474509
     4  H    0.144116
     5  H    0.146905
     6  H    0.148249
     7  H    0.177221
     8  H    0.151723
     9  H    0.151885
    10  H    0.154345
    11  C   -0.301706
    12  C   -0.298913
    13  C   -0.475389
    14  H    0.147544
    15  H    0.164985
    16  H    0.148029
    17  H    0.149937
    18  H    0.158270
    19  H    0.154188
    20  H    0.156309
    21  C   -0.170512
    22  C   -0.218552
    23  C   -0.170572
    24  C    0.158073
    25  C   -0.170674
    26  C   -0.218584
    27  H    0.226130
    28  H    0.224048
    29  H    0.275778
    30  H    0.275911
    31  H    0.223920
    32  N    0.490187
    33  O   -0.458097
    34  O   -0.462273
 Sum of Mulliken charges =  -0.00000

 Dipole moment (field-independent basis, Debye):
    X=              5.0481    Y=              2.0043    Z=              0.1945  Tot=              5.4349
 Quadrupole moment (field-independent basis, Debye-Ang):
   XX=            -69.2412   YY=            -96.5359   ZZ=            -92.8151
   XY=              2.4125   XZ=             -0.1615   YZ=              2.6454

 Normal termination of Gaussian 16 at Thu May  6 08:57:01 2021.
