 Gaussian 16, Revision A.03,
 Gaussian 16:  EM64L-G16RevA.03 25-Dec-2016

 -------------
 #p 6-31g* mp2
 -------------

 ------------------------------------------------------
 Input file generated by CHIRIPA (05-May-2021 14:53:11)
 ------------------------------------------------------
 Symbolic Z-matrix:
 Charge =  0 Multiplicity = 1

                         Standard orientation:
 ---------------------------------------------------------------------
 Center     Atomic      Atomic             Coordinates (Angstroms)
 Number     Number       Type             X           Y           Z
 ---------------------------------------------------------------------
      1          6           0       -3.712073    0.665643    0.483843
      2          6           0       -3.865768    2.007760   -0.232456
      3          6           0       -4.299841    3.133070    0.707253
      4          1           0       -4.665783    0.400131    0.960169
      5          1           0       -2.977181    0.772236    1.293761
      6          1           0       -4.599128    1.898313   -1.041665
      7          1           0       -2.911636    2.270016   -0.707292
      8          1           0       -3.565848    3.271164    1.507744
      9          1           0       -5.262929    2.897348    1.171471
     10          1           0       -4.403608    4.083447    0.174454
     11          6           0       -3.278568   -0.469229   -0.442367
     12          6           0       -3.124873   -1.811347    0.273933
     13          6           0       -2.690800   -2.936656   -0.665777
     14          1           0       -4.013460   -0.575822   -1.252285
     15          1           0       -2.324859   -0.203717   -0.918692
     16          1           0       -4.079006   -2.073603    0.748769
     17          1           0       -2.391513   -1.701899    1.083142
     18          1           0       -1.727713   -2.700934   -1.129995
     19          1           0       -3.424793   -3.074750   -1.466267
     20          1           0       -2.587034   -3.887033   -0.132977
     21          6           0        1.144743   -2.022894    0.234848
     22          6           0        0.944708   -1.083560   -0.782088
     23          6           0        1.817132   -0.001259   -0.930578
     24          6           0        2.884046    0.111424   -0.040473
     25          6           0        3.109908   -0.807955    0.982766
     26          6           0        2.224801   -1.882341    1.112483
     27          1           0        0.462097   -2.860577    0.342907
     28          1           0        0.106770   -1.190185   -1.465122
     29          1           0        1.685712    0.740503   -1.708997
     30          1           0        3.954148   -0.675008    1.648351
     31          1           0        2.382606   -2.610314    1.903177
     32          7           0        3.814356    1.253018   -0.187734
     33          8           0        4.746759    1.329787    0.609364
     34          8           0        3.593514    2.049416   -1.097469
 ---------------------------------------------------------------------

 SCF Done:  E(RHF) =  -669.535112835     A.U. after   15 cycles
 E2 =    -0.2092523728D+01 EUMP2 =    -0.67162763656361D+03

 The electronic state is 1-A.
 Alpha  occ. eigenvalues --  -20.60775 -20.60770 -15.85829 -11.31199 -11.27776
 Alpha  occ. eigenvalues --  -11.27771 -11.27483 -11.26777 -11.26763 -11.22584
 Alpha  occ. eigenvalues --  -11.22361 -11.22220 -11.22030 -11.21934 -11.21359
 Alpha  occ. eigenvalues --   -1.59851  -1.39405  -1.19374  -1.09167  -1.08761
 Alpha  occ. eigenvalues --   -1.04783  -1.04271  -0.96741  -0.95595  -0.87754
 Alpha  occ. eigenvalues --   -0.86183  -0.82432  -0.80354  -0.78924  -0.77483
 Alpha  occ. eigenvalues --   -0.72048  -0.71175  -0.70488  -0.65892  -0.65023
 Alpha  occ. eigenvalues --   -0.64757  -0.62212  -0.61561  -0.60137  -0.58318
 Alpha  occ. eigenvalues --   -0.56088  -0.55211  -0.53424  -0.53170  -0.53099
 Alpha  occ. eigenvalues --   -0.52876  -0.50687  -0.48824  -0.48802  -0.48634
 Alpha  occ. eigenvalues --   -0.47370  -0.46467  -0.46347  -0.44809  -0.44502
 Alpha  occ. eigenvalues --   -0.37342  -0.36379
 Alpha virt. eigenvalues --    0.05043   0.11178   0.16468   0.19097   0.22840
 Alpha virt. eigenvalues --    0.23963   0.24767   0.26237   0.26585   0.28261
 Alpha virt. eigenvalues --    0.29424   0.29939   0.30735   0.31288   0.31560

 Mulliken charges:
               1
     1  C   -0.299012
     2  C   -0.300298
     3  C   -0.476279
     4  H    0.151147
     5  H    0.152071
     6  H    0.152300
     7  H    0.152594
     8  H    0.156983
     9  H    0.155367
    10  H    0.162545
    11  C   -0.299577
    12  C   -0.302001
    13  C   -0.480877
    14  H    0.151809
    15  H    0.144893
    16  H    0.157049
    17  H    0.152131
    18  H    0.144892
    19  H    0.162429
    20  H    0.161328
    21  C   -0.174108
    22  C   -0.223428
    23  C   -0.171681
    24  C    0.158510
    25  C   -0.170718
    26  C   -0.219100
    27  H    0.230413
    28  H    0.228448
    29  H    0.275682
    30  H    0.275661
    31  H    0.223595
    32  N    0.487998
    33  O   -0.460352
    34  O   -0.460414
 Sum of Mulliken charges =  -0.00000

 Dipole moment (field-independent basis, Debye):
    X=             -3.4538    Y=             -3.9667    Z=              0.5822  Tot=              5.2917
 Quadrupole moment (field-independent basis, Debye-Ang):
   XX=           -111.2208   YY=            -96.3490   ZZ=            -92.3412
   XY=            -12.5775   XZ=              4.3465   YZ=             -1.8023

 Normal termination of Gaussian 16 at Wed May  5 18:28:35 2021.
