 Gaussian 16, Revision A.03,
 Gaussian 16:  EM64L-G16RevA.03 25-Dec-2016

 -------------
 #p 6-31g* mp2
 -------------

 ------------------------------------------------------
 Input file generated by CHIRIPA (05-May-2021 14:53:17)
 ------------------------------------------------------
 Symbolic Z-matrix:
 Charge =  0 Multiplicity = 1

                         Standard orientation:
 ---------------------------------------------------------------------
 Center     Atomic      Atomic             Coordinates (Angstroms)
 Number     Number       Type             X           Y           Z
 ---------------------------------------------------------------------
      1          6           0       -2.804456    0.063343   -0.154797
      2          6           0       -4.172539    0.027296    0.527138
      3          6           0       -4.682536   -1.396123    0.754243
      4          1           0       -2.867515   -0.462981   -1.117061
      5          1           0       -2.081944   -0.492491    0.458734
      6          1           0       -4.891942    0.584206   -0.086806
      7          1           0       -4.106264    0.553932    1.487804
      8          1           0       -3.986934   -1.958434    1.385547
      9          1           0       -4.777076   -1.927988   -0.198009
     10          1           0       -5.661879   -1.398516    1.242856
     11          6           0       -2.281238    1.479425   -0.388639
     12          6           0       -0.913156    1.515472   -1.070574
     13          6           0       -0.403158    2.938890   -1.297679
     14          1           0       -3.003751    2.035258   -1.002169
     15          1           0       -2.218180    2.005748    0.573625
     16          1           0       -0.979431    0.988836   -2.031239
     17          1           0       -0.193753    0.958562   -0.456630
     18          1           0       -0.308619    3.470755   -0.345427
     19          1           0       -1.098761    3.501201   -1.928983
     20          1           0        0.576184    2.941283   -1.786292
     21          6           0        2.871947    1.432476    1.412434
     22          6           0        1.880849    0.644924    2.007420
     23          6           0        1.382905   -0.484915    1.351627
     24          6           0        1.901007   -0.799391    0.096253
     25          6           0        2.888613   -0.034634   -0.522673
     26          6           0        3.371785    1.090787    0.151509
     27          1           0        3.253023    2.308447    1.929012
     28          1           0        1.490810    0.907884    2.986586
     29          1           0        0.615765   -1.112172    1.789191
     30          1           0        3.257834   -0.322064   -1.499648
     31          1           0        4.141497    1.700570   -0.312981
     32          7           0        1.381676   -1.993163   -0.607739
     33          8           0        1.854665   -2.248858   -1.712972
     34          8           0        0.511469   -2.650540   -0.040966
 ---------------------------------------------------------------------

 SCF Done:  E(RHF) =  -669.534498850     A.U. after   15 cycles
 E2 =    -0.2094968201D+01 EUMP2 =    -0.67162946705016D+03

 The electronic state is 1-A.
 Alpha  occ. eigenvalues --  -20.60852 -20.60841 -15.85887 -11.31254 -11.27861
 Alpha  occ. eigenvalues --  -11.27843 -11.27627 -11.26907 -11.26897 -11.21353
 Alpha  occ. eigenvalues --  -11.21348 -11.21220 -11.21091 -11.21043 -11.20710
 Alpha  occ. eigenvalues --   -1.59912  -1.39466  -1.19491  -1.08862  -1.08213
 Alpha  occ. eigenvalues --   -1.04891  -1.03328  -0.95783  -0.95690  -0.86799
 Alpha  occ. eigenvalues --   -0.86279  -0.82522  -0.79412  -0.78020  -0.77561
 Alpha  occ. eigenvalues --   -0.72113  -0.71234  -0.70577  -0.65129  -0.64908
 Alpha  occ. eigenvalues --   -0.64851  -0.62230  -0.60777  -0.59181  -0.57403
 Alpha  occ. eigenvalues --   -0.55380  -0.55100  -0.53279  -0.52972  -0.52465
 Alpha  occ. eigenvalues --   -0.52191  -0.49714  -0.48874  -0.48868  -0.47695
 Alpha  occ. eigenvalues --   -0.46407  -0.45570  -0.45496  -0.44792  -0.43578
 Alpha  occ. eigenvalues --   -0.37379  -0.36464
 Alpha virt. eigenvalues --    0.04934   0.11064   0.16434   0.21069   0.23040
 Alpha virt. eigenvalues --    0.24341   0.26060   0.27272   0.27491   0.28053
 Alpha virt. eigenvalues --    0.28716   0.30971   0.31533   0.31757   0.32028

 Mulliken charges:
               1
     1  C   -0.300321
     2  C   -0.299668
     3  C   -0.475219
     4  H    0.155508
     5  H    0.150648
     6  H    0.151176
     7  H    0.147479
     8  H    0.156962
     9  H    0.158517
    10  H    0.157903
    11  C   -0.296918
    12  C   -0.309527
    13  C   -0.472700
    14  H    0.149063
    15  H    0.144003
    16  H    0.154868
    17  H    0.161051
    18  H    0.150253
    19  H    0.154995
    20  H    0.156455
    21  C   -0.170888
    22  C   -0.214056
    23  C   -0.179459
    24  C    0.161702
    25  C   -0.171745
    26  C   -0.216188
    27  H    0.226461
    28  H    0.224115
    29  H    0.275898
    30  H    0.276135
    31  H    0.224302
    32  N    0.489941
    33  O   -0.460169
    34  O   -0.460576
 Sum of Mulliken charges =  -0.00000

 Dipole moment (field-independent basis, Debye):
    X=              1.9464    Y=              4.0650    Z=              2.4492  Tot=              5.1295
 Quadrupole moment (field-independent basis, Debye-Ang):
   XX=            -86.3829   YY=           -103.2718   ZZ=            -90.8397
   XY=              7.2146   XZ=              2.9962   YZ=             -1.9904

 Normal termination of Gaussian 16 at Wed May  5 15:43:52 2021.
