 Gaussian 16, Revision A.03,
 Gaussian 16:  EM64L-G16RevA.03 25-Dec-2016

 -------------
 #p 6-31g* mp2
 -------------

 ------------------------------------------------------
 Input file generated by CHIRIPA (05-May-2021 14:53:15)
 ------------------------------------------------------
 Symbolic Z-matrix:
 Charge =  0 Multiplicity = 1

                         Standard orientation:
 ---------------------------------------------------------------------
 Center     Atomic      Atomic             Coordinates (Angstroms)
 Number     Number       Type             X           Y           Z
 ---------------------------------------------------------------------
      1          6           0        3.067878    0.027691    0.834563
      2          6           0        1.786755   -0.806282    0.799937
      3          6           0        0.709977   -0.275327    1.746736
      4          1           0        3.457671    0.046909    1.861518
      5          1           0        2.827590    1.067250    0.571935
      6          1           0        2.029614   -1.844249    1.061203
      7          1           0        1.400071   -0.823676   -0.227092
      8          1           0        0.438985    0.752433    1.484302
      9          1           0        1.072105   -0.273939    2.779917
     10          1           0       -0.197166   -0.886306    1.706014
     11          6           0        4.153771   -0.490616   -0.106671
     12          6           0        5.434893    0.343357   -0.072046
     13          6           0        6.511671   -0.187598   -1.018845
     14          1           0        4.394058   -1.530176    0.155956
     15          1           0        3.763977   -0.509834   -1.133626
     16          1           0        5.821577    0.360751    0.954983
     17          1           0        5.192034    1.381324   -0.333312
     18          1           0        6.149543   -0.188987   -2.052026
     19          1           0        6.782663   -1.215358   -0.756410
     20          1           0        7.418814    0.423380   -0.978123
     21          6           0       -3.897496   -2.100834   -0.252834
     22          6           0       -2.608585   -1.942081   -0.772475
     23          6           0       -2.002278   -0.682544   -0.794990
     24          6           0       -2.716880    0.401413   -0.287378
     25          6           0       -4.002377    0.275393    0.236939
     26          6           0       -4.589059   -0.993543    0.249329
     27          1           0       -4.360868   -3.082923   -0.239275
     28          1           0       -2.069142   -2.800236   -1.163136
     29          1           0       -1.005614   -0.531274   -1.191468
     30          1           0       -4.515189    1.149619    0.619260
     31          1           0       -5.590166   -1.113859    0.653499
     32          7           0       -2.085398    1.739804   -0.305855
     33          8           0       -2.736012    2.678920    0.147355
     34          8           0       -0.951787    1.824374   -0.773197
 ---------------------------------------------------------------------

 SCF Done:  E(RHF) =  -669.535704284     A.U. after   15 cycles
 E2 =    -0.2093117036D+01 EUMP2 =    -0.67162882131994D+03

 The electronic state is 1-A.
 Alpha  occ. eigenvalues --  -20.60909 -20.60904 -15.85927 -11.31220 -11.27803
 Alpha  occ. eigenvalues --  -11.27787 -11.27544 -11.26801 -11.26792 -11.21433
 Alpha  occ. eigenvalues --  -11.21313 -11.21110 -11.20987 -11.20846 -11.20610
 Alpha  occ. eigenvalues --   -1.59964  -1.39523  -1.19407  -1.08811  -1.08129
 Alpha  occ. eigenvalues --   -1.04806  -1.03247  -0.95725  -0.95613  -0.86703
 Alpha  occ. eigenvalues --   -0.86196  -0.82496  -0.79334  -0.77955  -0.77549
 Alpha  occ. eigenvalues --   -0.72163  -0.71283  -0.70525  -0.65067  -0.64874
 Alpha  occ. eigenvalues --   -0.64681  -0.62180  -0.60604  -0.59079  -0.57324
 Alpha  occ. eigenvalues --   -0.55317  -0.54931  -0.53217  -0.52887  -0.52330
 Alpha  occ. eigenvalues --   -0.52063  -0.49618  -0.48915  -0.48910  -0.47647
 Alpha  occ. eigenvalues --   -0.46382  -0.45513  -0.45414  -0.44812  -0.43506
 Alpha  occ. eigenvalues --   -0.37371  -0.36371
 Alpha virt. eigenvalues --    0.04946   0.11216   0.16438   0.20748   0.23169
 Alpha virt. eigenvalues --    0.24282   0.26054   0.27366   0.27829   0.28210
 Alpha virt. eigenvalues --    0.28904   0.30474   0.31548   0.31855   0.32170

 Mulliken charges:
               1
     1  C   -0.299628
     2  C   -0.298175
     3  C   -0.487517
     4  H    0.148703
     5  H    0.160188
     6  H    0.147344
     7  H    0.145296
     8  H    0.172511
     9  H    0.153388
    10  H    0.154688
    11  C   -0.298214
    12  C   -0.299938
    13  C   -0.475591
    14  H    0.146486
    15  H    0.149102
    16  H    0.151391
    17  H    0.154958
    18  H    0.154984
    19  H    0.153601
    20  H    0.160113
    21  C   -0.170312
    22  C   -0.221119
    23  C   -0.170452
    24  C    0.158907
    25  C   -0.170320
    26  C   -0.218911
    27  H    0.225882
    28  H    0.224162
    29  H    0.280557
    30  H    0.275674
    31  H    0.223599
    32  N    0.487902
    33  O   -0.458728
    34  O   -0.460529
 Sum of Mulliken charges =  -0.00000

 Dipole moment (field-independent basis, Debye):
    X=             -2.3200    Y=             -4.5415    Z=              0.0389  Tot=              5.0999
 Quadrupole moment (field-independent basis, Debye-Ang):
   XX=            -80.1853   YY=            -98.0719   ZZ=            -94.6175
   XY=             10.6409   XZ=             -0.7167   YZ=              1.9148

 Normal termination of Gaussian 16 at Thu May  6 01:07:28 2021.
