 Gaussian 16, Revision A.03,
 Gaussian 16:  EM64L-G16RevA.03 25-Dec-2016

 -------------
 #p 6-31g* mp2
 -------------

 ------------------------------------------------------
 Input file generated by CHIRIPA (05-May-2021 14:51:11)
 ------------------------------------------------------
 Symbolic Z-matrix:
 Charge =  0 Multiplicity = 1

                         Standard orientation:
 ---------------------------------------------------------------------
 Center     Atomic      Atomic             Coordinates (Angstroms)
 Number     Number       Type             X           Y           Z
 ---------------------------------------------------------------------
      1          6           0       -1.670187   -1.024147    0.319154
      2          6           0       -1.728493   -1.718695    1.680105
      3          6           0       -0.436480   -2.462239    2.020165
      4          1           0       -1.460147   -1.771583   -0.458129
      5          1           0       -0.827320   -0.319235    0.310856
      6          1           0       -2.571840   -2.421079    1.686311
      7          1           0       -1.938608   -0.969548    2.454215
      8          1           0        0.411869   -1.770538    2.041487
      9          1           0       -0.224960   -3.230317    1.269221
     10          1           0       -0.500032   -2.951384    2.997179
     11          6           0       -2.954476   -0.276533   -0.034969
     12          6           0       -2.896169    0.418015   -1.395920
     13          6           0       -4.188182    1.161559   -1.735980
     14          1           0       -3.797343   -0.981445   -0.026671
     15          1           0       -3.164516    0.470903    0.742314
     16          1           0       -2.686054   -0.331132   -2.170030
     17          1           0       -2.052822    1.120399   -1.402126
     18          1           0       -4.399702    1.929637   -0.985036
     19          1           0       -5.036532    0.469859   -1.757302
     20          1           0       -4.124630    1.650704   -2.712994
     21          6           0        2.715938    0.003398   -0.186797
     22          6           0        2.792673   -0.566754   -1.603492
     23          6           0        3.603409   -1.861024   -1.676731
     24          1           0        3.733946    0.185253    0.184060
     25          1           0        2.270042   -0.747878    0.479654
     26          1           0        3.237020    0.185887   -2.267347
     27          1           0        1.774359   -0.747094   -1.971092
     28          1           0        3.158934   -2.630715   -1.037499
     29          1           0        4.629906   -1.692434   -1.335437
     30          1           0        3.645353   -2.251206   -2.698425
     31          6           0        1.908724    1.297282   -0.097388
     32          6           0        1.831989    1.867434    1.319307
     33          6           0        1.021253    3.161704    1.392546
     34          1           0        2.354619    2.048558   -0.763839
     35          1           0        0.890716    1.115427   -0.468245
     36          1           0        2.850304    2.047774    1.686907
     37          1           0        1.387642    1.114793    1.983162
     38          1           0       -0.005244    2.993114    1.051252
     39          1           0        1.465728    3.931395    0.753313
     40          1           0        0.979309    3.551886    2.414240
 ---------------------------------------------------------------------

 SCF Done:  E(RHF) =  -470.733118572     A.U. after   11 cycles
 E2 =    -0.1584746024D+01 EUMP2 =    -0.47231786459638D+03

 The electronic state is 1-A.
 Alpha  occ. eigenvalues --  -11.21676 -11.21669 -11.21666 -11.21568 -11.21469
 Alpha  occ. eigenvalues --  -11.21410 -11.21406 -11.21340 -11.21161 -11.21139
 Alpha  occ. eigenvalues --  -11.21112 -11.21039  -1.08532  -1.08421  -1.03599
 Alpha  occ. eigenvalues --   -1.03544  -0.96050  -0.95994  -0.87072  -0.87004
 Alpha  occ. eigenvalues --   -0.79666  -0.79606  -0.78369  -0.78222  -0.65434
 Alpha  occ. eigenvalues --   -0.64818  -0.61020  -0.60914  -0.59414  -0.59360
 Alpha  occ. eigenvalues --   -0.57698  -0.57571  -0.55359  -0.55282  -0.52740
 Alpha  occ. eigenvalues --   -0.52690  -0.52485  -0.52419  -0.50094  -0.49851
 Alpha  occ. eigenvalues --   -0.48000  -0.47924  -0.46728  -0.46684  -0.46236
 Alpha  occ. eigenvalues --   -0.45824  -0.45653  -0.45259  -0.43851  -0.43794
 Alpha virt. eigenvalues --    0.18833   0.22098   0.23823   0.24198   0.25246
 Alpha virt. eigenvalues --    0.25931   0.26997   0.27745   0.29041   0.30338
 Alpha virt. eigenvalues --    0.30956   0.31477   0.31744   0.31785   0.32322

 Mulliken charges:
               1
     1  C   -0.307670
     2  C   -0.299027
     3  C   -0.481304
     4  H    0.149499
     5  H    0.158701
     6  H    0.152449
     7  H    0.152095
     8  H    0.159413
     9  H    0.155254
    10  H    0.161050
    11  C   -0.297932
    12  C   -0.301771
    13  C   -0.475712
    14  H    0.149996
    15  H    0.149665
    16  H    0.152134
    17  H    0.152864
    18  H    0.155386
    19  H    0.155434
    20  H    0.160625
    21  C   -0.303632
    22  C   -0.299818
    23  C   -0.475946
    24  H    0.149716
    25  H    0.154817
    26  H    0.151669
    27  H    0.153050
    28  H    0.155677
    29  H    0.155004
    30  H    0.160031
    31  C   -0.304361
    32  C   -0.302043
    33  C   -0.475747
    34  H    0.150447
    35  H    0.154227
    36  H    0.152788
    37  H    0.152393
    38  H    0.154239
    39  H    0.155780
    40  H    0.160559
 Sum of Mulliken charges =  -0.00000

 Dipole moment (field-independent basis, Debye):
    X=             -0.0146    Y=             -0.0069    Z=              0.0006  Tot=              0.0161
 Quadrupole moment (field-independent basis, Debye-Ang):
   XX=            -84.9278   YY=            -84.9673   ZZ=            -84.7367
   XY=              1.8271   XZ=             -0.1658   YZ=              0.3013

 Normal termination of Gaussian 16 at Wed May  5 16:44:27 2021.
