 Gaussian 16, Revision A.03,
 Gaussian 16:  EM64L-G16RevA.03 25-Dec-2016

 -------------
 #p 6-31g* mp2
 -------------

 ------------------------------------------------------
 Input file generated by CHIRIPA (05-May-2021 14:57:25)
 ------------------------------------------------------
 Symbolic Z-matrix:
 Charge =  0 Multiplicity = 1

                         Standard orientation:
 ---------------------------------------------------------------------
 Center     Atomic      Atomic             Coordinates (Angstroms)
 Number     Number       Type             X           Y           Z
 ---------------------------------------------------------------------
      1          6           0       -1.664295    1.651640   -0.192139
      2          6           0       -1.471578    0.480736    0.548378
      3          6           0       -2.496300   -0.463326    0.663442
      4          6           0       -3.706394   -0.203139    0.022141
      5          6           0       -3.929018    0.953938   -0.722776
      6          6           0       -2.890238    1.884094   -0.824238
      7          1           0       -0.862806    2.379609   -0.276240
      8          1           0       -0.520544    0.297565    1.040340
      9          1           0       -2.374120   -1.378204    1.230441
     10          1           0       -4.888112    1.108672   -1.201957
     11          1           0       -3.042736    2.792553   -1.399992
     12          7           0       -4.798662   -1.195214    0.136754
     13          8           0       -5.855422   -0.942468   -0.437714
     14          8           0       -4.577340   -2.206765    0.798887
     15          6           0        2.030911    1.967693    0.638695
     16          6           0        2.808298    1.330720    1.611554
     17          6           0        3.640504    0.261399    1.267266
     18          6           0        3.670951   -0.146765   -0.065313
     19          6           0        2.908346    0.467530   -1.057464
     20          6           0        2.083324    1.534829   -0.690366
     21          1           0        1.387223    2.797581    0.915005
     22          1           0        2.769607    1.664750    2.644496
     23          1           0        4.252854   -0.249670    2.000243
     24          1           0        2.968134    0.112031   -2.078965
     25          1           0        1.480697    2.027631   -1.448017
     26          7           0        4.548168   -1.277736   -0.441869
     27          8           0        4.557077   -1.618314   -1.622785
     28          8           0        5.210211   -1.802198    0.451034
 ---------------------------------------------------------------------

 SCF Done:  E(RHF) =  -868.335881735     A.U. after   16 cycles
 E2 =    -0.2602281792D+01 EUMP2 =    -0.87093816352622D+03

 The electronic state is 1-A.
 Alpha  occ. eigenvalues --  -20.61514 -20.61509 -20.61098 -20.61091 -15.86576
 Alpha  occ. eigenvalues --  -15.86151 -11.32209 -11.31645 -11.28780 -11.28771
 Alpha  occ. eigenvalues --  -11.28689 -11.28206 -11.28164 -11.28088 -11.27944
 Alpha  occ. eigenvalues --  -11.27896 -11.27326 -11.27201  -1.60583  -1.60169
 Alpha  occ. eigenvalues --   -1.40129  -1.39719  -1.20431  -1.19825  -1.09822
 Alpha  occ. eigenvalues --   -1.09223  -1.05845  -1.05227  -0.96596  -0.96037
 Alpha  occ. eigenvalues --   -0.87259  -0.86633  -0.83385  -0.82860  -0.78363
 Alpha  occ. eigenvalues --   -0.77855  -0.72793  -0.72371  -0.71910  -0.71738
 Alpha  occ. eigenvalues --   -0.71492  -0.70915  -0.66081  -0.65861  -0.65478
 Alpha  occ. eigenvalues --   -0.65227  -0.63161  -0.62567  -0.56476  -0.55808
 Alpha  occ. eigenvalues --   -0.54240  -0.53931  -0.53553  -0.53250  -0.49570
 Alpha  occ. eigenvalues --   -0.49526  -0.49138  -0.49116  -0.45473  -0.45095
 Alpha  occ. eigenvalues --   -0.38494  -0.37923  -0.37378  -0.36787
 Alpha virt. eigenvalues --    0.04118   0.04629   0.10010   0.10920   0.15457
 Alpha virt. eigenvalues --    0.16061   0.18621   0.22047   0.25060   0.26457
 Alpha virt. eigenvalues --    0.27061   0.29544   0.29712   0.30570   0.32164

 Mulliken charges:
               1
     1  C   -0.174422
     2  C   -0.220298
     3  C   -0.171082
     4  C    0.159863
     5  C   -0.170932
     6  C   -0.218292
     7  H    0.212362
     8  H    0.229005
     9  H    0.277885
    10  H    0.276943
    11  H    0.222991
    12  N    0.487830
    13  O   -0.459305
    14  O   -0.458413
    15  C   -0.183109
    16  C   -0.220335
    17  C   -0.170477
    18  C    0.159480
    19  C   -0.169380
    20  C   -0.217527
    21  H    0.223553
    22  H    0.227741
    23  H    0.279695
    24  H    0.280021
    25  H    0.222485
    26  N    0.487887
    27  O   -0.456911
    28  O   -0.457258
 Sum of Mulliken charges =  -0.00000

 Dipole moment (field-independent basis, Debye):
    X=              0.9849    Y=              7.2169    Z=              0.9196  Tot=              7.3416
 Quadrupole moment (field-independent basis, Debye-Ang):
   XX=           -153.4015   YY=           -107.2015   ZZ=            -99.2656
   XY=             -0.7767   XZ=             10.2439   YZ=             -2.6520

 Normal termination of Gaussian 16 at Thu May  6 21:18:04 2021.
