 Gaussian 16, Revision A.03,
 Gaussian 16:  EM64L-G16RevA.03 25-Dec-2016

 -------------
 #p 6-31g* mp2
 -------------

 ------------------------------------------------------
 Input file generated by CHIRIPA (05-May-2021 14:53:15)
 ------------------------------------------------------
 Symbolic Z-matrix:
 Charge =  0 Multiplicity = 1

                         Standard orientation:
 ---------------------------------------------------------------------
 Center     Atomic      Atomic             Coordinates (Angstroms)
 Number     Number       Type             X           Y           Z
 ---------------------------------------------------------------------
      1          6           0        3.804844    1.019980   -0.399799
      2          6           0        2.783390    2.033565    0.117176
      3          6           0        2.750424    3.316245   -0.714352
      4          1           0        4.801424    1.482325   -0.402945
      5          1           0        3.570826    0.774576   -1.444982
      6          1           0        3.018446    2.275937    1.161504
      7          1           0        1.789156    1.568690    0.119273
      8          1           0        2.493581    3.094121   -1.755166
      9          1           0        3.729856    3.805386   -0.707013
     10          1           0        2.013441    4.026796   -0.327268
     11          6           0        3.849577   -0.267563    0.421151
     12          6           0        4.871030   -1.281148   -0.095824
     13          6           0        4.903997   -2.563828    0.735704
     14          1           0        4.083595   -0.022160    1.466334
     15          1           0        2.852997   -0.729909    0.424297
     16          1           0        5.865265   -0.816273   -0.097921
     17          1           0        4.635974   -1.523520   -1.140152
     18          1           0        3.924565   -3.052969    0.728365
     19          1           0        5.160840   -2.341704    1.776518
     20          1           0        5.640980   -3.274379    0.348621
     21          6           0       -5.360153    0.484855    0.368296
     22          6           0       -5.111086   -0.644451   -0.418569
     23          6           0       -3.801872   -1.085003   -0.634019
     24          6           0       -2.760871   -0.369201   -0.044753
     25          6           0       -2.976770    0.759586    0.744246
     26          6           0       -4.294080    1.182039    0.946174
     27          1           0       -6.380326    0.820057    0.530411
     28          1           0       -5.937056   -1.187852   -0.868605
     29          1           0       -3.580592   -1.956070   -1.238748
     30          1           0       -2.132785    1.280633    1.179695
     31          1           0       -4.484526    2.059409    1.557727
     32          7           0       -1.370579   -0.826015   -0.265682
     33          8           0       -0.470863   -0.177965    0.264581
     34          8           0       -1.206910   -1.823465   -0.964926
 ---------------------------------------------------------------------

 SCF Done:  E(RHF) =  -669.536566991     A.U. after   15 cycles
 E2 =    -0.2091150907D+01 EUMP2 =    -0.67162771789803D+03

 The electronic state is 1-A.
 Alpha  occ. eigenvalues --  -20.61064 -20.61057 -15.86088 -11.31357 -11.27914
 Alpha  occ. eigenvalues --  -11.27910 -11.27644 -11.26911 -11.26901 -11.20478
 Alpha  occ. eigenvalues --  -11.20275 -11.20168 -11.20148 -11.20059 -11.19972
 Alpha  occ. eigenvalues --   -1.60117  -1.39674  -1.19521  -1.08935  -1.07185
 Alpha  occ. eigenvalues --   -1.04910  -1.02402  -0.95785  -0.94880  -0.86312
 Alpha  occ. eigenvalues --   -0.85901  -0.82623  -0.78454  -0.77681  -0.76976
 Alpha  occ. eigenvalues --   -0.72312  -0.71425  -0.70630  -0.65180  -0.64913
 Alpha  occ. eigenvalues --   -0.63791  -0.62257  -0.59790  -0.58257  -0.56492
 Alpha  occ. eigenvalues --   -0.55417  -0.54164  -0.53244  -0.53001  -0.51621
 Alpha  occ. eigenvalues --   -0.51313  -0.49081  -0.49072  -0.48807  -0.46787
 Alpha  occ. eigenvalues --   -0.45495  -0.45053  -0.44556  -0.44336  -0.42628
 Alpha  occ. eigenvalues --   -0.37497  -0.36508
 Alpha virt. eigenvalues --    0.04831   0.11148   0.16324   0.21246   0.24115
 Alpha virt. eigenvalues --    0.25337   0.27186   0.27650   0.28123   0.28899
 Alpha virt. eigenvalues --    0.29100   0.30849   0.32167   0.32528   0.32773

 Mulliken charges:
               1
     1  C   -0.295549
     2  C   -0.311225
     3  C   -0.474297
     4  H    0.143015
     5  H    0.149460
     6  H    0.145341
     7  H    0.177929
     8  H    0.153948
     9  H    0.151152
    10  H    0.153716
    11  C   -0.304629
    12  C   -0.298547
    13  C   -0.475745
    14  H    0.143684
    15  H    0.170677
    16  H    0.146896
    17  H    0.152146
    18  H    0.159414
    19  H    0.151969
    20  H    0.156066
    21  C   -0.170428
    22  C   -0.218605
    23  C   -0.170499
    24  C    0.157342
    25  C   -0.170493
    26  C   -0.218549
    27  H    0.226259
    28  H    0.224027
    29  H    0.275924
    30  H    0.276053
    31  H    0.224158
    32  N    0.494171
    33  O   -0.466104
    34  O   -0.458680
 Sum of Mulliken charges =  -0.00000

 Dipole moment (field-independent basis, Debye):
    X=             -5.3187    Y=              1.4485    Z=              0.7679  Tot=              5.5657
 Quadrupole moment (field-independent basis, Debye-Ang):
   XX=            -68.6309   YY=            -95.0313   ZZ=            -93.8712
   XY=             -1.2107   XZ=             -0.6112   YZ=              3.0595

 Normal termination of Gaussian 16 at Thu May  6 04:18:04 2021.
