 Gaussian 16, Revision A.03,
 Gaussian 16:  EM64L-G16RevA.03 25-Dec-2016

 -------------
 #p 6-31g* mp2
 -------------

 ------------------------------------------------------
 Input file generated by CHIRIPA (05-May-2021 14:57:23)
 ------------------------------------------------------
 Symbolic Z-matrix:
 Charge =  0 Multiplicity = 1

                         Standard orientation:
 ---------------------------------------------------------------------
 Center     Atomic      Atomic             Coordinates (Angstroms)
 Number     Number       Type             X           Y           Z
 ---------------------------------------------------------------------
      1          6           0        2.623326    2.436875    0.529003
      2          6           0        2.770394    1.515588    1.571175
      3          6           0        2.936385    0.154647    1.297616
      4          6           0        2.950605   -0.252049   -0.035683
      5          6           0        2.806567    0.641501   -1.095925
      6          6           0        2.641850    1.997665   -0.798880
      7          1           0        2.494875    3.492231    0.750632
      8          1           0        2.756400    1.853827    2.603379
      9          1           0        3.052436   -0.580068    2.085108
     10          1           0        2.824645    0.274214   -2.114842
     11          1           0        2.527865    2.710895   -1.610271
     12          7           0        3.125658   -1.690287   -0.337719
     13          8           0        3.134701   -2.023163   -1.520829
     14          8           0        3.250508   -2.457470    0.614374
     15          6           0       -5.379209   -0.542548    0.112262
     16          6           0       -4.427169   -1.474420    0.538586
     17          6           0       -3.062852   -1.176253    0.473144
     18          6           0       -2.684176    0.068912   -0.026313
     19          6           0       -3.608701    1.018403   -0.458761
     20          6           0       -4.967663    0.698702   -0.384175
     21          1           0       -6.436964   -0.782534    0.166650
     22          1           0       -4.743881   -2.439175    0.924574
     23          1           0       -2.304623   -1.879111    0.796404
     24          1           0       -3.262425    1.971855   -0.838812
     25          1           0       -5.704808    1.424353   -0.715977
     26          7           0       -1.242670    0.395967   -0.100432
     27          8           0       -0.934859    1.499935   -0.544440
     28          8           0       -0.447923   -0.457849    0.286884
 ---------------------------------------------------------------------

 SCF Done:  E(RHF) =  -868.338337802     A.U. after   16 cycles
 E2 =    -0.2601455134D+01 EUMP2 =    -0.87093979293576D+03

 The electronic state is 1-A.
 Alpha  occ. eigenvalues --  -20.61100 -20.61064 -20.59299 -20.59294 -15.86116
 Alpha  occ. eigenvalues --  -15.84338 -11.31369 -11.29340 -11.27953 -11.27887
 Alpha  occ. eigenvalues --  -11.27651 -11.26934 -11.26888 -11.25969 -11.25915
 Alpha  occ. eigenvalues --  -11.25725 -11.25020 -11.24945  -1.60142  -1.58365
 Alpha  occ. eigenvalues --   -1.39703  -1.37939  -1.19532  -1.17507  -1.08949
 Alpha  occ. eigenvalues --   -1.07005  -1.04916  -1.02939  -0.95804  -0.93908
 Alpha  occ. eigenvalues --   -0.86320  -0.84386  -0.82643  -0.80794  -0.77698
 Alpha  occ. eigenvalues --   -0.75855  -0.72367  -0.71458  -0.70639  -0.70605
 Alpha  occ. eigenvalues --   -0.69628  -0.68772  -0.65188  -0.64919  -0.63252
 Alpha  occ. eigenvalues --   -0.63052  -0.62262  -0.60366  -0.55435  -0.53550
 Alpha  occ. eigenvalues --   -0.53254  -0.53006  -0.51480  -0.51129  -0.49105
 Alpha  occ. eigenvalues --   -0.48726  -0.47357  -0.47320  -0.45136  -0.43435
 Alpha  occ. eigenvalues --   -0.37513  -0.36515  -0.35400  -0.34442
 Alpha virt. eigenvalues --    0.04821   0.06730   0.11141   0.13169   0.16344
 Alpha virt. eigenvalues --    0.18291   0.21298   0.22930   0.27214   0.28189
 Alpha virt. eigenvalues --    0.28788   0.29803   0.30860   0.32359   0.32438

 Mulliken charges:
               1
     1  C   -0.165161
     2  C   -0.218776
     3  C   -0.164570
     4  C    0.176586
     5  C   -0.167549
     6  C   -0.202994
     7  H    0.217821
     8  H    0.214438
     9  H    0.268089
    10  H    0.268466
    11  H    0.216611
    12  N    0.488445
    13  O   -0.466921
    14  O   -0.467038
    15  C   -0.170406
    16  C   -0.218639
    17  C   -0.170585
    18  C    0.157909
    19  C   -0.171176
    20  C   -0.218626
    21  H    0.226363
    22  H    0.225347
    23  H    0.279168
    24  H    0.273389
    25  H    0.223283
    26  N    0.489414
    27  O   -0.464052
    28  O   -0.458836
 Sum of Mulliken charges =  -0.00000

 Dipole moment (field-independent basis, Debye):
    X=             -6.0634    Y=              3.8774    Z=              1.2923  Tot=              7.3122
 Quadrupole moment (field-independent basis, Debye-Ang):
   XX=            -83.2602   YY=           -104.5610   ZZ=           -100.6016
   XY=             17.1009   XZ=              3.1630   YZ=             -3.7513

 Normal termination of Gaussian 16 at Thu May  6 08:13:22 2021.
