 Gaussian 16, Revision A.03,
 Gaussian 16:  EM64L-G16RevA.03 25-Dec-2016

 -------------
 #p 6-31g* mp2
 -------------

 ------------------------------------------------------
 Input file generated by CHIRIPA (05-May-2021 14:55:19)
 ------------------------------------------------------
 Symbolic Z-matrix:
 Charge =  0 Multiplicity = 1

                         Standard orientation:
 ---------------------------------------------------------------------
 Center     Atomic      Atomic             Coordinates (Angstroms)
 Number     Number       Type             X           Y           Z
 ---------------------------------------------------------------------
      1          6           0       -5.365684   -1.199055    0.682327
      2          6           0       -4.302073   -1.720425   -0.061598
      3          6           0       -3.258871   -0.891937   -0.485727
      4          6           0       -3.311590    0.459189   -0.146654
      5          6           0       -4.357578    1.008460    0.593277
      6          6           0       -5.390000    0.161325    1.006819
      7          1           0       -6.171881   -1.849888    1.007688
      8          1           0       -4.280554   -2.776521   -0.315062
      9          1           0       -2.423358   -1.269254   -1.062761
     10          1           0       -4.351262    2.065376    0.830570
     11          1           0       -6.214746    0.568985    1.584445
     12          7           0       -2.212905    1.346143   -0.590056
     13          8           0       -2.282794    2.532985   -0.278354
     14          8           0       -1.302672    0.837701   -1.240900
     15          6           0        5.220924   -0.390840   -0.048543
     16          6           0        5.951961    0.768594    0.629162
     17          6           0        7.452210    0.774689    0.334188
     18          1           0        5.665018   -1.339575    0.282557
     19          1           0        5.381914   -0.332324   -1.133924
     20          1           0        5.788496    0.708701    1.712817
     21          1           0        5.505951    1.714673    0.296558
     22          1           0        7.632813    0.858102   -0.742392
     23          1           0        7.916964   -0.153585    0.681914
     24          1           0        7.955137    1.611745    0.828416
     25          6           0        3.720302   -0.410462    0.236898
     26          6           0        2.989265   -1.569895   -0.440807
     27          6           0        1.489015   -1.575990   -0.145833
     28          1           0        3.559312   -0.468977    1.322279
     29          1           0        3.276209    0.538275   -0.094202
     30          1           0        3.435276   -2.515973   -0.108202
     31          1           0        3.152730   -1.510003   -1.524461
     32          1           0        1.024261   -0.647716   -0.493558
     33          1           0        1.308413   -1.659403    0.930748
     34          1           0        0.986088   -2.413046   -0.640060
 ---------------------------------------------------------------------

 SCF Done:  E(RHF) =  -669.536290320     A.U. after   15 cycles
 E2 =    -0.2090816910D+01 EUMP2 =    -0.67162710723060D+03

 The electronic state is 1-A.
 Alpha  occ. eigenvalues --  -20.60902 -20.60893 -15.85931 -11.31232 -11.27802
 Alpha  occ. eigenvalues --  -11.27785 -11.27540 -11.26806 -11.26793 -11.21098
 Alpha  occ. eigenvalues --  -11.20936 -11.20833 -11.20689 -11.20651 -11.20226
 Alpha  occ. eigenvalues --   -1.59959  -1.39516  -1.19403  -1.08812  -1.07824
 Alpha  occ. eigenvalues --   -1.04797  -1.02925  -0.95660  -0.95368  -0.86391
 Alpha  occ. eigenvalues --   -0.86198  -0.82492  -0.79000  -0.77640  -0.77532
 Alpha  occ. eigenvalues --   -0.72161  -0.71269  -0.70514  -0.65062  -0.64802
 Alpha  occ. eigenvalues --   -0.64449  -0.62144  -0.60309  -0.58764  -0.56988
 Alpha  occ. eigenvalues --   -0.55307  -0.54634  -0.53130  -0.52891  -0.52096
 Alpha  occ. eigenvalues --   -0.51791  -0.49310  -0.48914  -0.48891  -0.47316
 Alpha  occ. eigenvalues --   -0.46036  -0.45209  -0.45119  -0.44798  -0.43197
 Alpha  occ. eigenvalues --   -0.37384  -0.36397
 Alpha virt. eigenvalues --    0.04951   0.11254   0.16420   0.21280   0.23478
 Alpha virt. eigenvalues --    0.24820   0.26927   0.27295   0.27762   0.28136
 Alpha virt. eigenvalues --    0.29045   0.30797   0.31754   0.32179   0.32497

 Mulliken charges:
               1
     1  C   -0.170555
     2  C   -0.218732
     3  C   -0.170572
     4  C    0.158047
     5  C   -0.170830
     6  C   -0.218689
     7  H    0.225766
     8  H    0.223778
     9  H    0.277327
    10  H    0.275590
    11  H    0.223550
    12  N    0.489948
    13  O   -0.459240
    14  O   -0.461805
    15  C   -0.297969
    16  C   -0.299586
    17  C   -0.475425
    18  H    0.147235
    19  H    0.149461
    20  H    0.150845
    21  H    0.153954
    22  H    0.154990
    23  H    0.153750
    24  H    0.159274
    25  C   -0.299361
    26  C   -0.298150
    27  C   -0.486930
    28  H    0.147267
    29  H    0.156622
    30  H    0.147106
    31  H    0.152096
    32  H    0.182382
    33  H    0.149084
    34  H    0.149771
 Sum of Mulliken charges =  -0.00000

 Dipole moment (field-independent basis, Debye):
    X=             -4.0582    Y=             -2.9734    Z=              1.5124  Tot=              5.2534
 Quadrupole moment (field-independent basis, Debye-Ang):
   XX=            -70.3659   YY=            -94.9023   ZZ=            -94.3512
   XY=              6.8519   XZ=             -5.8131   YZ=              2.7014

 Normal termination of Gaussian 16 at Thu May  6 09:14:18 2021.
