 Gaussian 16, Revision A.03,
 Gaussian 16:  EM64L-G16RevA.03 25-Dec-2016

 -------------
 #p 6-31g* mp2
 -------------

 ------------------------------------------------------
 Input file generated by CHIRIPA (05-May-2021 14:51:13)
 ------------------------------------------------------
 Symbolic Z-matrix:
 Charge =  0 Multiplicity = 1

                         Standard orientation:
 ---------------------------------------------------------------------
 Center     Atomic      Atomic             Coordinates (Angstroms)
 Number     Number       Type             X           Y           Z
 ---------------------------------------------------------------------
      1          6           0       -3.486488    0.647716    0.032012
      2          6           0       -3.707089   -0.790365   -0.438354
      3          6           0       -5.172567   -1.219488   -0.360753
      4          1           0       -3.845098    0.747780    1.065613
      5          1           0       -4.100413    1.324120   -0.578701
      6          1           0       -3.091877   -1.463719    0.172158
      7          1           0       -3.347737   -0.887065   -1.470890
      8          1           0       -5.797245   -0.571509   -0.984052
      9          1           0       -5.539931   -1.151440    0.668331
     10          1           0       -5.307516   -2.250715   -0.701664
     11          6           0       -2.026418    1.091320   -0.039665
     12          6           0       -1.805817    2.529401    0.430700
     13          6           0       -0.340339    2.958524    0.353100
     14          1           0       -1.412494    0.414916    0.571048
     15          1           0       -1.667808    0.991256   -1.073266
     16          1           0       -2.165169    2.626100    1.463237
     17          1           0       -2.421029    3.202755   -0.179811
     18          1           0        0.027025    2.890475   -0.675984
     19          1           0        0.284339    2.310545    0.976399
     20          1           0       -0.205390    3.989750    0.694011
     21          6           0        2.992563   -0.177019   -0.215557
     22          6           0        4.499695    0.027669   -0.058580
     23          6           0        4.956781    1.417850   -0.501597
     24          1           0        2.714474   -0.015507   -1.266045
     25          1           0        2.462841    0.587776    0.369147
     26          1           0        5.026416   -0.738134   -0.642297
     27          1           0        4.774258   -0.134536    0.991620
     28          1           0        4.457678    2.193576    0.088102
     29          1           0        4.711269    1.586549   -1.555098
     30          1           0        6.037401    1.542560   -0.380897
     31          6           0        2.520343   -1.562016    0.223210
     32          6           0        1.013211   -1.766705    0.066233
     33          6           0        0.556125   -3.156886    0.509250
     34          1           0        3.050065   -2.326811   -0.361494
     35          1           0        2.798432   -1.723529    1.273698
     36          1           0        0.738647   -1.604500   -0.983967
     37          1           0        0.486489   -1.000902    0.649951
     38          1           0        0.801637   -3.325584    1.562751
     39          1           0        1.055229   -3.932612   -0.080449
     40          1           0       -0.524495   -3.281597    0.388551
 ---------------------------------------------------------------------

 SCF Done:  E(RHF) =  -470.733102464     A.U. after   11 cycles
 E2 =    -0.1583836884D+01 EUMP2 =    -0.47231693934861D+03

 The electronic state is 1-A.
 Alpha  occ. eigenvalues --  -11.21608 -11.21598 -11.21567 -11.21544 -11.21383
 Alpha  occ. eigenvalues --  -11.21365 -11.21311 -11.21305 -11.21082 -11.21074
 Alpha  occ. eigenvalues --  -11.21061 -11.21031  -1.08439  -1.08380  -1.03531
 Alpha  occ. eigenvalues --   -1.03497  -0.95986  -0.95940  -0.87013  -0.86947
 Alpha  occ. eigenvalues --   -0.79627  -0.79545  -0.78377  -0.78052  -0.65154
 Alpha  occ. eigenvalues --   -0.64944  -0.60952  -0.60881  -0.59346  -0.59321
 Alpha  occ. eigenvalues --   -0.57657  -0.57493  -0.55322  -0.55187  -0.52685
 Alpha  occ. eigenvalues --   -0.52636  -0.52494  -0.52285  -0.49996  -0.49824
 Alpha  occ. eigenvalues --   -0.48026  -0.47827  -0.46769  -0.46575  -0.46106
 Alpha  occ. eigenvalues --   -0.45786  -0.45638  -0.45112  -0.43779  -0.43746
 Alpha virt. eigenvalues --    0.20674   0.22413   0.23669   0.24018   0.25313
 Alpha virt. eigenvalues --    0.26373   0.26673   0.27622   0.28326   0.29479
 Alpha virt. eigenvalues --    0.30463   0.31499   0.31559   0.31774   0.32116

 Mulliken charges:
               1
     1  C   -0.297820
     2  C   -0.301140
     3  C   -0.475671
     4  H    0.149302
     5  H    0.149484
     6  H    0.152947
     7  H    0.152019
     8  H    0.155273
     9  H    0.155189
    10  H    0.160225
    11  C   -0.304011
    12  C   -0.299535
    13  C   -0.477808
    14  H    0.156372
    15  H    0.149823
    16  H    0.151464
    17  H    0.151943
    18  H    0.156371
    19  H    0.156004
    20  H    0.160176
    21  C   -0.301282
    22  C   -0.299545
    23  C   -0.475698
    24  H    0.149482
    25  H    0.153003
    26  H    0.151783
    27  H    0.151650
    28  H    0.155714
    29  H    0.155028
    30  H    0.159999
    31  C   -0.297816
    32  C   -0.304206
    33  C   -0.477306
    34  H    0.149350
    35  H    0.149013
    36  H    0.152494
    37  H    0.156528
    38  H    0.154632
    39  H    0.155371
    40  H    0.161202
 Sum of Mulliken charges =  -0.00000

 Dipole moment (field-independent basis, Debye):
    X=             -0.0108    Y=              0.0144    Z=             -0.0137  Tot=              0.0226
 Quadrupole moment (field-independent basis, Debye-Ang):
   XX=            -86.1372   YY=            -85.7592   ZZ=            -83.0142
   XY=             -1.0004   XZ=              0.1360   YZ=              0.2869

 Normal termination of Gaussian 16 at Wed May  5 16:50:25 2021.
