 Gaussian 16, Revision A.03,
 Gaussian 16:  EM64L-G16RevA.03 25-Dec-2016

 -------------
 #p 6-31g* mp2
 -------------

 ------------------------------------------------------
 Input file generated by CHIRIPA (05-May-2021 14:55:19)
 ------------------------------------------------------
 Symbolic Z-matrix:
 Charge =  0 Multiplicity = 1

                         Standard orientation:
 ---------------------------------------------------------------------
 Center     Atomic      Atomic             Coordinates (Angstroms)
 Number     Number       Type             X           Y           Z
 ---------------------------------------------------------------------
      1          6           0        3.170293    2.196650    0.330570
      2          6           0        1.803240    1.916843    0.427497
      3          6           0        1.330748    0.613474    0.247140
      4          6           0        2.257393   -0.390399   -0.030094
      5          6           0        3.625476   -0.143288   -0.132927
      6          6           0        4.075452    1.167506    0.051160
      7          1           0        3.528590    3.212023    0.472124
      8          1           0        1.097986    2.714102    0.644384
      9          1           0        0.277764    0.368913    0.316653
     10          1           0        4.304327   -0.958978   -0.350251
     11          1           0        5.137683    1.381879   -0.024694
     12          7           0        1.769106   -1.774148   -0.223004
     13          8           0        2.605896   -2.640880   -0.466302
     14          8           0        0.558841   -1.965797   -0.127257
     15          6           0       -2.926873   -0.414024    0.436536
     16          6           0       -3.222697   -1.715928   -0.308795
     17          6           0       -3.087301   -2.951074    0.582203
     18          1           0       -1.910518   -0.459153    0.851186
     19          1           0       -3.610114   -0.326399    1.292631
     20          1           0       -2.540023   -1.800399   -1.164035
     21          1           0       -4.238395   -1.667617   -0.721881
     22          1           0       -3.779623   -2.893460    1.428355
     23          1           0       -2.071601   -3.026996    0.983688
     24          1           0       -3.303146   -3.870592    0.029250
     25          6           0       -3.058072    0.829616   -0.440888
     26          6           0       -2.762247    2.131520    0.304443
     27          6           0       -2.897643    3.366666   -0.586554
     28          1           0       -2.374830    0.741991   -1.296982
     29          1           0       -4.074426    0.874745   -0.855537
     30          1           0       -1.746549    2.083209    0.717529
     31          1           0       -3.444921    2.215991    1.159684
     32          1           0       -3.913344    3.442589   -0.988038
     33          1           0       -2.205321    3.309053   -1.432706
     34          1           0       -2.681798    4.286184   -0.033601
 ---------------------------------------------------------------------

 SCF Done:  E(RHF) =  -669.535769032     A.U. after   15 cycles
 E2 =    -0.2093571274D+01 EUMP2 =    -0.67162934030605D+03

 The electronic state is 1-A.
 Alpha  occ. eigenvalues --  -20.60966 -20.60951 -15.85995 -11.31274 -11.27836
 Alpha  occ. eigenvalues --  -11.27808 -11.27565 -11.26838 -11.26817 -11.22083
 Alpha  occ. eigenvalues --  -11.21519 -11.21418 -11.21040 -11.20784 -11.19957
 Alpha  occ. eigenvalues --   -1.60022  -1.39580  -1.19441  -1.08853  -1.08311
 Alpha  occ. eigenvalues --   -1.04833  -1.03272  -0.95726  -0.95702  -0.86752
 Alpha  occ. eigenvalues --   -0.86237  -0.82540  -0.79478  -0.78019  -0.77564
 Alpha  occ. eigenvalues --   -0.72234  -0.71333  -0.70566  -0.65127  -0.65082
 Alpha  occ. eigenvalues --   -0.64734  -0.62141  -0.60629  -0.59225  -0.57308
 Alpha  occ. eigenvalues --   -0.55350  -0.54995  -0.53166  -0.52916  -0.52451
 Alpha  occ. eigenvalues --   -0.52129  -0.49746  -0.48967  -0.48922  -0.47736
 Alpha  occ. eigenvalues --   -0.46549  -0.45509  -0.45404  -0.44910  -0.43548
 Alpha  occ. eigenvalues --   -0.37419  -0.36430
 Alpha virt. eigenvalues --    0.04906   0.11208   0.16410   0.18809   0.23253
 Alpha virt. eigenvalues --    0.23888   0.25511   0.27157   0.27460   0.28286
 Alpha virt. eigenvalues --    0.29542   0.31185   0.31734   0.31877   0.32701

 Mulliken charges:
               1
     1  C   -0.169979
     2  C   -0.225175
     3  C   -0.178797
     4  C    0.155170
     5  C   -0.169234
     6  C   -0.219242
     7  H    0.226157
     8  H    0.226624
     9  H    0.291850
    10  H    0.275754
    11  H    0.223795
    12  N    0.491568
    13  O   -0.458437
    14  O   -0.467668
    15  C   -0.305303
    16  C   -0.296705
    17  C   -0.480675
    18  H    0.154622
    19  H    0.147804
    20  H    0.162033
    21  H    0.145932
    22  H    0.146853
    23  H    0.174777
    24  H    0.158908
    25  C   -0.301521
    26  C   -0.299999
    27  C   -0.476209
    28  H    0.150097
    29  H    0.152321
    30  H    0.137186
    31  H    0.155944
    32  H    0.159534
    33  H    0.154427
    34  H    0.157588
 Sum of Mulliken charges =  -0.00000

 Dipole moment (field-independent basis, Debye):
    X=              1.8138    Y=              4.7128    Z=              0.6150  Tot=              5.0871
 Quadrupole moment (field-independent basis, Debye-Ang):
   XX=            -81.7187   YY=            -99.4974   ZZ=            -95.8066
   XY=              8.7466   XZ=              0.5874   YZ=              0.4099

 Normal termination of Gaussian 16 at Thu May  6 14:03:19 2021.
