 Gaussian 16, Revision A.03,
 Gaussian 16:  EM64L-G16RevA.03 25-Dec-2016

 -------------
 #p 6-31g* mp2
 -------------

 ------------------------------------------------------
 Input file generated by CHIRIPA (05-May-2021 14:51:07)
 ------------------------------------------------------
 Symbolic Z-matrix:
 Charge =  0 Multiplicity = 1

                         Standard orientation:
 ---------------------------------------------------------------------
 Center     Atomic      Atomic             Coordinates (Angstroms)
 Number     Number       Type             X           Y           Z
 ---------------------------------------------------------------------
      1          6           0       -1.802500    1.390941   -0.268549
      2          6           0       -1.813737    2.836376    0.230026
      3          6           0       -0.633982    3.653078   -0.298149
      4          1           0       -0.860048    0.913286    0.032407
      5          1           0       -1.816843    1.389281   -1.367269
      6          1           0       -1.800774    2.835290    1.327499
      7          1           0       -2.756355    3.310587   -0.071986
      8          1           0       -0.645987    3.683930   -1.392455
      9          1           0        0.315023    3.205933    0.014982
     10          1           0       -0.661684    4.683179    0.070611
     11          6           0       -2.975694    0.561784    0.250917
     12          6           0       -2.964457   -0.883650   -0.247658
     13          6           0       -4.144212   -1.700353    0.280518
     14          1           0       -2.961351    0.563445    1.349638
     15          1           0       -3.918146    1.039439   -0.050039
     16          1           0       -2.021839   -1.357862    0.054355
     17          1           0       -2.977420   -0.882565   -1.345130
     18          1           0       -5.093217   -1.253208   -0.032613
     19          1           0       -4.132207   -1.731205    1.374824
     20          1           0       -4.116509   -2.730454   -0.088243
     21          6           0        2.822391   -0.497463    0.416668
     22          6           0        3.695899    0.414017   -0.445987
     23          6           0        4.556964    1.366347    0.384331
     24          1           0        2.176547    0.121025    1.054871
     25          1           0        3.465731   -1.078029    1.092280
     26          1           0        3.051203    0.991683   -1.120734
     27          1           0        4.339603   -0.206713   -1.082350
     28          1           0        5.223700    0.804630    1.046554
     29          1           0        3.927980    2.009836    1.007950
     30          1           0        5.173375    2.008659   -0.252328
     31          6           0        1.955803   -1.455262   -0.399036
     32          6           0        1.082295   -2.366742    0.463619
     33          6           0        0.221230   -3.319072   -0.366700
     34          1           0        1.312463   -0.874696   -1.074649
     35          1           0        2.601647   -2.073750   -1.037240
     36          1           0        0.438591   -1.746013    1.099980
     37          1           0        1.726991   -2.944409    1.138366
     38          1           0        0.850213   -3.962561   -0.990319
     39          1           0       -0.445507   -2.757356   -1.028923
     40          1           0       -0.395181   -3.961384    0.269959
 ---------------------------------------------------------------------

 SCF Done:  E(RHF) =  -470.732956211     A.U. after   11 cycles
 E2 =    -0.1584289079D+01 EUMP2 =    -0.47231724528977D+03

 The electronic state is 1-A.
 Alpha  occ. eigenvalues --  -11.21662 -11.21643 -11.21612 -11.21574 -11.21465
 Alpha  occ. eigenvalues --  -11.21430 -11.21391 -11.21366 -11.21135 -11.21081
 Alpha  occ. eigenvalues --  -11.21070 -11.21036  -1.08504  -1.08429  -1.03606
 Alpha  occ. eigenvalues --   -1.03511  -0.96039  -0.95973  -0.87051  -0.86991
 Alpha  occ. eigenvalues --   -0.79670  -0.79578  -0.78313  -0.78256  -0.65344
 Alpha  occ. eigenvalues --   -0.64876  -0.61213  -0.60740  -0.59386  -0.59347
 Alpha  occ. eigenvalues --   -0.57647  -0.57596  -0.55421  -0.55172  -0.52707
 Alpha  occ. eigenvalues --   -0.52681  -0.52469  -0.52382  -0.50054  -0.49860
 Alpha  occ. eigenvalues --   -0.48050  -0.47806  -0.46676  -0.46611  -0.46042
 Alpha  occ. eigenvalues --   -0.45833  -0.45683  -0.45496  -0.43819  -0.43801
 Alpha virt. eigenvalues --    0.19103   0.22156   0.23760   0.24970   0.25951
 Alpha virt. eigenvalues --    0.26233   0.26988   0.27682   0.28424   0.30103
 Alpha virt. eigenvalues --    0.30768   0.31265   0.31705   0.32080   0.32231

 Mulliken charges:
               1
     1  C   -0.302222
     2  C   -0.299567
     3  C   -0.476005
     4  H    0.151865
     5  H    0.149540
     6  H    0.152048
     7  H    0.152475
     8  H    0.155356
     9  H    0.154679
    10  H    0.160732
    11  C   -0.297411
    12  C   -0.309655
    13  C   -0.475415
    14  H    0.149256
    15  H    0.149827
    16  H    0.164120
    17  H    0.150923
    18  H    0.155090
    19  H    0.154919
    20  H    0.160749
    21  C   -0.298995
    22  C   -0.300180
    23  C   -0.475672
    24  H    0.149028
    25  H    0.149724
    26  H    0.152790
    27  H    0.152088
    28  H    0.155168
    29  H    0.154930
    30  H    0.160562
    31  C   -0.299915
    32  C   -0.302802
    33  C   -0.480086
    34  H    0.151914
    35  H    0.150033
    36  H    0.152074
    37  H    0.152550
    38  H    0.155730
    39  H    0.159775
    40  H    0.159981
 Sum of Mulliken charges =  -0.00000

 Dipole moment (field-independent basis, Debye):
    X=             -0.0037    Y=             -0.0071    Z=             -0.0180  Tot=              0.0197
 Quadrupole moment (field-independent basis, Debye-Ang):
   XX=            -84.9898   YY=            -85.2693   ZZ=            -84.4240
   XY=             -1.7609   XZ=              0.3697   YZ=             -0.3603

 Normal termination of Gaussian 16 at Thu May  6 08:24:21 2021.
