 Gaussian 16, Revision A.03,
 Gaussian 16:  EM64L-G16RevA.03 25-Dec-2016

 -------------
 #p 6-31g* mp2
 -------------

 ------------------------------------------------------
 Input file generated by CHIRIPA (05-May-2021 14:57:21)
 ------------------------------------------------------
 Symbolic Z-matrix:
 Charge =  0 Multiplicity = 1

                         Standard orientation:
 ---------------------------------------------------------------------
 Center     Atomic      Atomic             Coordinates (Angstroms)
 Number     Number       Type             X           Y           Z
 ---------------------------------------------------------------------
      1          6           0       -1.564740   -1.458022   -0.510007
      2          6           0       -1.547590   -0.077805   -0.283670
      3          6           0       -2.728429    0.606827    0.018730
      4          6           0       -3.913916   -0.123409    0.087043
      5          6           0       -3.963445   -1.499004   -0.133351
      6          6           0       -2.770487   -2.162974   -0.434259
      7          1           0       -0.642729   -1.981834   -0.744338
      8          1           0       -0.612655    0.472248   -0.341835
      9          1           0       -2.743777    1.674946    0.198462
     10          1           0       -4.910860   -2.020159   -0.068395
     11          1           0       -2.786807   -3.234910   -0.609562
     12          7           0       -5.170433    0.590443    0.406390
     13          8           0       -6.201825   -0.075830    0.460685
     14          8           0       -5.100106    1.802716    0.596352
     15          6           0        4.828723   -1.905190    0.673321
     16          6           0        5.145207   -0.704500    1.317298
     17          6           0        4.529802    0.490702    0.933481
     18          6           0        3.598366    0.448552   -0.102832
     19          6           0        3.261878   -0.731765   -0.763830
     20          6           0        3.889724   -1.914972   -0.363359
     21          1           0        5.311617   -2.828992    0.977949
     22          1           0        5.874065   -0.693905    2.122716
     23          1           0        4.756134    1.434318    1.414916
     24          1           0        2.531308   -0.710746   -1.563356
     25          1           0        3.641981   -2.845967   -0.865272
     26          7           0        2.940279    1.707510   -0.517977
     27          8           0        2.123068    1.643714   -1.433800
     28          8           0        3.254142    2.734238    0.080317
 ---------------------------------------------------------------------

 SCF Done:  E(RHF) =  -868.338810016     A.U. after   16 cycles
 E2 =    -0.2599215955D+01 EUMP2 =    -0.87093802597103D+03

 The electronic state is 1-A.
 Alpha  occ. eigenvalues --  -20.61851 -20.61794 -20.60442 -20.60428 -15.86841
 Alpha  occ. eigenvalues --  -15.85486 -11.32112 -11.30833 -11.28719 -11.28608
 Alpha  occ. eigenvalues --  -11.28342 -11.27678 -11.27592 -11.27423 -11.27305
 Alpha  occ. eigenvalues --  -11.27191 -11.26495 -11.26273  -1.60880  -1.59512
 Alpha  occ. eigenvalues --   -1.40438  -1.39066  -1.20264  -1.18997  -1.09668
 Alpha  occ. eigenvalues --   -1.08416  -1.05653  -1.04375  -0.96522  -0.95255
 Alpha  occ. eigenvalues --   -0.87051  -0.85786  -0.83357  -0.82067  -0.78431
 Alpha  occ. eigenvalues --   -0.77101  -0.73051  -0.72194  -0.71706  -0.71356
 Alpha  occ. eigenvalues --   -0.70834  -0.70160  -0.65915  -0.65645  -0.64650
 Alpha  occ. eigenvalues --   -0.64359  -0.63004  -0.61701  -0.56128  -0.54959
 Alpha  occ. eigenvalues --   -0.53980  -0.53737  -0.52734  -0.52452  -0.49831
 Alpha  occ. eigenvalues --   -0.49800  -0.48466  -0.48460  -0.45841  -0.44475
 Alpha  occ. eigenvalues --   -0.38219  -0.37256  -0.37016  -0.35969
 Alpha virt. eigenvalues --    0.04060   0.05399   0.10369   0.11671   0.15558
 Alpha virt. eigenvalues --    0.16894   0.19994   0.21815   0.25852   0.27004
 Alpha virt. eigenvalues --    0.27914   0.28953   0.30370   0.31283   0.31854

 Mulliken charges:
               1
     1  C   -0.171303
     2  C   -0.222975
     3  C   -0.171794
     4  C    0.158775
     5  C   -0.172244
     6  C   -0.218214
     7  H    0.216658
     8  H    0.236880
     9  H    0.279065
    10  H    0.274057
    11  H    0.219951
    12  N    0.487937
    13  O   -0.462165
    14  O   -0.459108
    15  C   -0.169913
    16  C   -0.217833
    17  C   -0.169929
    18  C    0.158675
    19  C   -0.176216
    20  C   -0.218345
    21  H    0.228598
    22  H    0.227032
    23  H    0.278299
    24  H    0.271897
    25  H    0.223467
    26  N    0.487356
    27  O   -0.465303
    28  O   -0.453307
 Sum of Mulliken charges =  -0.00000

 Dipole moment (field-independent basis, Debye):
    X=              7.1247    Y=             -6.7761    Z=              0.4608  Tot=              9.8433
 Quadrupole moment (field-independent basis, Debye-Ang):
   XX=           -120.2093   YY=           -103.7168   ZZ=           -104.1719
   XY=             -2.0872   XZ=             12.6633   YZ=              3.3005

 Normal termination of Gaussian 16 at Thu May  6 17:51:22 2021.
