 Gaussian 16, Revision A.03,
 Gaussian 16:  EM64L-G16RevA.03 25-Dec-2016

 -------------
 #p 6-31g* mp2
 -------------

 ------------------------------------------------------
 Input file generated by CHIRIPA (05-May-2021 14:53:15)
 ------------------------------------------------------
 Symbolic Z-matrix:
 Charge =  0 Multiplicity = 1

                         Standard orientation:
 ---------------------------------------------------------------------
 Center     Atomic      Atomic             Coordinates (Angstroms)
 Number     Number       Type             X           Y           Z
 ---------------------------------------------------------------------
      1          6           0       -4.949224    0.382627    0.323366
      2          6           0       -6.435437    0.484183   -0.021370
      3          6           0       -7.121050    1.668167    0.661206
      4          1           0       -4.837191    0.294830    1.412717
      5          1           0       -4.447730    1.315834    0.031778
      6          1           0       -6.933720   -0.449473    0.269517
      7          1           0       -6.543954    0.571556   -1.110042
      8          1           0       -6.650371    2.610419    0.362502
      9          1           0       -7.042351    1.583589    1.749900
     10          1           0       -8.182771    1.721835    0.400959
     11          6           0       -4.249966   -0.796092   -0.351458
     12          6           0       -2.763753   -0.897648   -0.006722
     13          6           0       -2.078140   -2.081632   -0.689298
     14          1           0       -4.751460   -1.729299   -0.059869
     15          1           0       -4.361999   -0.708295   -1.440809
     16          1           0       -2.655235   -0.985020    1.081950
     17          1           0       -2.265469    0.036009   -0.297609
     18          1           0       -2.156838   -1.997053   -1.777991
     19          1           0       -2.548818   -3.023884   -0.390594
     20          1           0       -1.016419   -2.135300   -0.429051
     21          6           0        3.224298   -2.315432    0.318251
     22          6           0        2.265788   -1.541765   -0.344486
     23          6           0        2.459809   -0.168471   -0.520466
     24          6           0        3.629120    0.400971   -0.018733
     25          6           0        4.602677   -0.343120    0.645951
     26          6           0        4.387631   -1.714700    0.810487
     27          1           0        3.065411   -3.381574    0.450512
     28          1           0        1.361380   -2.005611   -0.727807
     29          1           0        1.734149    0.454065   -1.029667
     30          1           0        5.494245    0.147608    1.017046
     31          1           0        5.133739   -2.313068    1.325582
     32          7           0        3.845650    1.853908   -0.198978
     33          8           0        4.884251    2.331659    0.252353
     34          8           0        2.972665    2.487459   -0.788172
 ---------------------------------------------------------------------

 SCF Done:  E(RHF) =  -669.535552688     A.U. after   15 cycles
 E2 =    -0.2090742068D+01 EUMP2 =    -0.67162629475621D+03

 The electronic state is 1-A.
 Alpha  occ. eigenvalues --  -20.60751 -20.60746 -15.85805 -11.31167 -11.27743
 Alpha  occ. eigenvalues --  -11.27735 -11.27482 -11.26754 -11.26727 -11.22167
 Alpha  occ. eigenvalues --  -11.21946 -11.21794 -11.21782 -11.21621 -11.21189
 Alpha  occ. eigenvalues --   -1.59826  -1.39380  -1.19342  -1.08797  -1.08737
 Alpha  occ. eigenvalues --   -1.04746  -1.03943  -0.96412  -0.95572  -0.87436
 Alpha  occ. eigenvalues --   -0.86143  -0.82405  -0.80008  -0.78570  -0.77454
 Alpha  occ. eigenvalues --   -0.72023  -0.71149  -0.70450  -0.65420  -0.64994
 Alpha  occ. eigenvalues --   -0.64778  -0.62134  -0.61329  -0.59805  -0.58004
 Alpha  occ. eigenvalues --   -0.55683  -0.55249  -0.53291  -0.53067  -0.52897
 Alpha  occ. eigenvalues --   -0.52614  -0.50333  -0.48783  -0.48778  -0.48318
 Alpha  occ. eigenvalues --   -0.47020  -0.46123  -0.46020  -0.44786  -0.44191
 Alpha  occ. eigenvalues --   -0.37323  -0.36345
 Alpha virt. eigenvalues --    0.05081   0.11267   0.16528   0.20103   0.22687
 Alpha virt. eigenvalues --    0.23865   0.25972   0.26306   0.27124   0.28241
 Alpha virt. eigenvalues --    0.28640   0.29825   0.31035   0.31676   0.32188

 Mulliken charges:
               1
     1  C   -0.299015
     2  C   -0.300002
     3  C   -0.476047
     4  H    0.150332
     5  H    0.151857
     6  H    0.151687
     7  H    0.152439
     8  H    0.156575
     9  H    0.155493
    10  H    0.160850
    11  C   -0.299082
    12  C   -0.299178
    13  C   -0.481303
    14  H    0.149843
    15  H    0.150608
    16  H    0.154099
    17  H    0.153541
    18  H    0.157392
    19  H    0.158551
    20  H    0.151503
    21  C   -0.171857
    22  C   -0.224591
    23  C   -0.172502
    24  C    0.158584
    25  C   -0.170921
    26  C   -0.218568
    27  H    0.225972
    28  H    0.232169
    29  H    0.275607
    30  H    0.275562
    31  H    0.223338
    32  N    0.488142
    33  O   -0.460540
    34  O   -0.460539
 Sum of Mulliken charges =  -0.00000

 Dipole moment (field-independent basis, Debye):
    X=             -0.9150    Y=             -5.0898    Z=              0.6560  Tot=              5.2128
 Quadrupole moment (field-independent basis, Debye-Ang):
   XX=            -96.3201   YY=            -99.8381   ZZ=            -93.8682
   XY=            -18.8639   XZ=              4.8747   YZ=             -0.7327

 Normal termination of Gaussian 16 at Wed May  5 23:32:15 2021.
