 Gaussian 16, Revision A.03,
 Gaussian 16:  EM64L-G16RevA.03 25-Dec-2016

 -------------
 #p 6-31g* mp2
 -------------

 ------------------------------------------------------
 Input file generated by CHIRIPA (05-May-2021 14:57:26)
 ------------------------------------------------------
 Symbolic Z-matrix:
 Charge =  0 Multiplicity = 1

                         Standard orientation:
 ---------------------------------------------------------------------
 Center     Atomic      Atomic             Coordinates (Angstroms)
 Number     Number       Type             X           Y           Z
 ---------------------------------------------------------------------
      1          6           0        1.898098    0.509975    1.062423
      2          6           0        2.841379   -0.237542    1.775137
      3          6           0        4.077591   -0.551833    1.202817
      4          6           0        4.338486   -0.100454   -0.090041
      5          6           0        3.419316    0.646101   -0.825618
      6          6           0        2.189564    0.948637   -0.233395
      7          1           0        0.940288    0.749558    1.514746
      8          1           0        2.617752   -0.579538    2.781653
      9          1           0        4.826064   -1.128960    1.732091
     10          1           0        3.670988    0.973056   -1.827206
     11          1           0        1.458909    1.529334   -0.789254
     12          7           0        5.643789   -0.426958   -0.706466
     13          8           0        5.849366   -0.017504   -1.846958
     14          8           0        6.436592   -1.086143   -0.037455
     15          6           0       -2.538016    1.906393    0.616101
     16          6           0       -3.565507    2.142818   -0.303076
     17          6           0       -4.449743    1.119814   -0.658233
     18          6           0       -4.276621   -0.133151   -0.072232
     19          6           0       -3.262785   -0.399883    0.846616
     20          6           0       -2.390195    0.638033    1.187006
     21          1           0       -1.855643    2.706879    0.886260
     22          1           0       -3.682697    3.126851   -0.748039
     23          1           0       -5.253910    1.275340   -1.367138
     24          1           0       -3.171152   -1.391275    1.273422
     25          1           0       -1.593146    0.451539    1.901133
     26          7           0       -5.206558   -1.224053   -0.440405
     27          8           0       -5.032772   -2.319086    0.090008
     28          8           0       -6.091620   -0.963412   -1.252420
 ---------------------------------------------------------------------

 SCF Done:  E(RHF) =  -868.336359327     A.U. after   16 cycles
 E2 =    -0.2599883315D+01 EUMP2 =    -0.87093624264269D+03

 The electronic state is 1-A.
 Alpha  occ. eigenvalues --  -20.61386 -20.61380 -20.61165 -20.61159 -15.86447
 Alpha  occ. eigenvalues --  -15.86222 -11.31997 -11.31719 -11.28630 -11.28566
 Alpha  occ. eigenvalues --  -11.28456 -11.28290 -11.28285 -11.28192 -11.27785
 Alpha  occ. eigenvalues --  -11.27622 -11.27392 -11.27380  -1.60457  -1.60237
 Alpha  occ. eigenvalues --   -1.40005  -1.39786  -1.20209  -1.19914  -1.09588
 Alpha  occ. eigenvalues --   -1.09311  -1.05642  -1.05329  -0.96380  -0.96121
 Alpha  occ. eigenvalues --   -0.87050  -0.86736  -0.83209  -0.82941  -0.78212
 Alpha  occ. eigenvalues --   -0.77941  -0.72663  -0.72440  -0.71782  -0.71560
 Alpha  occ. eigenvalues --   -0.71356  -0.71104  -0.65872  -0.65695  -0.65577
 Alpha  occ. eigenvalues --   -0.65334  -0.62988  -0.62667  -0.56207  -0.55929
 Alpha  occ. eigenvalues --   -0.53953  -0.53738  -0.53647  -0.53433  -0.49438
 Alpha  occ. eigenvalues --   -0.49404  -0.49209  -0.49185  -0.45369  -0.45162
 Alpha  occ. eigenvalues --   -0.38233  -0.37937  -0.37232  -0.36917
 Alpha virt. eigenvalues --    0.04333   0.04582   0.10299   0.10730   0.15736
 Alpha virt. eigenvalues --    0.16033   0.17931   0.21977   0.24711   0.26283
 Alpha virt. eigenvalues --    0.27469   0.29184   0.29578   0.31029   0.32175

 Mulliken charges:
               1
     1  C   -0.171454
     2  C   -0.218911
     3  C   -0.169936
     4  C    0.159407
     5  C   -0.170008
     6  C   -0.218454
     7  H    0.216797
     8  H    0.223508
     9  H    0.277582
    10  H    0.277337
    11  H    0.222483
    12  N    0.487918
    13  O   -0.458929
    14  O   -0.458795
    15  C   -0.174134
    16  C   -0.218245
    17  C   -0.169415
    18  C    0.159351
    19  C   -0.168990
    20  C   -0.221231
    21  H    0.223025
    22  H    0.226090
    23  H    0.278669
    24  H    0.277942
    25  H    0.216827
    26  N    0.487951
    27  O   -0.458476
    28  O   -0.457908
 Sum of Mulliken charges =  -0.00000

 Dipole moment (field-independent basis, Debye):
    X=             -1.4056    Y=              4.9102    Z=              3.3162  Tot=              6.0896
 Quadrupole moment (field-independent basis, Debye-Ang):
   XX=           -170.4917   YY=           -103.8944   ZZ=           -100.8512
   XY=            -14.0668   XZ=              7.2614   YZ=             -5.5834

 Normal termination of Gaussian 16 at Wed May  5 21:12:17 2021.
